Title
81290
    1CHL1    C3    1   0.816   5.533  10.400 -0.5779  0.5953 -0.3886
    1CHL1    H3    2   0.902   5.602  10.387 -0.8226  1.0959  0.5661
    1CHL1    O3    3   0.768   5.547  10.529  0.1557 -0.1048  0.2383
    1CHL1   H3'    4   0.687   5.495  10.522 -0.3362  0.8129 -1.5878
    1CHL1    C4    5   0.708   5.565  10.292  0.0868  0.4942 -0.6030
    1CHL1   H4A    6   0.623   5.494  10.298  0.2707  0.1042 -2.1206
    1CHL1   H4B    7   0.656   5.660  10.316 -0.3248 -0.2924  1.8174
    1CHL1    C5    8   0.763   5.559  10.150 -0.2258  0.2299  0.5146
    1CHL1    C6    9   0.752   5.651  10.058 -0.0933 -0.2500  0.2222
    1CHL1    H6   10   0.710   5.749  10.084  0.7609 -0.3468  2.1744
    1CHL1    C7   11   0.799   5.642   9.912  0.3513  0.3554 -0.4642
    1CHL1   H7A   12   0.712   5.681   9.855 -0.0797  0.3329  0.1666
    1CHL1   H7B   13   0.890   5.705   9.901 -0.7602  2.5849  2.0250
    1CHL1    C8   14   0.830   5.504   9.866  0.3830  0.5590  0.3167
    1CHL1    H8   15   0.740   5.446   9.836  1.1062 -1.5405  1.9604
    1CHL1   C14   16   0.917   5.506   9.741 -0.1106 -0.0590  0.0316
    1CHL1   H14   17   1.018   5.543   9.769  1.2310 -2.6371 -1.0776
    1CHL1   C15   18   0.863   5.577   9.615  0.3643 -0.9014  0.2880
    1CHL1  H15A   19   0.754   5.559   9.615 -0.0500  1.2618 -0.4075
    1CHL1  H15B   20   0.881   5.686   9.630 -0.5177 -0.5989 -0.7649
    1CHL1   C16   21   0.942   5.522   9.499  0.9317 -0.0547 -0.2108
    1CHL1  H16A   22   0.866   5.482   9.428 -1.0949  2.3894  0.4448
    1CHL1  H16B   23   0.998   5.598   9.440  0.7267  0.2086 -0.0645
    1CHL1   C17   24   1.026   5.408   9.555  0.3301 -0.6136 -0.4784
    1CHL1   H17   25   1.119   5.463   9.579 -0.5492  1.4142 -1.5356
    1CHL1   C13   26   0.960   5.370   9.695  0.0940  0.4207  0.0559
    1CHL1   C18   27   0.828   5.283   9.664 -0.1746 -0.0055  0.4090
    1CHL1  H18A   28   0.783   5.325   9.572 -1.2126  0.4389  1.1060
    1CHL1  H18B   29   0.858   5.180   9.636  1.0917  0.0617  1.3995
    1CHL1  H18C   30   0.761   5.267   9.751  0.2052  2.7435  1.3159
    1CHL1   C12   31   1.044   5.310   9.808 -0.3849 -0.1372  0.3083
    1CHL1  H12A   32   1.083   5.216   9.763 -2.8242 -0.6043 -0.9646
    1CHL1  H12B   33   1.132   5.373   9.835  0.4898 -0.0093 -2.5635
    1CHL1   C11   34   0.960   5.297   9.940  0.2434  0.3838 -0.3793
    1CHL1  H11A   35   0.878   5.222   9.928 -0.3661  1.3707 -3.3655
    1CHL1  H11B   36   1.029   5.252  10.014  0.1984  0.1481 -0.4773
    1CHL1    C9   37   0.899   5.428   9.981 -0.5400 -1.0971 -0.8098
    1CHL1    H9   38   0.992   5.482  10.008 -0.5338 -0.7166 -1.5798
    1CHL1   C10   39   0.827   5.427  10.117 -1.1990  0.5551  0.0108
    1CHL1   C19   40   0.709   5.321  10.114  0.4603 -0.0901  0.2078
    1CHL1  H19A   41   0.744   5.226  10.068  2.0155  1.7495 -2.7503
    1CHL1  H19B   42   0.656   5.315  10.212  1.5358  0.9610  0.8726
    1CHL1  H19C   43   0.629   5.334  10.037  0.2790 -0.8794  0.2552
    1CHL1    C1   44   0.934   5.394  10.229  0.0180  0.2070 -0.1891
    1CHL1   H1A   45   0.983   5.295  10.218  2.1220  0.9182  1.8629
    1CHL1   H1B   46   1.014   5.471  10.231 -0.0768  0.4409 -2.7851
    1CHL1    C2   47   0.879   5.393  10.371  0.9355 -0.2153 -0.1279
    1CHL1   H2A   48   0.960   5.363  10.441  0.2975 -1.7203 -0.0087
    1CHL1   H2B   49   0.797   5.319  10.375 -0.3660  1.2386  1.4771
    1CHL1   C20   50   1.051   5.298   9.458 -0.3458  0.1490  0.2736
    1CHL1   H20   51   0.965   5.230   9.441 -0.7162  0.9077 -1.0040
    1CHL1   C21   52   1.167   5.215   9.504 -0.0547  0.5700  0.7921
    1CHL1  H21A   53   1.116   5.117   9.516 -1.0621  1.0454  0.4268
    1CHL1  H21B   54   1.210   5.248   9.602  1.8471 -0.5318  0.3955
    1CHL1  H21C   55   1.257   5.192   9.442  0.3759 -1.4833  2.0775
    1CHL1   C22   56   1.092   5.343   9.315 -0.5170  0.3422  0.0165
    1CHL1  H22A   57   1.029   5.414   9.257 -0.6804 -0.3482 -0.6660
    1CHL1  H22B   58   1.187   5.400   9.319  0.1595 -0.8276  1.1954
    1CHL1   C23   59   1.118   5.224   9.219 -0.2786  0.0911 -0.5878
    1CHL1  H23A   60   1.216   5.180   9.246 -0.8899 -0.6764  0.4370
    1CHL1  H23B   61   1.038   5.147   9.226 -0.2818 -0.0105 -1.6142
    1CHL1   C24   62   1.107   5.258   9.064 -0.5839 -0.3442 -0.1600
    1CHL1  H24A   63   1.135   5.363   9.044 -0.2475 -0.4571 -0.2886
    1CHL1  H24B   64   1.193   5.202   9.020  2.0090  1.8551  1.7199
    1CHL1   C25   65   0.979   5.226   8.995 -0.3392  0.7268 -0.0945
    1CHL1   H25   66   0.952   5.121   9.019  1.0918  0.7342  1.7703
    1CHL1   C26   67   0.862   5.306   9.049  0.4935  0.1042 -0.0050
    1CHL1  H26A   68   0.850   5.287   9.158  0.0390  4.7022  0.9192
    1CHL1  H26B   69   0.878   5.414   9.029 -3.1142  0.4085 -1.9553
    1CHL1  H26C   70   0.777   5.283   8.981 -0.4164  0.4846  0.9701
    1CHL1   C27   71   0.990   5.246   8.846  0.5424  0.0649  0.1103
    1CHL1  H27A   72   0.884   5.260   8.816  0.2215  0.1845  1.2696
    1CHL1  H27B   73   1.044   5.336   8.810 -1.9336  1.6353  0.0788
    1CHL1  H27C   74   1.021   5.148   8.802  0.4419  0.0352  0.1035
    2CHL1    C3   75   0.040   2.468   9.872  0.5907  0.1913 -0.3548
    2CHL1    H3   76   0.029   2.578   9.881 -1.4448  0.0486 -0.6618
    2CHL1    O3   77   0.077   2.418  10.000 -0.2770  0.1944  0.1878
    2CHL1   H3'   78   0.078   2.323   9.987  0.6936  0.3386 -1.0135
    2CHL1    C4   79  -0.098   2.408   9.821 -0.5010  0.5299  0.7321
    2CHL1   H4A   80  -0.092   2.298   9.813  1.9746  0.7271 -1.5923
    2CHL1   H4B   81  -0.175   2.421   9.900 -1.8853 -0.7484 -0.3445
    2CHL1    C5   82  -0.137   2.462   9.689  0.2556 -0.3492 -0.8766
    2CHL1    C6   83  -0.254   2.522   9.662  0.2187 -0.1571 -0.0197
    2CHL1    H6   84  -0.329   2.541   9.741  2.1740  0.9096  1.6725
    2CHL1    C7   85  -0.298   2.572   9.519 -0.0827 -0.1570 -0.2024
    2CHL1   H7A   86  -0.398   2.537   9.488  0.0760  1.5965 -3.0115
    2CHL1   H7B   87  -0.298   2.683   9.527  1.5294 -0.1746  0.5429
    2CHL1    C8   88  -0.200   2.530   9.408 -0.3354  0.1716 -0.0607
    2CHL1    H8   89  -0.232   2.428   9.377  1.7472 -0.5950  0.1647
    2CHL1   C14   90  -0.219   2.616   9.287  0.1972  0.7813  0.1226
    2CHL1   H14   91  -0.174   2.713   9.318  2.5924  0.1032 -0.9926
    2CHL1   C15   92  -0.364   2.660   9.246  0.1476 -0.0182 -0.6295
    2CHL1  H15A   93  -0.420   2.567   9.225 -0.1937  0.4512 -1.8711
    2CHL1  H15B   94  -0.412   2.709   9.334  1.5403 -0.3106  0.3211
    2CHL1   C16   95  -0.331   2.724   9.107  0.1990  0.3164 -0.1678
    2CHL1  H16A   96  -0.395   2.678   9.029 -1.4818 -1.9035  2.3481
    2CHL1  H16B   97  -0.371   2.827   9.119 -2.2822 -0.6733  0.7907
    2CHL1   C17   98  -0.182   2.711   9.077  0.3376 -0.2510 -0.0495
    2CHL1   H17   99  -0.131   2.793   9.133  1.1917 -2.6107  2.8825
    2CHL1   C13  100  -0.137   2.587   9.159 -0.2829 -0.1278  0.2357
    2CHL1   C18  101  -0.174   2.447   9.106  0.1180 -0.0667 -0.2026
    2CHL1  H18A  102  -0.139   2.437   9.001  1.3941  0.5118  0.1513
    2CHL1  H18B  103  -0.123   2.366   9.163  0.5377 -0.7577 -1.5087
    2CHL1  H18C  104  -0.283   2.428   9.117 -0.0543  1.0261  0.0806
    2CHL1   C12  105   0.009   2.587   9.209  0.2146 -0.4041 -0.1799
    2CHL1  H12A  106   0.085   2.563   9.132  1.3981  1.1214  0.4251
    2CHL1  H12B  107   0.031   2.696   9.223  2.5374 -0.6448 -1.5072
    2CHL1   C11  108   0.028   2.498   9.335 -0.5304 -0.3614  0.5674
    2CHL1  H11A  109   0.008   2.391   9.315 -2.5390 -0.1513  1.2193
    2CHL1  H11B  110   0.137   2.498   9.355 -0.3471  1.7379 -0.1682
    2CHL1    C9  111  -0.056   2.536   9.455 -0.2491 -0.0814  0.6599
    2CHL1    H9  112  -0.023   2.639   9.476  1.2844 -0.0263 -1.6004
    2CHL1   C10  113  -0.024   2.449   9.581  0.6755 -0.1934  0.1485
    2CHL1   C19  114  -0.014   2.296   9.544 -0.5484  0.1846 -0.2912
    2CHL1  H19A  115   0.002   2.233   9.634  1.3762 -1.0477 -1.4476
    2CHL1  H19B  116  -0.105   2.268   9.485 -1.6786  0.9365  1.0213
    2CHL1  H19C  117   0.081   2.278   9.490  0.7724  2.3060  1.1542
    2CHL1    C1  118   0.111   2.501   9.638  0.2384  0.1750 -0.0832
    2CHL1   H1A  119   0.192   2.479   9.566  1.1227  1.2655  0.5446
    2CHL1   H1B  120   0.107   2.612   9.642  1.1951  0.2182 -0.0630
    2CHL1    C2  121   0.155   2.447   9.776 -0.2269  0.2824  0.1370
    2CHL1   H2A  122   0.252   2.491   9.805 -0.4009  0.3564  0.6172
    2CHL1   H2B  123   0.179   2.339   9.770  1.5760  0.4779  2.5433
    2CHL1   C20  124  -0.139   2.709   8.929 -0.4775  0.7686 -0.4792
    2CHL1   H20  125  -0.168   2.614   8.880 -2.0629 -0.2087  2.1363
    2CHL1   C21  126   0.011   2.715   8.915 -0.7142 -0.3028 -0.2345
    2CHL1  H21A  127   0.060   2.616   8.908 -1.3046 -0.5313 -1.4355
    2CHL1  H21B  128   0.055   2.780   8.994 -0.5083  0.8091 -1.2275
    2CHL1  H21C  129   0.023   2.761   8.814 -0.6136  0.2800  0.0417
    2CHL1   C22  130  -0.203   2.827   8.858  0.2131  0.4888  0.1000
    2CHL1  H22A  131  -0.177   2.811   8.751 -0.5833  1.7853 -0.3121
    2CHL1  H22B  132  -0.313   2.813   8.857  0.5236 -2.6900 -0.6739
    2CHL1   C23  133  -0.164   2.971   8.901  0.2621  0.4597  0.0155
    2CHL1  H23A  134  -0.154   2.975   9.012  1.3291  1.9503 -0.1025
    2CHL1  H23B  135  -0.063   3.003   8.866  0.8296  0.9469  1.9558
    2CHL1   C24  136  -0.268   3.084   8.858  0.2699 -0.1730  0.7283
    2CHL1  H24A  137  -0.371   3.072   8.897  0.5658  1.4923  2.1669
    2CHL1  H24B  138  -0.219   3.173   8.903  0.9281 -1.0562  1.8084
    2CHL1   C25  139  -0.286   3.101   8.703  0.1648  0.2123  0.0613
    2CHL1   H25  140  -0.317   2.999   8.673  0.1782 -0.0687  0.9584
    2CHL1   C26  141  -0.392   3.202   8.661  0.2543 -0.1145  0.5626
    2CHL1  H26A  142  -0.356   3.306   8.678  1.3220 -0.0574 -1.6667
    2CHL1  H26B  143  -0.413   3.185   8.554  0.2363  2.9570 -0.0158
    2CHL1  H26C  144  -0.489   3.191   8.714  0.1643  1.2615  0.7229
    2CHL1   C27  145  -0.159   3.131   8.631 -0.6243  0.4605  0.0148
    2CHL1  H27A  146  -0.182   3.163   8.527  1.3377 -0.5049 -0.7806
    2CHL1  H27B  147  -0.114   3.218   8.683  0.0302 -0.7361  1.5020
    2CHL1  H27C  148  -0.088   3.045   8.636 -0.2017  0.8824  1.9342
    3CHL1    C3  149   6.296   3.061  10.221 -0.0292 -0.4650 -0.2321
    3CHL1    H3  150   6.259   2.959  10.197 -2.7846  0.0216  1.4623
    3CHL1    O3  151   6.241   3.091  10.346  0.3501  0.8615 -0.1616
    3CHL1   H3'  152   6.250   3.187  10.354  3.2585  0.5917  1.4719
    3CHL1    C4  153   6.450   3.074  10.225  1.1109 -0.2550 -0.1496
    3CHL1   H4A  154   6.475   3.175  10.265  0.0922 -0.1641  0.2806
    3CHL1   H4B  155   6.479   2.996  10.299 -3.4378 -1.0176  1.1253
    3CHL1    C5  156   6.511   3.046  10.086 -0.7915  0.4963  0.7554
    3CHL1    C6  157   6.598   2.945  10.066 -0.1656 -0.1796  0.3146
    3CHL1    H6  158   6.622   2.879  10.151 -2.2344 -0.2645  0.8894
    3CHL1    C7  159   6.661   2.912   9.934  0.1709  0.8591  0.9032
    3CHL1   H7A  160   6.768   2.883   9.946  0.7585  0.6443 -3.2388
    3CHL1   H7B  161   6.615   2.824   9.885  0.2389  1.8622 -1.0833
    3CHL1    C8  162   6.645   3.027   9.831 -0.7548 -0.4224 -0.1844
    3CHL1    H8  163   6.721   3.104   9.858  1.3560 -2.5589  0.3922
    3CHL1   C14  164   6.688   2.976   9.690  0.2839 -0.4284 -0.2239
    3CHL1   H14  165   6.617   2.892   9.676  0.1136 -0.5547  1.2954
    3CHL1   C15  166   6.826   2.927   9.673 -0.1553 -0.2865 -0.5260
    3CHL1  H15A  167   6.888   2.995   9.737 -0.9887  0.8390 -0.8895
    3CHL1  H15B  168   6.835   2.821   9.705  2.6631 -0.8340 -2.7626
    3CHL1   C16  169   6.857   2.937   9.520 -0.5098 -0.4888  0.6722
    3CHL1  H16A  170   6.932   3.013   9.489 -1.0850  0.1800  0.8803
    3CHL1  H16B  171   6.879   2.841   9.470 -0.4252 -0.2164  0.1752
    3CHL1   C17  172   6.729   3.005   9.451 -0.9336  0.6116 -0.0628
    3CHL1   H17  173   6.662   2.925   9.413 -0.2760  0.5214 -1.0599
    3CHL1   C13  174   6.658   3.072   9.570 -0.2255 -0.6622 -0.4639
    3CHL1   C18  175   6.731   3.206   9.596 -0.4414  0.0387  0.7583
    3CHL1  H18A  176   6.840   3.186   9.590 -0.7872 -2.1850  0.6690
    3CHL1  H18B  177   6.698   3.284   9.524 -1.2843 -1.7420 -0.8823
    3CHL1  H18C  178   6.713   3.249   9.696  0.7975 -0.8854  1.3990
    3CHL1   C12  179   6.508   3.091   9.572  0.3346 -0.1853 -0.0189
    3CHL1  H12A  180   6.464   3.149   9.488  1.8349 -0.6731 -1.1981
    3CHL1  H12B  181   6.457   2.993   9.565  0.7583 -0.5577  1.6849
    3CHL1   C11  182   6.465   3.155   9.708 -0.1179  0.6650 -0.2309
    3CHL1  H11A  183   6.495   3.262   9.710 -0.3458  0.7192  0.7775
    3CHL1  H11B  184   6.354   3.160   9.706 -0.2188 -0.6680  0.9057
    3CHL1    C9  185   6.501   3.078   9.835  0.7656  0.6770  0.4498
    3CHL1    H9  186   6.449   2.981   9.824 -1.5063  1.9792 -1.4556
    3CHL1   C10  187   6.451   3.141   9.972 -0.1262  0.5809  0.2736
    3CHL1   C19  188   6.509   3.286   9.988 -0.7336 -0.4540  0.0823
    3CHL1  H19A  189   6.608   3.295   9.937 -0.4229 -1.1364  0.5428
    3CHL1  H19B  190   6.440   3.346   9.925  0.1965 -0.5552 -1.0778
    3CHL1  H19C  191   6.514   3.326  10.092  0.4840  0.4587 -0.3012
    3CHL1    C1  192   6.300   3.137   9.981  0.3459  0.1514 -0.3458
    3CHL1   H1A  193   6.252   3.213   9.916 -1.8338  0.5289  1.5391
    3CHL1   H1B  194   6.263   3.036   9.953 -0.2215 -0.3233  1.8890
    3CHL1    C2  195   6.242   3.158  10.126 -0.0674 -0.3419 -0.4236
    3CHL1   H2A  196   6.132   3.142  10.130 -0.1175  0.0634 -0.1216
    3CHL1   H2B  197   6.261   3.262  10.160  2.7138 -1.4940  1.8711
    3CHL1   C20  198   6.771   3.096   9.324  0.1754 -0.3381 -0.7220
    3CHL1   H20  199   6.833   3.179   9.363  0.5695 -1.7535  1.9139
    3CHL1   C21  200   6.642   3.154   9.258  0.2543 -0.0014  0.2531
    3CHL1  H21A  201   6.601   3.238   9.318 -0.2599 -0.4519  0.5373
    3CHL1  H21B  202   6.562   3.077   9.254 -0.8852  1.2091 -3.0392
    3CHL1  H21C  203   6.671   3.177   9.153 -2.1507 -2.0848 -0.9618
    3CHL1   C22  204   6.858   3.020   9.223  0.4117  0.1761  0.1661
    3CHL1  H22A  205   6.938   2.965   9.277  1.9580  1.7567 -0.3833
    3CHL1  H22B  206   6.797   2.947   9.165 -1.1887  1.4300  0.2118
    3CHL1   C23  207   6.922   3.113   9.121  0.5832 -0.8446 -0.0465
    3CHL1  H23A  208   6.857   3.169   9.051  0.6150 -0.6662  0.0669
    3CHL1  H23B  209   6.971   3.186   9.188  1.1989 -0.8777 -0.4522
    3CHL1   C24  210   7.040   3.049   9.034  0.3634  0.0012  0.2435
    3CHL1  H24A  211   7.124   3.027   9.104  0.2947 -0.3898  0.2092
    3CHL1  H24B  212   6.994   2.959   8.988 -0.6037  0.5922  0.0290
    3CHL1   C25  213   7.076   3.154   8.932  0.2707  0.2828  0.9667
    3CHL1   H25  214   7.080   3.258   8.971 -0.0483  0.4871  0.4688
    3CHL1   C26  215   7.215   3.128   8.872 -0.2213  0.6437 -0.0886
    3CHL1  H26A  216   7.223   3.021   8.843  0.1217  1.3167 -2.7976
    3CHL1  H26B  217   7.243   3.192   8.785  1.0588  0.8461  0.4492
    3CHL1  H26C  218   7.289   3.135   8.954 -0.2161 -0.2109 -0.0081
    3CHL1   C27  219   6.981   3.150   8.808 -1.1258 -0.0012 -1.0180
    3CHL1  H27A  220   6.972   3.047   8.767 -0.2656 -0.6064  0.2534
    3CHL1  H27B  221   6.878   3.185   8.831 -0.2407  2.9569 -1.1689
    3CHL1  H27C  222   7.024   3.204   8.721  3.8679 -1.8462 -0.0476
    4CHL1    C3  223   0.034   3.876  10.207  0.1530 -0.5565  0.1441
    4CHL1    H3  224   0.101   3.807  10.152  1.0266 -0.4005  0.9847
    4CHL1    O3  225   0.055   3.852  10.342  0.2071 -0.4444  0.5170
    4CHL1   H3'  226   0.134   3.902  10.364 -1.3631  1.7795  1.4430
    4CHL1    C4  227   0.063   4.021  10.173  0.8638 -1.1296 -0.0374
    4CHL1   H4A  228   0.003   4.088  10.239 -1.8996 -2.9232 -0.5697
    4CHL1   H4B  229   0.173   4.029  10.186  0.9404 -0.7471 -0.8463
    4CHL1    C5  230   0.031   4.046  10.027  0.2538  0.3358  0.1970
    4CHL1    C6  231   0.125   4.096   9.941 -0.1257 -0.4696  0.4267
    4CHL1    H6  232   0.226   4.124   9.975 -0.2847  0.8230 -0.1078
    4CHL1    C7  233   0.103   4.148   9.802 -0.2092  0.0820  0.6901
    4CHL1   H7A  234   0.137   4.253   9.786  1.4243 -0.1415  2.2606
    4CHL1   H7B  235   0.166   4.093   9.729 -0.8790  0.9185 -0.5435
    4CHL1    C8  236  -0.046   4.128   9.752 -0.1357 -0.1587 -0.5310
    4CHL1    H8  237  -0.107   4.216   9.781 -0.2292  0.1592 -1.6280
    4CHL1   C14  238  -0.045   4.112   9.601 -0.5431  0.0165 -0.6348
    4CHL1   H14  239   0.017   4.021   9.579  0.4477  0.2084  1.1468
    4CHL1   C15  240   0.029   4.215   9.512  0.1570  0.2808 -1.2683
    4CHL1  H15A  241  -0.007   4.314   9.545  0.7951 -0.5607  2.3013
    4CHL1  H15B  242   0.136   4.188   9.515 -0.3437 -1.7630  1.1507
    4CHL1   C16  243  -0.035   4.178   9.383  0.1355 -0.8765  0.4376
    4CHL1  H16A  244  -0.075   4.272   9.338  3.7939  0.4487 -0.4252
    4CHL1  H16B  245   0.042   4.131   9.317  1.4083 -0.2168  1.4014
    4CHL1   C17  246  -0.141   4.066   9.400 -0.1876  0.2453 -0.4325
    4CHL1   H17  247  -0.079   3.975   9.395 -0.8271 -0.2735  0.6936
    4CHL1   C13  248  -0.186   4.079   9.545  0.9248 -0.1346  0.0581
    4CHL1   C18  249  -0.281   4.197   9.552  0.5654 -0.3824  0.2704
    4CHL1  H18A  250  -0.242   4.286   9.499 -2.6002 -0.0142 -1.6867
    4CHL1  H18B  251  -0.381   4.173   9.510  0.8951 -0.5681 -0.4042
    4CHL1  H18C  252  -0.304   4.232   9.655  2.8454  0.7339  0.4721
    4CHL1   C12  253  -0.239   3.944   9.610  0.4055  0.2120  0.0834
    4CHL1  H12A  254  -0.339   3.918   9.570  0.6554 -0.8330  0.0983
    4CHL1  H12B  255  -0.164   3.864   9.589  2.5096  2.6480 -2.4764
    4CHL1   C11  256  -0.255   3.968   9.761 -0.0004  0.0475 -0.5577
    4CHL1  H11A  257  -0.325   4.052   9.776 -0.6411  0.2697 -4.1007
    4CHL1  H11B  258  -0.289   3.874   9.810  1.9100 -0.3646  0.0762
    4CHL1    C9  259  -0.117   4.003   9.819 -0.8145 -0.0408 -0.6299
    4CHL1    H9  260  -0.061   3.914   9.785 -2.3626 -0.1414 -3.1656
    4CHL1   C10  261  -0.106   4.006   9.978 -0.0554  0.5321 -0.0026
    4CHL1   C19  262  -0.218   4.111  10.020 -0.6011 -0.1068 -0.4452
    4CHL1  H19A  263  -0.209   4.117  10.131  1.5535 -0.3036 -0.5582
    4CHL1  H19B  264  -0.194   4.205   9.966 -3.1345  1.6603  1.2970
    4CHL1  H19C  265  -0.318   4.069   9.999  0.1540 -2.7077  0.7678
    4CHL1    C1  266  -0.147   3.865  10.029 -0.4155  0.0138 -0.2447
    4CHL1   H1A  267  -0.255   3.845  10.012 -0.4984  1.4805 -1.6964
    4CHL1   H1B  268  -0.077   3.793   9.981  1.7336 -0.2447  2.9808
    4CHL1    C2  269  -0.113   3.846  10.174 -0.2848 -0.3150 -0.1535
    4CHL1   H2A  270  -0.140   3.742  10.203  0.7161 -0.6803 -0.5087
    4CHL1   H2B  271  -0.173   3.912  10.240 -1.3057 -1.1069 -0.2553
    4CHL1   C20  272  -0.240   4.061   9.284 -0.1111  0.6283 -0.4128
    4CHL1   H20  273  -0.289   4.160   9.276  0.4608  0.8669 -0.9704
    4CHL1   C21  274  -0.352   3.966   9.304  0.3454  0.6021 -0.2941
    4CHL1  H21A  275  -0.320   3.862   9.329  0.1623  0.0693 -2.1353
    4CHL1  H21B  276  -0.412   3.958   9.211 -1.8701  0.0908  1.0918
    4CHL1  H21C  277  -0.427   3.996   9.380  0.7322 -2.6468  1.5831
    4CHL1   C22  278  -0.174   4.034   9.142  0.1046  0.4522  0.2087
    4CHL1  H22A  279  -0.261   4.038   9.073  0.0378 -0.4315  0.2323
    4CHL1  H22B  280  -0.108   4.120   9.119  0.4359  0.1297 -0.0394
    4CHL1   C23  281  -0.092   3.906   9.126 -0.4674 -0.8019 -0.6591
    4CHL1  H23A  282  -0.008   3.912   9.198 -0.9323 -0.0061 -0.1743
    4CHL1  H23B  283  -0.142   3.810   9.154  1.3303 -1.9813 -1.3022
    4CHL1   C24  284  -0.039   3.881   8.982 -0.1700 -0.5406 -0.0211
    4CHL1  H24A  285   0.011   3.783   8.975 -0.4910 -0.7365  0.4199
    4CHL1  H24B  286  -0.127   3.882   8.915 -0.1588  1.6727 -0.0938
    4CHL1   C25  287   0.074   3.979   8.930 -0.1540  0.3134 -0.3949
    4CHL1   H25  288   0.035   4.083   8.921 -2.4749 -0.3344  1.1209
    4CHL1   C26  289   0.190   3.991   9.022  0.8148  0.2087  0.2588
    4CHL1  H26A  290   0.283   4.035   8.979  0.6354 -0.2845 -0.6547
    4CHL1  H26B  291   0.161   4.048   9.113 -2.2789  0.0312 -0.5194
    4CHL1  H26C  292   0.217   3.890   9.061 -0.2805  0.1030  0.7622
    4CHL1   C27  293   0.115   3.953   8.782 -0.4363 -0.2631 -0.0107
    4CHL1  H27A  294   0.035   3.953   8.705  0.6296 -0.4336 -1.1484
    4CHL1  H27B  295   0.177   4.037   8.746 -3.4365  1.6679 -1.0510
    4CHL1  H27C  296   0.172   3.857   8.778 -2.7631 -1.7385  0.0161
    5CHL1    C3  297   2.802   1.621  10.334  0.1504 -0.2435  0.0493
    5CHL1    H3  298   2.786   1.513  10.353  1.9013 -1.2774 -3.4269
    5CHL1    O3  299   2.821   1.689  10.455 -0.2403  0.0206  0.4527
    5CHL1   H3'  300   2.868   1.769  10.431  1.8561 -1.2901 -0.0840
    5CHL1    C4  301   2.929   1.635  10.250 -0.4412 -0.5236  0.4079
    5CHL1   H4A  302   2.968   1.738  10.245  0.7814 -1.0272 -1.4413
    5CHL1   H4B  303   3.009   1.568  10.289  0.9441 -0.0565 -1.4763
    5CHL1    C5  304   2.910   1.572  10.112 -0.4449 -0.2546 -0.3094
    5CHL1    C6  305   2.991   1.476  10.062 -0.2629  0.1010  0.2925
    5CHL1    H6  306   3.066   1.440  10.133  0.8238  0.0077 -0.8664
    5CHL1    C7  307   2.990   1.425   9.917 -0.5064  0.3427 -0.1151
    5CHL1   H7A  308   3.092   1.407   9.875 -1.0916 -1.3625 -0.8590
    5CHL1   H7B  309   2.936   1.328   9.918  1.4608 -0.8055  0.7296
    5CHL1    C8  310   2.911   1.531   9.829  0.4698 -0.4278  0.0280
    5CHL1    H8  311   2.970   1.624   9.814 -3.0245  2.0446  0.4032
    5CHL1   C14  312   2.887   1.470   9.694 -0.3921  0.0789 -0.6501
    5CHL1   H14  313   2.831   1.375   9.704 -0.6953  0.2549 -0.6494
    5CHL1   C15  314   3.018   1.420   9.623  0.1618 -0.0833  0.2336
    5CHL1  H15A  315   3.093   1.502   9.626  1.3452 -1.0851 -0.7848
    5CHL1  H15B  316   3.062   1.330   9.672 -1.7520  0.1576  2.6385
    5CHL1   C16  317   2.968   1.399   9.475  0.2384 -0.2855 -0.3376
    5CHL1  H16A  318   3.048   1.446   9.414  1.9552 -1.6259  0.7617
    5CHL1  H16B  319   2.959   1.290   9.454 -1.7133 -0.1141 -0.5419
    5CHL1   C17  320   2.831   1.468   9.468 -0.3865 -0.4257 -0.5026
    5CHL1   H17  321   2.748   1.398   9.492 -0.8889  0.2984 -0.0863
    5CHL1   C13  322   2.814   1.558   9.592  0.4630 -0.5257  0.7948
    5CHL1   C18  323   2.884   1.692   9.564  0.0064  0.2260  0.1967
    5CHL1  H18A  324   2.984   1.675   9.518  0.1348  1.1610  0.1026
    5CHL1  H18B  325   2.822   1.757   9.500 -1.2671 -1.3785 -0.2484
    5CHL1  H18C  326   2.905   1.745   9.660  1.2060 -0.8388  0.5455
    5CHL1   C12  327   2.668   1.572   9.647 -0.4174 -0.3147  0.0178
    5CHL1  H12A  328   2.611   1.648   9.590  0.0430 -1.0876 -1.5297
    5CHL1  H12B  329   2.604   1.482   9.640 -1.2465  0.1181  1.5331
    5CHL1   C11  330   2.674   1.629   9.797 -0.0916 -0.0549  0.2234
    5CHL1  H11A  331   2.695   1.737   9.788  0.6868 -0.1794  0.4419
    5CHL1  H11B  332   2.575   1.617   9.845 -0.2308  0.6122  0.1040
    5CHL1    C9  333   2.771   1.562   9.891 -0.6519 -0.1532  0.8127
    5CHL1    H9  334   2.716   1.467   9.906 -1.6915  0.3085  0.0127
    5CHL1   C10  335   2.794   1.634  10.026  0.2134  0.1978  0.3467
    5CHL1   C19  336   2.814   1.784  10.002 -0.4319  0.0192  0.6401
    5CHL1  H19A  337   2.735   1.833   9.941 -0.1838  0.6296  0.8117
    5CHL1  H19B  338   2.805   1.835  10.100  1.9448  0.2034  0.8303
    5CHL1  H19C  339   2.910   1.808   9.951 -0.4144 -2.4064 -0.6411
    5CHL1    C1  340   2.667   1.622  10.110  0.3428 -0.5985  0.3753
    5CHL1   H1A  341   2.577   1.664  10.061  1.4439  1.2390 -0.1420
    5CHL1   H1B  342   2.631   1.517  10.103  0.6026 -0.6549 -0.1620
    5CHL1    C2  343   2.673   1.668  10.260 -0.6190 -0.5433 -0.9633
    5CHL1   H2A  344   2.583   1.640  10.319 -2.0946  1.1115 -2.3047
    5CHL1   H2B  345   2.682   1.779  10.261 -0.3266 -0.5612  0.7829
    5CHL1   C20  346   2.812   1.530   9.324  0.2357 -0.6490  0.2032
    5CHL1   H20  347   2.882   1.616   9.317 -1.7504  1.0892  0.5862
    5CHL1   C21  348   2.680   1.608   9.305  0.4387 -0.9021  0.2196
    5CHL1  H21A  349   2.592   1.540   9.298 -0.7676  0.6877 -0.9975
    5CHL1  H21B  350   2.683   1.662   9.208  0.2894  0.1632  0.8045
    5CHL1  H21C  351   2.659   1.677   9.389  0.9977 -0.6943  0.1942
    5CHL1   C22  352   2.840   1.437   9.205 -0.3403 -0.2490  0.1043
    5CHL1  H22A  353   2.929   1.374   9.224  1.7961  2.1268 -1.3980
    5CHL1  H22B  354   2.759   1.363   9.189 -0.5481  0.2031 -1.0396
    5CHL1   C23  355   2.873   1.510   9.075 -0.0641  0.1717  0.5045
    5CHL1  H23A  356   2.785   1.570   9.044  0.2061  0.6197  0.5916
    5CHL1  H23B  357   2.952   1.586   9.096 -1.7234  2.1758 -0.1666
    5CHL1   C24  358   2.908   1.413   8.958  0.2093 -0.1551 -0.6658
    5CHL1  H24A  359   3.008   1.371   8.978  1.1823  0.9250 -2.9405
    5CHL1  H24B  360   2.828   1.336   8.953  1.4014 -1.4968  0.1566
    5CHL1   C25  361   2.919   1.485   8.821  0.6321  0.0071 -0.3216
    5CHL1   H25  362   2.994   1.564   8.843 -1.3207  2.5492 -2.1752
    5CHL1   C26  363   2.952   1.389   8.710 -0.3516  0.1577 -0.2922
    5CHL1  H26A  364   2.868   1.317   8.697  0.3671 -1.3415  2.5674
    5CHL1  H26B  365   2.957   1.457   8.622 -0.8733  3.4787  2.0492
    5CHL1  H26C  366   3.050   1.339   8.721  0.1930  1.1044 -0.7366
    5CHL1   C27  367   2.786   1.556   8.774 -0.0542  0.2780  0.0719
    5CHL1  H27A  368   2.792   1.576   8.665  0.8395 -0.3091 -0.0019
    5CHL1  H27B  369   2.697   1.493   8.796  0.2064 -0.3243 -0.5412
    5CHL1  H27C  370   2.765   1.649   8.830 -0.1735  0.4708 -0.2885
    6CHL1    C3  371   0.986   1.008  10.229 -0.3473 -0.0482 -0.1192
    6CHL1    H3  372   1.062   0.945  10.178  0.3723 -0.7196  1.6974
    6CHL1    O3  373   0.998   1.004  10.366 -1.0739 -0.3163 -0.1649
    6CHL1   H3'  374   0.929   1.062  10.401  0.9999  0.8017  2.4261
    6CHL1    C4  375   0.997   1.154  10.185  0.3126  0.6005  0.0075
    6CHL1   H4A  376   0.908   1.207  10.225 -0.1808  0.3412 -0.7337
    6CHL1   H4B  377   1.080   1.210  10.234 -0.6836  1.3396  0.9156
    6CHL1    C5  378   0.984   1.176  10.033 -0.4964  0.7063  0.0519
    6CHL1    C6  379   1.083   1.234   9.955  0.4774  0.0062  0.9770
    6CHL1    H6  380   1.183   1.263   9.988  1.1882 -2.4646  1.1650
    6CHL1    C7  381   1.071   1.253   9.811  0.0926 -0.2940 -0.1992
    6CHL1   H7A  382   1.095   1.356   9.777  2.7010 -0.6409  0.3267
    6CHL1   H7B  383   1.134   1.177   9.760  0.1611 -0.2631 -0.1623
    6CHL1    C8  384   0.928   1.221   9.755 -0.1085 -0.0709  0.1470
    6CHL1    H8  385   0.855   1.301   9.779 -0.9624 -0.1568 -1.8999
    6CHL1   C14  386   0.933   1.199   9.603  0.3832 -0.3734  0.9219
    6CHL1   H14  387   1.008   1.117   9.596  2.5331  1.5670 -0.3866
    6CHL1   C15  388   0.998   1.307   9.507 -0.1844  0.1204 -0.2148
    6CHL1  H15A  389   0.958   1.407   9.534 -0.3696  0.4060 -1.5021
    6CHL1  H15B  390   1.109   1.306   9.516 -0.1732  1.6428  0.1611
    6CHL1   C16  391   0.942   1.270   9.372  0.3664  0.3271  0.0423
    6CHL1  H16A  392   0.886   1.362   9.344  0.6029 -0.1389 -2.1560
    6CHL1  H16B  393   1.021   1.245   9.298  0.2244 -1.5469  0.4767
    6CHL1   C17  394   0.846   1.149   9.386 -0.3216  0.0428 -0.6160
    6CHL1   H17  395   0.897   1.051   9.371 -2.5401 -1.2656 -0.0196
    6CHL1   C13  396   0.810   1.153   9.533  0.2547  0.2010 -0.7286
    6CHL1   C18  397   0.700   1.262   9.535 -0.0898  0.9078  0.3549
    6CHL1  H18A  398   0.728   1.364   9.501  0.1343  1.7200  2.7861
    6CHL1  H18B  399   0.603   1.233   9.489  0.6751 -0.4889 -0.4505
    6CHL1  H18C  400   0.655   1.278   9.635 -0.6506 -0.1663  0.2902
    6CHL1   C12  401   0.767   1.022   9.599  1.0183  0.0154 -0.1183
    6CHL1  H12A  402   0.672   0.990   9.550  1.3942  1.4628 -1.9319
    6CHL1  H12B  403   0.851   0.953   9.577  0.8869  0.4879 -2.3766
    6CHL1   C11  404   0.738   1.038   9.744 -0.3194 -0.1325 -0.4238
    6CHL1  H11A  405   0.655   1.112   9.746  0.9757  1.3786 -0.4123
    6CHL1  H11B  406   0.712   0.941   9.792  2.8268 -1.1920 -0.6202
    6CHL1    C9  407   0.863   1.092   9.821 -0.6032 -0.1612  0.2114
    6CHL1    H9  408   0.941   1.014   9.810  2.0594  2.3632 -0.2138
    6CHL1   C10  409   0.852   1.115   9.976 -0.2245  0.1747 -0.1521
    6CHL1   C19  410   0.734   1.208  10.011  0.0911 -0.4134 -0.5063
    6CHL1  H19A  411   0.760   1.314   9.990 -2.2784  0.3378  0.0434
    6CHL1  H19B  412   0.644   1.175   9.955  0.8025 -1.8590 -0.8318
    6CHL1  H19C  413   0.701   1.196  10.116 -3.5499  1.7647 -1.2243
    6CHL1    C1  414   0.818   0.979  10.045 -0.0786 -0.2023 -0.1521
    6CHL1   H1A  415   0.717   0.936  10.029  0.2685 -0.4642 -1.7325
    6CHL1   H1B  416   0.879   0.901   9.996  0.4065  1.1023 -1.7050
    6CHL1    C2  417   0.848   0.960  10.203  0.6674  0.0144 -0.0517
    6CHL1   H2A  418   0.826   0.853  10.224 -0.0155  0.1905  0.1289
    6CHL1   H2B  419   0.778   1.024  10.259  1.4783  0.9492 -0.0731
    6CHL1   C20  420   0.735   1.154   9.271 -0.2910  0.0027  0.4453
    6CHL1   H20  421   0.667   1.240   9.288 -1.0028 -0.3539 -0.5315
    6CHL1   C21  422   0.660   1.025   9.265  0.7042 -0.3742 -0.3287
    6CHL1  H21A  423   0.735   0.945   9.282  1.6443  0.5513 -0.0280
    6CHL1  H21B  424   0.600   1.008   9.173 -2.2967  3.0206  0.8004
    6CHL1  H21C  425   0.590   1.030   9.351 -0.9706 -0.3435 -1.6409
    6CHL1   C22  426   0.793   1.182   9.129 -0.1006 -0.2584  0.1319
    6CHL1  H22A  427   0.859   1.271   9.134 -0.2453 -0.1989  1.1655
    6CHL1  H22B  428   0.839   1.088   9.089  2.0923 -0.3866  2.6801
    6CHL1   C23  429   0.687   1.232   9.029 -0.3792 -0.1457  0.1202
    6CHL1  H23A  430   0.607   1.156   9.018  0.0517 -0.5139 -0.5356
    6CHL1  H23B  431   0.641   1.326   9.066  0.4566  0.1661  0.3752
    6CHL1   C24  432   0.755   1.266   8.896  0.2904  0.6006  0.1143
    6CHL1  H24A  433   0.686   1.342   8.853 -1.9528 -0.2542  2.0032
    6CHL1  H24B  434   0.859   1.300   8.918  0.1793  0.6948  0.5039
    6CHL1   C25  435   0.777   1.144   8.799 -0.8758 -0.5087 -0.2047
    6CHL1   H25  436   0.855   1.081   8.847  0.2534  1.8841  1.3175
    6CHL1   C26  437   0.656   1.063   8.767  0.8079  0.0206  0.0465
    6CHL1  H26A  438   0.630   1.009   8.860  0.7613  1.6606  1.0115
    6CHL1  H26B  439   0.575   1.137   8.752  0.5501 -0.1388  0.6282
    6CHL1  H26C  440   0.666   0.994   8.680 -3.7057 -0.4636 -0.3100
    6CHL1   C27  441   0.837   1.194   8.667 -0.2549 -0.9173  0.3291
    6CHL1  H27A  442   0.776   1.283   8.640 -0.7559 -1.1014  0.8316
    6CHL1  H27B  443   0.946   1.216   8.668 -0.0328 -1.9704  1.8136
    6CHL1  H27C  444   0.822   1.123   8.582  0.0546  0.3832 -0.8452
    7CHL1    C3  445   3.611   0.659  10.228  0.0613  0.6587 -0.6474
    7CHL1    H3  446   3.537   0.579  10.207 -2.0880  1.4419  3.1521
    7CHL1    O3  447   3.616   0.680  10.367  0.3664 -0.0973  0.1262
    7CHL1   H3'  448   3.522   0.695  10.384  0.5234 -0.5148  1.4530
    7CHL1    C4  449   3.760   0.625  10.182  0.4555 -0.1747 -0.1494
    7CHL1   H4A  450   3.832   0.698  10.226 -0.1618  0.8337 -0.7790
    7CHL1   H4B  451   3.793   0.531  10.231 -0.9730  0.4162  2.1541
    7CHL1    C5  452   3.776   0.610  10.031  0.4162  0.1787 -0.3340
    7CHL1    C6  453   3.821   0.496   9.979  0.0537  0.2562  0.1722
    7CHL1    H6  454   3.842   0.414  10.049  0.3023 -0.8910 -1.2070
    7CHL1    C7  455   3.829   0.459   9.828  0.0784 -0.5438  0.0104
    7CHL1   H7A  456   3.927   0.411   9.808 -0.5832 -1.2740 -1.6909
    7CHL1   H7B  457   3.745   0.390   9.802 -0.5125  0.7558 -1.7537
    7CHL1    C8  458   3.816   0.594   9.749  0.0515  0.0287 -0.0440
    7CHL1    H8  459   3.905   0.655   9.773  0.1298  0.5054 -1.4477
    7CHL1   C14  460   3.804   0.562   9.600 -0.0006 -0.9378  0.2202
    7CHL1   H14  461   3.717   0.492   9.592  0.0099 -0.9957  0.5956
    7CHL1   C15  462   3.914   0.470   9.538 -0.0739 -0.5942 -0.1467
    7CHL1  H15A  463   4.007   0.514   9.579 -1.2088  0.3952  1.5316
    7CHL1  H15B  464   3.905   0.362   9.561  2.9742 -1.1703 -1.3134
    7CHL1   C16  465   3.900   0.491   9.385  0.7162  0.3893 -0.2582
    7CHL1  H16A  466   3.997   0.528   9.345 -0.0972  2.2642 -0.6290
    7CHL1  H16B  467   3.871   0.398   9.332  0.8441 -0.1893  0.6583
    7CHL1   C17  468   3.793   0.605   9.368  0.3660 -0.7850 -0.9380
    7CHL1   H17  469   3.696   0.559   9.341  1.2178 -2.1265 -1.8630
    7CHL1   C13  470   3.789   0.679   9.507  0.7574 -0.3370  0.1301
    7CHL1   C18  471   3.901   0.784   9.521  0.1326  0.4519  0.8116
    7CHL1  H18A  472   3.898   0.880   9.464 -1.5654  1.6496  2.7844
    7CHL1  H18B  473   3.905   0.831   9.621  0.8444  3.9830 -0.7269
    7CHL1  H18C  474   3.998   0.734   9.501  0.0076 -0.4634  2.3318
    7CHL1   C12  475   3.653   0.740   9.543  0.1715  0.5700  0.1483
    7CHL1  H12A  476   3.625   0.824   9.476  1.4597  1.5182  0.7593
    7CHL1  H12B  477   3.579   0.657   9.538  0.5467  0.1852  0.7247
    7CHL1   C11  478   3.649   0.790   9.690 -0.5922  0.1088  0.9671
    7CHL1  H11A  479   3.708   0.885   9.688 -0.0929 -0.1316 -2.7144
    7CHL1  H11B  480   3.542   0.818   9.693 -0.5517  0.2019  1.6542
    7CHL1    C9  481   3.695   0.684   9.796  1.0027 -0.5698  0.3883
    7CHL1    H9  482   3.608   0.616   9.793  0.9548 -0.6385  2.3603
    7CHL1   C10  483   3.716   0.725   9.947 -0.2628 -0.4986  0.1832
    7CHL1   C19  484   3.814   0.855   9.955 -0.4413  0.2342  0.1902
    7CHL1  H19A  485   3.762   0.945   9.915 -0.2621  0.6578  0.9027
    7CHL1  H19B  486   3.848   0.876  10.058  1.0203 -0.5956 -0.0922
    7CHL1  H19C  487   3.908   0.839   9.897 -0.3242  1.2159  0.0843
    7CHL1    C1  488   3.572   0.770  10.002  0.5551  0.5115  0.0446
    7CHL1   H1A  489   3.534   0.870   9.972  1.9367  1.9540  2.7021
    7CHL1   H1B  490   3.504   0.690   9.964  0.8427  1.5391 -2.8633
    7CHL1    C2  491   3.566   0.780  10.155 -0.4221  0.3951 -0.2984
    7CHL1   H2A  492   3.468   0.821  10.187 -0.5527  0.3538 -0.6372
    7CHL1   H2B  493   3.643   0.857  10.178  1.4761 -1.6501  0.6049
    7CHL1   C20  494   3.813   0.686   9.236  0.0395 -0.2030  0.0675
    7CHL1   H20  495   3.915   0.728   9.231  0.5045 -1.4020 -1.0164
    7CHL1   C21  496   3.727   0.817   9.221  0.9590  0.2367  0.3512
    7CHL1  H21A  497   3.728   0.874   9.317  0.0067 -0.4325  0.7868
    7CHL1  H21B  498   3.626   0.787   9.186  0.0755  0.2587  2.6492
    7CHL1  H21C  499   3.780   0.879   9.146  0.8446 -1.1671 -0.9188
    7CHL1   C22  500   3.795   0.603   9.102  0.3735 -0.4200 -0.2500
    7CHL1  H22A  501   3.700   0.545   9.091  2.4998 -4.3020  0.1206
    7CHL1  H22B  502   3.773   0.672   9.018 -1.9894 -2.6616 -1.6453
    7CHL1   C23  503   3.920   0.535   9.062 -0.1689  0.4995 -0.6839
    7CHL1  H23A  504   4.008   0.603   9.064  0.4255 -0.1790  3.1027
    7CHL1  H23B  505   3.966   0.457   9.126  1.4575 -2.4926 -5.0367
    7CHL1   C24  506   3.912   0.472   8.921  0.2903 -0.1937 -0.0472
    7CHL1  H24A  507   3.882   0.555   8.853  1.1683  1.8937  1.9607
    7CHL1  H24B  508   4.015   0.446   8.890 -0.1971 -1.1654 -0.9056
    7CHL1   C25  509   3.828   0.347   8.898 -0.3492 -0.2162 -1.0207
    7CHL1   H25  510   3.724   0.386   8.902  0.1285  1.0541 -0.3681
    7CHL1   C26  511   3.862   0.304   8.751  0.8997 -0.2615  0.6059
    7CHL1  H26A  512   3.804   0.365   8.678 -1.4420 -2.7314  0.2451
    7CHL1  H26B  513   3.969   0.299   8.722  0.5976 -0.4746 -0.5380
    7CHL1  H26C  514   3.823   0.202   8.733  0.5811  0.3023 -2.4422
    7CHL1   C27  515   3.857   0.232   8.991 -0.4757 -0.2759 -0.2392
    7CHL1  H27A  516   3.961   0.205   8.963 -1.3062 -2.6016 -1.3662
    7CHL1  H27B  517   3.855   0.257   9.099  1.6358 -1.0428  0.0247
    7CHL1  H27C  518   3.784   0.148   8.982 -1.3853  0.5167 -0.4687
    8CHL1    C3  519   3.798   3.898  10.259  0.1390 -0.2982  0.6578
    8CHL1    H3  520   3.691   3.925  10.255 -0.1106 -1.3551 -0.0160
    8CHL1    O3  521   3.846   3.913  10.396 -0.1113 -0.4051  0.7474
    8CHL1   H3'  522   3.898   3.835  10.416 -0.4893 -0.0584  3.5214
    8CHL1    C4  523   3.804   3.748  10.215 -0.2268 -0.4624 -0.6098
    8CHL1   H4A  524   3.907   3.709  10.233  0.0787 -0.7913 -2.8657
    8CHL1   H4B  525   3.734   3.702  10.288 -3.7224  4.0894 -0.6625
    8CHL1    C5  526   3.767   3.729  10.074 -0.4822  0.5707  0.3232
    8CHL1    C6  527   3.678   3.635  10.031 -0.1106 -0.4533 -0.1118
    8CHL1    H6  528   3.635   3.570  10.109  0.3099  0.4776  0.9208
    8CHL1    C7  529   3.646   3.599   9.893  0.7169  0.1791  0.2616
    8CHL1   H7A  530   3.663   3.491   9.873  1.0916  0.0091  1.3843
    8CHL1   H7B  531   3.537   3.616   9.881  0.5694 -0.5444  0.5000
    8CHL1    C8  532   3.723   3.676   9.785  0.4682  0.3260 -0.0851
    8CHL1    H8  533   3.817   3.619   9.768 -0.3195 -1.3360  0.9190
    8CHL1   C14  534   3.650   3.676   9.654 -0.1823 -0.2607  0.4921
    8CHL1   H14  535   3.554   3.730   9.674  0.5017  1.0673  0.3026
    8CHL1   C15  536   3.627   3.544   9.584 -0.1556  0.2112  0.2660
    8CHL1  H15A  537   3.728   3.500   9.591  1.2644  1.8341 -4.9173
    8CHL1  H15B  538   3.556   3.482   9.643  2.3030 -1.7668  1.2877
    8CHL1   C16  539   3.593   3.577   9.440  0.2588 -0.6394 -0.2351
    8CHL1  H16A  540   3.665   3.532   9.368  2.1540  1.3274  0.3389
    8CHL1  H16B  541   3.486   3.563   9.414 -0.3995  0.4883  1.6947
    8CHL1   C17  542   3.627   3.729   9.420  0.1502  0.4682 -0.0306
    8CHL1   H17  543   3.532   3.781   9.448 -0.0567  1.5192 -2.4551
    8CHL1   C13  544   3.720   3.757   9.540 -0.2235  0.2549 -0.0249
    8CHL1   C18  545   3.859   3.698   9.505 -0.0759 -0.2361  0.1741
    8CHL1  H18A  546   3.846   3.603   9.450  0.4671  0.0209 -0.4084
    8CHL1  H18B  547   3.918   3.771   9.445 -1.2948  0.1301 -0.5982
    8CHL1  H18C  548   3.914   3.670   9.598  0.0403 -0.8102 -0.0654
    8CHL1   C12  549   3.738   3.902   9.596  0.3123 -0.0756  0.8553
    8CHL1  H12A  550   3.791   3.966   9.522 -0.7352  0.2879  0.3953
    8CHL1  H12B  551   3.633   3.937   9.605 -0.5611 -2.0440 -0.8995
    8CHL1   C11  552   3.818   3.905   9.722  0.0608 -0.1506 -0.4404
    8CHL1  H11A  553   3.919   3.861   9.700 -0.4807 -0.8557 -1.6295
    8CHL1  H11B  554   3.833   4.009   9.758  0.9052 -0.9633  1.7436
    8CHL1    C9  555   3.758   3.821   9.834 -0.8304  0.4356 -0.1627
    8CHL1    H9  556   3.657   3.862   9.857 -0.7247  0.0608  1.0155
    8CHL1   C10  557   3.837   3.829   9.974 -0.6179 -0.5043  0.6168
    8CHL1   C19  558   3.984   3.796   9.945 -0.2565 -0.3938  0.5649
    8CHL1  H19A  559   4.049   3.805  10.034  1.1530  1.2963 -0.5561
    8CHL1  H19B  560   4.008   3.703   9.889 -1.2597  0.2182 -0.9574
    8CHL1  H19C  561   4.034   3.873   9.882 -1.3140 -0.0297  0.1452
    8CHL1    C1  562   3.831   3.971  10.017 -0.3457 -0.5066 -0.7144
    8CHL1   H1A  563   3.897   4.041   9.960 -1.1529 -0.3549 -1.4927
    8CHL1   H1B  564   3.728   4.010  10.005  0.6397  2.2359 -0.9549
    8CHL1    C2  565   3.874   3.996  10.164  0.6292  0.2589 -0.6695
    8CHL1   H2A  566   3.834   4.095  10.196 -0.7555 -1.1695  2.3870
    8CHL1   H2B  567   3.983   3.996  10.184  0.3034 -1.8452  1.5420
    8CHL1   C20  568   3.660   3.777   9.281 -0.5292  0.4844 -0.0747
    8CHL1   H20  569   3.759   3.746   9.241  0.5314  2.6446  0.6993
    8CHL1   C21  570   3.675   3.930   9.270 -0.6284 -1.0282 -0.1484
    8CHL1  H21A  571   3.774   3.968   9.305 -0.9322  0.3503 -0.6978
    8CHL1  H21B  572   3.607   3.997   9.326 -0.4883  0.3088 -1.4932
    8CHL1  H21C  573   3.673   3.966   9.164 -0.9207 -1.5335 -0.3148
    8CHL1   C22  574   3.554   3.737   9.173 -0.2639 -0.6673  0.6609
    8CHL1  H22A  575   3.485   3.654   9.199 -1.7784  0.4403  0.2616
    8CHL1  H22B  576   3.489   3.826   9.162  4.0879  3.2524  3.2547
    8CHL1   C23  577   3.623   3.710   9.040  0.2373 -0.2418  0.2331
    8CHL1  H23A  578   3.714   3.773   9.024 -0.1306 -0.1523 -1.8092
    8CHL1  H23B  579   3.671   3.612   9.023 -1.2845 -0.9266 -0.2802
    8CHL1   C24  580   3.518   3.725   8.920  0.2521 -0.0948  0.2775
    8CHL1  H24A  581   3.418   3.682   8.946 -0.0129  0.5294  0.2897
    8CHL1  H24B  582   3.511   3.835   8.923 -1.3433 -0.1820  0.5847
    8CHL1   C25  583   3.574   3.664   8.786  0.0724 -0.0642 -0.2386
    8CHL1   H25  584   3.591   3.557   8.807  0.6316  0.1938  0.6888
    8CHL1   C26  585   3.463   3.674   8.686  0.0667  0.3067  0.1759
    8CHL1  H26A  586   3.379   3.608   8.715 -0.7556  0.6561 -1.3497
    8CHL1  H26B  587   3.410   3.772   8.690 -1.2268 -0.1720 -3.0651
    8CHL1  H26C  588   3.494   3.665   8.580  2.1390  0.1221  0.7383
    8CHL1   C27  589   3.698   3.730   8.730  0.5762 -0.3118 -0.6406
    8CHL1  H27A  590   3.783   3.708   8.798 -1.3028  0.5112  2.1280
    8CHL1  H27B  591   3.727   3.677   8.637  1.1661  0.7284 -1.0587
    8CHL1  H27C  592   3.679   3.839   8.722 -0.6906 -0.2253  2.3921
    9CHL1    C3  593   5.005   6.312  10.164 -0.7947  1.1779  0.1286
    9CHL1    H3  594   5.086   6.367  10.110  0.2512  0.3856  0.8434
    9CHL1    O3  595   5.036   6.312  10.305 -0.0753 -0.1964  0.0667
    9CHL1   H3'  596   4.994   6.235  10.344 -0.4314 -0.0759 -0.0717
    9CHL1    C4  597   4.868   6.372  10.144  0.3015  0.1461 -0.0880
    9CHL1   H4A  598   4.782   6.325  10.197 -1.1037  1.0577 -1.4924
    9CHL1   H4B  599   4.877   6.478  10.177  0.3652  0.3727 -0.8201
    9CHL1    C5  600   4.840   6.368   9.998 -0.2208 -0.3765  0.0361
    9CHL1    C6  601   4.827   6.484   9.931 -0.9439 -0.8219 -0.3384
    9CHL1    H6  602   4.844   6.580   9.981 -0.9219 -0.7191 -0.5387
    9CHL1    C7  603   4.796   6.489   9.785  0.1990  0.6579 -1.0045
    9CHL1   H7A  604   4.727   6.573   9.762  1.2180  3.0776  3.5614
    9CHL1   H7B  605   4.891   6.506   9.730  0.3652  0.0897 -0.9079
    9CHL1    C8  606   4.748   6.352   9.725 -0.7893  0.2460  0.4645
    9CHL1    H8  607   4.648   6.325   9.766 -0.2852  2.4713  3.5687
    9CHL1   C14  608   4.737   6.357   9.574 -0.4951 -0.3854 -0.2474
    9CHL1   H14  609   4.840   6.372   9.536 -0.5102 -2.8556 -1.4888
    9CHL1   C15  610   4.670   6.489   9.512  0.6656  0.4009  0.1034
    9CHL1  H15A  611   4.579   6.518   9.570  0.3168 -1.2517  0.4318
    9CHL1  H15B  612   4.744   6.572   9.511  1.6291 -0.4426  0.1850
    9CHL1   C16  613   4.651   6.440   9.364  0.5917 -0.6534 -0.1229
    9CHL1  H16A  614   4.542   6.456   9.352  0.3001 -0.8854  1.8380
    9CHL1  H16B  615   4.703   6.508   9.294 -1.7328  2.6747  1.1216
    9CHL1   C17  616   4.685   6.288   9.360 -0.1495 -0.2406  0.7423
    9CHL1   H17  617   4.790   6.291   9.321  0.3833  4.1393  1.9125
    9CHL1   C13  618   4.682   6.232   9.510 -0.2174  0.2776  0.7781
    9CHL1   C18  619   4.547   6.196   9.569  0.0756  0.2858 -1.0378
    9CHL1  H18A  620   4.542   6.173   9.678  0.1114  0.0707 -1.0805
    9CHL1  H18B  621   4.475   6.276   9.545  1.4033  1.4986 -1.1208
    9CHL1  H18C  622   4.516   6.104   9.515 -0.2322 -1.0911  1.3066
    9CHL1   C12  623   4.791   6.125   9.543 -0.0343 -0.6864 -0.5220
    9CHL1  H12A  624   4.743   6.032   9.506  1.8291 -0.8468 -2.7872
    9CHL1  H12B  625   4.887   6.152   9.493  0.2867  0.2336  0.5458
    9CHL1   C11  626   4.810   6.105   9.691 -0.2880 -0.3541  0.6224
    9CHL1  H11A  627   4.720   6.062   9.740 -0.5352  1.1145  1.5248
    9CHL1  H11B  628   4.896   6.038   9.711 -1.6335 -1.9972  1.1936
    9CHL1    C9  629   4.844   6.238   9.764  0.1732 -0.1502 -0.6339
    9CHL1    H9  630   4.948   6.264   9.735  0.8170 -0.9005  0.8542
    9CHL1   C10  631   4.843   6.225   9.929 -0.8143  0.1716 -0.3053
    9CHL1   C19  632   4.727   6.145   9.975 -0.2408 -0.0509 -0.3258
    9CHL1  H19A  633   4.629   6.188   9.944  0.5683  3.3053  1.4234
    9CHL1  H19B  634   4.740   6.041   9.937 -0.2648 -0.7486  1.5040
    9CHL1  H19C  635   4.748   6.140  10.084  0.5745 -0.1494 -0.4823
    9CHL1    C1  636   4.968   6.155   9.978  0.0473 -0.0486  0.1244
    9CHL1   H1A  637   4.978   6.052   9.939  0.3176 -0.8108  2.0845
    9CHL1   H1B  638   5.047   6.207   9.919  0.6952 -3.0896 -1.9064
    9CHL1    C2  639   5.004   6.160  10.123 -0.0390 -0.2662  0.2443
    9CHL1   H2A  640   5.102   6.113  10.145 -0.3910 -1.5186 -0.6726
    9CHL1   H2B  641   4.929   6.106  10.185 -0.8004  1.3272  0.7643
    9CHL1   C20  642   4.604   6.208   9.253  0.8217  0.0838 -0.9722
    9CHL1   H20  643   4.496   6.201   9.279  0.7889  0.3483 -1.0385
    9CHL1   C21  644   4.669   6.065   9.242 -0.2324  0.6300  0.8612
    9CHL1  H21A  645   4.777   6.084   9.224  0.1995 -0.9132  1.6274
    9CHL1  H21B  646   4.629   6.010   9.155  0.8377  2.8470 -1.1494
    9CHL1  H21C  647   4.647   6.018   9.340 -1.8810 -0.2738  0.0985
    9CHL1   C22  648   4.602   6.274   9.114 -0.1280 -0.3237 -0.0770
    9CHL1  H22A  649   4.594   6.384   9.124 -0.0695 -0.4902  2.5925
    9CHL1  H22B  650   4.699   6.247   9.067 -0.4031 -3.3511  0.9050
    9CHL1   C23  651   4.490   6.228   9.012 -0.3637 -0.2095 -0.6009
    9CHL1  H23A  652   4.488   6.118   9.026 -0.1850 -0.5046 -2.5855
    9CHL1  H23B  653   4.390   6.273   9.031  0.4138  0.6743  1.8354
    9CHL1   C24  654   4.543   6.258   8.876  0.9046 -0.2660  0.2092
    9CHL1  H24A  655   4.545   6.365   8.848 -2.1142  0.0853  0.9747
    9CHL1  H24B  656   4.646   6.217   8.864  0.2448 -1.7656 -0.6292
    9CHL1   C25  657   4.455   6.187   8.761  0.0930 -0.4829  0.0205
    9CHL1   H25  658   4.352   6.226   8.776  0.0604 -0.4863 -0.1860
    9CHL1   C26  659   4.508   6.222   8.617  0.7688 -0.3447 -0.2146
    9CHL1  H26A  660   4.443   6.177   8.539  0.9601  1.5877 -1.5442
    9CHL1  H26B  661   4.494   6.331   8.604  1.5170 -0.3687 -1.3986
    9CHL1  H26C  662   4.612   6.186   8.600  0.5582 -0.3100 -1.6706
    9CHL1   C27  663   4.445   6.037   8.766 -0.1900 -0.2865  0.2048
    9CHL1  H27A  664   4.390   6.003   8.675  0.1813 -0.7722  0.1584
    9CHL1  H27B  665   4.547   5.994   8.754 -1.0613 -2.1167 -1.2748
    9CHL1  H27C  666   4.393   5.994   8.854  1.0631 -3.0294 -0.2763
   10CHL1    C3  667   5.682   5.675  10.139 -0.5893 -0.0008 -0.3367
   10CHL1    H3  668   5.596   5.740  10.115  0.4628  2.3581  1.7552
   10CHL1    O3  669   5.718   5.698  10.278 -0.4524  0.1368 -0.2855
   10CHL1   H3'  670   5.639   5.690  10.332 -0.5591 -0.9898 -0.5717
   10CHL1    C4  671   5.660   5.533  10.102 -0.2057 -0.2126  0.6796
   10CHL1   H4A  672   5.743   5.464  10.128  1.6053  0.8636 -1.7811
   10CHL1   H4B  673   5.569   5.509  10.161 -0.9863  0.7880 -0.0841
   10CHL1    C5  674   5.631   5.513   9.958  0.8175 -0.7939 -0.3057
   10CHL1    C6  675   5.518   5.446   9.915  0.1481 -0.5985  0.0958
   10CHL1    H6  676   5.443   5.398   9.978 -1.4100 -3.0373 -3.3331
   10CHL1    C7  677   5.492   5.417   9.770  0.6398 -0.2781  0.0378
   10CHL1   H7A  678   5.453   5.313   9.761 -0.4610  0.2046 -1.1249
   10CHL1   H7B  679   5.407   5.484   9.744  0.6856 -1.0539 -2.3845
   10CHL1    C8  680   5.608   5.445   9.675 -0.7692  0.4409 -0.5067
   10CHL1    H8  681   5.672   5.354   9.681  0.7778  1.5167 -0.1828
   10CHL1   C14  682   5.561   5.453   9.533  0.6479  0.1137  0.4494
   10CHL1   H14  683   5.493   5.540   9.523 -0.8265 -1.1525 -1.5067
   10CHL1   C15  684   5.466   5.337   9.492 -0.5791 -0.8408 -0.0272
   10CHL1  H15A  685   5.516   5.240   9.512  0.7106 -0.4896 -1.3770
   10CHL1  H15B  686   5.361   5.344   9.529  0.3539  0.0814  2.6626
   10CHL1   C16  687   5.467   5.342   9.340  0.5389 -0.3062 -0.5491
   10CHL1  H16A  688   5.481   5.247   9.285 -1.9259 -1.3263  0.4592
   10CHL1  H16B  689   5.367   5.378   9.307  0.6278  1.1797  0.6876
   10CHL1   C17  690   5.562   5.458   9.297  0.6978 -0.6381 -0.3026
   10CHL1   H17  691   5.490   5.542   9.287  0.5120 -0.9043 -1.2971
   10CHL1   C13  692   5.657   5.469   9.420  0.2768 -0.4462  0.0006
   10CHL1   C18  693   5.762   5.349   9.415 -0.3200 -0.1508 -0.2288
   10CHL1  H18A  694   5.841   5.377   9.342 -0.2491 -2.1236 -0.9817
   10CHL1  H18B  695   5.807   5.341   9.516  2.0917  0.7862 -1.1749
   10CHL1  H18C  696   5.720   5.255   9.373 -0.0102 -0.4416  0.1115
   10CHL1   C12  697   5.721   5.607   9.455  0.1903  0.0644  0.6420
   10CHL1  H12A  698   5.799   5.633   9.381 -1.0946 -3.1098 -2.1257
   10CHL1  H12B  699   5.645   5.689   9.457 -2.4239 -2.0803 -1.7369
   10CHL1   C11  700   5.782   5.618   9.598 -0.1989 -0.6110  0.4282
   10CHL1  H11A  701   5.860   5.539   9.598  0.6644  0.1723 -1.2829
   10CHL1  H11B  702   5.835   5.713   9.620  2.0303 -1.5962 -0.3830
   10CHL1    C9  703   5.680   5.576   9.704 -0.2787  0.7549 -0.0828
   10CHL1    H9  704   5.602   5.655   9.709 -0.2569  1.0222 -2.8584
   10CHL1   C10  705   5.734   5.571   9.851  0.1935 -0.1741 -0.1646
   10CHL1   C19  706   5.856   5.473   9.867 -0.8622  0.6511  0.7059
   10CHL1  H19A  707   5.845   5.370   9.826 -0.1600  1.0502 -0.5441
   10CHL1  H19B  708   5.936   5.512   9.800 -1.5106 -0.4526 -0.7798
   10CHL1  H19C  709   5.890   5.481   9.972  1.2378  0.7562  0.0577
   10CHL1    C1  710   5.769   5.716   9.895  0.2443  0.8844 -0.2203
   10CHL1   H1A  711   5.858   5.748   9.836  0.7122 -2.8756 -1.8464
   10CHL1   H1B  712   5.683   5.780   9.865  0.0396  0.2050 -1.1134
   10CHL1    C2  713   5.797   5.735  10.049 -0.4438  0.0974 -0.1915
   10CHL1   H2A  714   5.807   5.843  10.075 -0.1746  0.0560 -0.1172
   10CHL1   H2B  715   5.889   5.675  10.067 -1.5299 -1.4270  0.4665
   10CHL1   C20  716   5.630   5.432   9.163 -0.2509  0.7445 -0.3452
   10CHL1   H20  717   5.697   5.343   9.171  3.6192  3.5347  2.4298
   10CHL1   C21  718   5.730   5.546   9.135 -0.0280 -0.7329  0.2886
   10CHL1  H21A  719   5.816   5.537   9.205  0.4153 -0.4134 -0.2124
   10CHL1  H21B  720   5.673   5.639   9.153 -3.8516 -2.3290 -2.2312
   10CHL1  H21C  721   5.765   5.540   9.030 -0.3134 -0.6767  0.1904
   10CHL1   C22  722   5.522   5.411   9.055 -0.7681 -0.3942 -0.1880
   10CHL1  H22A  723   5.587   5.397   8.966  1.8937  1.3967  1.3257
   10CHL1  H22B  724   5.462   5.323   9.087 -0.7677 -0.2243  0.2881
   10CHL1   C23  725   5.414   5.524   9.013 -0.3195 -0.6700 -0.6637
   10CHL1  H23A  726   5.365   5.564   9.103  2.4799 -0.4358  0.8774
   10CHL1  H23B  727   5.477   5.610   8.981  0.5019 -1.2305 -0.5943
   10CHL1   C24  728   5.321   5.471   8.908 -0.0804 -0.5248  0.2270
   10CHL1  H24A  729   5.382   5.433   8.823  0.8156 -0.7207  0.9415
   10CHL1  H24B  730   5.276   5.378   8.949  1.0462 -0.5117  1.5582
   10CHL1   C25  731   5.209   5.569   8.874  0.7111 -0.1551  0.1472
   10CHL1   H25  732   5.152   5.589   8.967  1.1926  0.2737  0.3582
   10CHL1   C26  733   5.260   5.700   8.808  0.2241  0.5955 -0.1310
   10CHL1  H26A  734   5.179   5.772   8.783  0.3837  0.4269 -1.1925
   10CHL1  H26B  735   5.324   5.747   8.886  1.5715 -1.6664  0.2094
   10CHL1  H26C  736   5.328   5.685   8.721  0.6274  1.4805  0.0188
   10CHL1   C27  737   5.122   5.489   8.771 -0.1725 -0.7241  0.5301
   10CHL1  H27A  738   5.031   5.546   8.742 -0.8381 -2.3745 -0.7658
   10CHL1  H27B  739   5.186   5.474   8.682 -1.1658  2.0515 -0.7677
   10CHL1  H27C  740   5.082   5.393   8.810 -1.1609 -1.0195 -1.1205
   11CHL1    C3  741   1.890   2.255   9.942  0.2670 -0.4373 -0.5531
   11CHL1    H3  742   1.935   2.353   9.916  1.3033 -0.6719  0.2994
   11CHL1    O3  743   1.877   2.235  10.076  0.0185 -0.0153 -0.1194
   11CHL1   H3'  744   1.865   2.324  10.109  0.6135 -0.3428  1.0289
   11CHL1    C4  745   1.753   2.237   9.870 -0.7089 -0.0773 -0.2506
   11CHL1   H4A  746   1.712   2.140   9.903  0.8803 -0.0705  1.9855
   11CHL1   H4B  747   1.682   2.309   9.916  0.9017  1.1108  0.4842
   11CHL1    C5  748   1.762   2.237   9.720  0.1303  0.3924  0.3266
   11CHL1    C6  749   1.681   2.306   9.643 -0.2709 -0.9748 -0.5900
   11CHL1    H6  750   1.608   2.372   9.691  2.3121  1.2134  0.5833
   11CHL1    C7  751   1.670   2.299   9.492  0.0575  0.2965 -0.6917
   11CHL1   H7A  752   1.566   2.267   9.471 -0.6657  0.9521  1.6059
   11CHL1   H7B  753   1.686   2.401   9.449 -2.7164  0.4648 -1.5122
   11CHL1    C8  754   1.764   2.195   9.431  0.5936  0.1280 -0.8842
   11CHL1    H8  755   1.707   2.100   9.434  1.4426 -0.4466 -1.9513
   11CHL1   C14  756   1.794   2.226   9.284 -0.6394  0.0614  0.3588
   11CHL1   H14  757   1.840   2.327   9.295 -4.0535  1.9312 -0.9740
   11CHL1   C15  758   1.683   2.248   9.184 -0.3558  0.4251  0.0240
   11CHL1  H15A  759   1.597   2.178   9.192  0.0611  0.1275  2.5891
   11CHL1  H15B  760   1.641   2.350   9.188  1.0893  1.0214  0.5926
   11CHL1   C16  761   1.749   2.223   9.046 -0.1024  0.6021  0.1391
   11CHL1  H16A  762   1.698   2.142   8.989 -0.1183  0.6362  0.1051
   11CHL1  H16B  763   1.770   2.318   8.993  2.4803  0.0962  0.1190
   11CHL1   C17  764   1.899   2.185   9.078 -0.1851 -0.0759  0.6307
   11CHL1   H17  765   1.968   2.270   9.095 -1.0737  0.8561 -0.2855
   11CHL1   C13  766   1.895   2.125   9.221  0.1727 -0.1723 -0.4748
   11CHL1   C18  767   1.831   1.990   9.211  0.4758  0.1835 -0.4748
   11CHL1  H18A  768   1.734   1.971   9.159  0.2664  0.9379 -0.3737
   11CHL1  H18B  769   1.901   1.922   9.159 -1.2242  0.1592 -2.9267
   11CHL1  H18C  770   1.811   1.948   9.312  3.1971 -1.9351 -0.6921
   11CHL1   C12  771   2.032   2.121   9.296 -0.0545 -0.0413 -0.3157
   11CHL1  H12A  772   2.090   2.030   9.268  0.8599  0.0558  1.1432
   11CHL1  H12B  773   2.091   2.216   9.289  0.5386 -0.4512 -1.1900
   11CHL1   C11  774   2.003   2.095   9.443  0.0148 -0.4960 -0.4283
   11CHL1  H11A  775   1.982   1.986   9.453  0.4786 -0.4085  1.9395
   11CHL1  H11B  776   2.098   2.112   9.498  0.7077 -2.5293 -0.9214
   11CHL1    C9  777   1.897   2.180   9.513  0.0430  0.1377  0.2792
   11CHL1    H9  778   1.947   2.278   9.500 -1.6519  0.9671 -0.2383
   11CHL1   C10  779   1.871   2.143   9.660 -0.5630  0.5634  0.2998
   11CHL1   C19  780   1.817   1.995   9.670  0.5182 -0.1099 -0.5082
   11CHL1  H19A  781   1.720   1.978   9.620 -0.3870 -0.5200  1.2924
   11CHL1  H19B  782   1.901   1.929   9.640  2.6938  1.6561  1.2380
   11CHL1  H19C  783   1.797   1.964   9.775  2.1328  1.5415  0.3522
   11CHL1    C1  784   2.002   2.158   9.741  0.0842  0.4382 -0.4659
   11CHL1   H1A  785   2.076   2.086   9.700  1.5445  1.2700  0.6203
   11CHL1   H1B  786   2.040   2.260   9.723  0.4384  0.5881  0.9969
   11CHL1    C2  787   1.987   2.145   9.896 -0.1343 -0.1907 -0.1988
   11CHL1   H2A  788   2.085   2.156   9.947  0.1453  0.7092 -0.9007
   11CHL1   H2B  789   1.946   2.045   9.920  1.9446 -0.9571  0.3971
   11CHL1   C20  790   1.951   2.093   8.960 -0.1833  0.2562 -0.5417
   11CHL1   H20  791   1.904   1.993   8.956  2.8846 -1.4386  1.8977
   11CHL1   C21  792   2.096   2.061   8.987 -0.6127  0.1618 -0.3509
   11CHL1  H21A  793   2.112   1.978   9.058 -2.1019 -1.2987 -1.6471
   11CHL1  H21B  794   2.156   2.152   9.009  2.4835 -0.9794 -3.3094
   11CHL1  H21C  795   2.139   2.022   8.893 -0.5924 -1.3752  0.2675
   11CHL1   C22  796   1.925   2.168   8.825  0.3468 -0.1991  0.3929
   11CHL1  H22A  797   1.821   2.204   8.809  1.4738  2.4197 -1.9740
   11CHL1  H22B  798   1.976   2.267   8.829 -1.1889  0.6758 -0.7249
   11CHL1   C23  799   1.964   2.096   8.699  0.5518  0.1067  0.9039
   11CHL1  H23A  800   2.070   2.063   8.713  0.9853  1.2760  0.5131
   11CHL1  H23B  801   1.905   2.003   8.683  1.0144 -0.0268 -0.0952
   11CHL1   C24  802   1.968   2.180   8.570  0.6578  0.3554 -0.1681
   11CHL1  H24A  803   1.885   2.252   8.551 -0.1719 -0.3748  0.5720
   11CHL1  H24B  804   2.046   2.255   8.591  0.0437  1.6098 -2.0559
   11CHL1   C25  805   1.999   2.094   8.442  0.3524  0.6878  0.1381
   11CHL1   H25  806   2.102   2.057   8.461  0.5772  1.9273  1.4397
   11CHL1   C26  807   1.898   1.982   8.413  0.3364 -0.3146  0.4899
   11CHL1  H26A  808   1.799   2.033   8.414 -0.4846 -1.8264  2.0257
   11CHL1  H26B  809   1.917   1.953   8.307  3.2489  1.9566  0.2607
   11CHL1  H26C  810   1.887   1.903   8.491 -1.1339  0.7562  1.4118
   11CHL1   C27  811   2.017   2.194   8.322 -0.1286  0.4654  0.0152
   11CHL1  H27A  812   2.047   2.140   8.230  1.8853  1.8575 -0.2152
   11CHL1  H27B  813   1.925   2.256   8.315 -1.4468 -1.2951  0.9417
   11CHL1  H27C  814   2.101   2.262   8.349 -0.2676  0.1622  1.2727
   12CHL1    C3  815   3.915   3.254  10.424  0.1625 -0.5209 -1.1296
   12CHL1    H3  816   4.025   3.246  10.407  0.1408 -1.5214 -0.8402
   12CHL1    O3  817   3.896   3.301  10.555  0.3616 -0.5621  0.2117
   12CHL1   H3'  818   3.805   3.331  10.568  0.7631  1.0008 -0.3325
   12CHL1    C4  819   3.856   3.367  10.339  0.6069 -0.3000  0.2474
   12CHL1   H4A  820   3.749   3.391  10.355  1.0519  2.5334 -0.5034
   12CHL1   H4B  821   3.907   3.464  10.357 -0.0725  0.3540 -1.2007
   12CHL1    C5  822   3.871   3.339  10.188  0.3964 -0.1551 -0.1765
   12CHL1    C6  823   3.946   3.412  10.110 -0.3038  0.4003 -0.0227
   12CHL1    H6  824   3.984   3.503  10.159  0.1724 -0.8890  2.1404
   12CHL1    C7  825   3.974   3.379   9.962 -0.0810 -0.3165  0.2468
   12CHL1   H7A  826   3.947   3.471   9.906  0.4379 -0.1579  0.2534
   12CHL1   H7B  827   4.078   3.343   9.945  0.1250 -0.8769  2.4643
   12CHL1    C8  828   3.876   3.268   9.912 -0.1884 -0.2660 -0.0294
   12CHL1    H8  829   3.783   3.322   9.883 -0.4873 -1.0262 -0.5125
   12CHL1   C14  830   3.935   3.217   9.786 -0.0006  0.4946 -0.1986
   12CHL1   H14  831   4.029   3.164   9.812  0.7134  1.6642 -0.3414
   12CHL1   C15  832   3.992   3.312   9.674  0.3423  0.3698 -0.6800
   12CHL1  H15A  833   3.911   3.385   9.654 -1.0992 -0.0500  2.9131
   12CHL1  H15B  834   4.083   3.366   9.708  1.0797  0.4548 -2.6586
   12CHL1   C16  835   4.006   3.213   9.555 -0.5116  0.1442 -0.0075
   12CHL1  H16A  836   3.959   3.247   9.460  3.7263  3.2844 -1.3014
   12CHL1  H16B  837   4.111   3.207   9.519 -0.2942 -0.1159  0.6488
   12CHL1   C17  838   3.959   3.070   9.601 -0.2613  0.4858 -0.3515
   12CHL1   H17  839   4.053   3.034   9.649 -0.5000  0.8983  0.4332
   12CHL1   C13  840   3.862   3.095   9.717  0.2245 -0.2492  0.0116
   12CHL1   C18  841   3.727   3.143   9.659 -1.2259  0.6363 -0.9160
   12CHL1  H18A  842   3.740   3.234   9.597 -2.5446  0.4383 -1.5192
   12CHL1  H18B  843   3.687   3.059   9.598  1.5853 -1.6011  0.0874
   12CHL1  H18C  844   3.656   3.168   9.741 -0.3078  1.5084 -0.3703
   12CHL1   C12  845   3.858   2.987   9.826  0.2473  0.0468 -0.0907
   12CHL1  H12A  846   3.796   2.904   9.788 -1.4674  1.2088  0.0581
   12CHL1  H12B  847   3.958   2.941   9.842 -0.1825 -1.3547 -1.2379
   12CHL1   C11  848   3.783   3.032   9.958 -0.4537  0.2751 -0.1121
   12CHL1  H11A  849   3.679   3.072   9.951 -0.9598 -0.3169  2.7127
   12CHL1  H11B  850   3.777   2.951  10.034  0.4295  0.5917  0.3111
   12CHL1    C9  851   3.855   3.157  10.013 -0.5226 -0.1191  0.2805
   12CHL1    H9  852   3.956   3.121  10.039 -0.4474  0.0954  0.2927
   12CHL1   C10  853   3.801   3.206  10.147 -0.6800  0.1635 -0.8440
   12CHL1   C19  854   3.650   3.235  10.148 -0.1623  0.9781  0.4037
   12CHL1  H19A  855   3.591   3.145  10.120  0.5101  0.9350 -0.9792
   12CHL1  H19B  856   3.613   3.267  10.248 -0.1050  2.7841 -0.1216
   12CHL1  H19C  857   3.630   3.319  10.079  0.1534  2.8614  2.5074
   12CHL1    C1  858   3.832   3.093  10.257  0.0922 -0.4073  0.4545
   12CHL1   H1A  859   3.753   3.018  10.234  1.6981 -1.8359 -0.6545
   12CHL1   H1B  860   3.932   3.051  10.236  0.2408 -0.3028  0.9465
   12CHL1    C2  861   3.834   3.130  10.401 -0.4565 -0.2450 -0.2396
   12CHL1   H2A  862   3.884   3.047  10.455  1.8772  1.6069  0.6277
   12CHL1   H2B  863   3.728   3.130  10.435 -0.5177 -0.4106 -0.4312
   12CHL1   C20  864   3.919   2.976   9.486 -0.5169 -0.1161  0.8942
   12CHL1   H20  865   3.827   3.014   9.438  0.2523 -1.4735 -1.8694
   12CHL1   C21  866   3.902   2.832   9.538 -0.5024  0.0701 -0.2467
   12CHL1  H21A  867   3.996   2.804   9.590  1.9682  0.7173 -4.0165
   12CHL1  H21B  868   3.863   2.757   9.466 -2.0472  1.5821 -1.0548
   12CHL1  H21C  869   3.815   2.829   9.607  0.5998 -0.9034  1.1537
   12CHL1   C22  870   4.028   2.986   9.375  0.7808 -0.3962  0.1378
   12CHL1  H22A  871   4.008   3.082   9.322  0.5129 -0.1929  0.6044
   12CHL1  H22B  872   4.127   2.984   9.426  0.7272  0.4158  0.2982
   12CHL1   C23  873   4.011   2.878   9.268 -0.5823 -0.0320 -1.0167
   12CHL1  H23A  874   4.045   2.785   9.318  0.3290  0.1481 -1.2890
   12CHL1  H23B  875   3.905   2.872   9.235 -1.5906  1.1391  1.7270
   12CHL1   C24  876   4.106   2.921   9.151  0.3223  0.0189 -0.2065
   12CHL1  H24A  877   4.078   3.028   9.144  0.3583  0.2126  2.0647
   12CHL1  H24B  878   4.208   2.918   9.194  0.5671  1.3387 -0.6559
   12CHL1   C25  879   4.084   2.847   9.017  0.1481 -0.4000  0.2786
   12CHL1   H25  880   4.081   2.738   9.034  3.3020 -0.6501 -0.1350
   12CHL1   C26  881   3.948   2.875   8.958 -0.1553 -0.7931 -0.1647
   12CHL1  H26A  882   3.959   2.838   8.854  1.3223 -2.0830  0.4009
   12CHL1  H26B  883   3.859   2.839   9.015  1.0029 -0.9505  1.6336
   12CHL1  H26C  884   3.948   2.986   8.959 -1.4788 -0.7418  1.9867
   12CHL1   C27  885   4.196   2.878   8.913  0.1768 -0.9199 -0.1685
   12CHL1  H27A  886   4.180   2.982   8.877  0.6056 -1.2201 -1.2587
   12CHL1  H27B  887   4.293   2.876   8.967 -0.0235  1.0634  0.3574
   12CHL1  H27C  888   4.195   2.816   8.821 -1.4518  1.4772 -1.9090
   13CHL1    C3  889   3.342   5.944   9.995  0.7311  0.7960 -0.1793
   13CHL1    H3  890   3.435   5.896  10.031 -0.4405 -1.4659  0.0003
   13CHL1    O3  891   3.257   5.991  10.102 -0.0014  0.9421 -0.0996
   13CHL1   H3'  892   3.227   5.913  10.150  0.9697  0.1384 -0.7530
   13CHL1    C4  893   3.374   6.062   9.899  0.1220  0.1094  0.3006
   13CHL1   H4A  894   3.280   6.114   9.874  0.5829  0.3427 -1.0435
   13CHL1   H4B  895   3.436   6.135   9.954  1.6152 -0.2407 -0.8320
   13CHL1    C5  896   3.434   6.031   9.763  0.4442  0.0998 -0.0453
   13CHL1    C6  897   3.534   6.107   9.708  0.5030 -0.7349 -0.3376
   13CHL1    H6  898   3.569   6.190   9.771 -1.3975  0.9912 -1.4612
   13CHL1    C7  899   3.581   6.096   9.565  0.1341  0.5900  0.0049
   13CHL1   H7A  900   3.568   6.191   9.509  1.0198 -0.4161 -2.0048
   13CHL1   H7B  901   3.692   6.085   9.560  0.1729  0.1527  1.3669
   13CHL1    C8  902   3.514   5.982   9.483 -0.2595 -0.4113  0.0567
   13CHL1    H8  903   3.426   6.030   9.436  1.0121  0.7030 -1.2998
   13CHL1   C14  904   3.604   5.934   9.375 -0.0237  0.4473  0.5278
   13CHL1   H14  905   3.686   5.880   9.427 -1.4432 -2.3970 -0.0225
   13CHL1   C15  906   3.662   6.038   9.275 -0.0027 -0.0987 -0.3574
   13CHL1  H15A  907   3.589   6.112   9.236  1.1124  0.4613 -1.4586
   13CHL1  H15B  908   3.750   6.087   9.322 -0.2079 -2.4169  2.6929
   13CHL1   C16  909   3.716   5.945   9.160  0.3283 -0.0053  0.1388
   13CHL1  H16A  910   3.680   5.992   9.066 -1.6874 -0.5324  0.5895
   13CHL1  H16B  911   3.827   5.941   9.151  0.2633 -0.4810 -0.5085
   13CHL1   C17  912   3.652   5.803   9.184  0.1962 -0.4885  0.2278
   13CHL1   H17  913   3.731   5.751   9.242  0.7005 -0.6143 -0.5569
   13CHL1   C13  914   3.538   5.826   9.285 -0.1510  0.1536 -0.2264
   13CHL1   C18  915   3.418   5.887   9.211  0.0156 -0.2981  0.1832
   13CHL1  H18A  916   3.443   5.973   9.145 -0.5024  0.4111  0.8831
   13CHL1  H18B  917   3.382   5.809   9.141 -0.3113 -0.2092  0.2504
   13CHL1  H18C  918   3.332   5.911   9.277 -0.1653 -0.9167  0.1740
   13CHL1   C12  919   3.491   5.707   9.380 -0.7074 -0.0345  0.2200
   13CHL1  H12A  920   3.466   5.618   9.319 -1.5736  0.2522  0.1475
   13CHL1  H12B  921   3.581   5.677   9.438 -0.2027  0.5081 -0.2635
   13CHL1   C11  922   3.400   5.750   9.488  0.5966  0.4642 -0.7959
   13CHL1  H11A  923   3.302   5.782   9.444  0.2333  1.3116  0.5589
   13CHL1  H11B  924   3.374   5.664   9.553 -2.5673  1.6953 -0.2482
   13CHL1    C9  925   3.457   5.866   9.571  0.3592 -0.6615 -0.2846
   13CHL1    H9  926   3.548   5.817   9.611  1.9949  0.1929 -2.7094
   13CHL1   C10  927   3.369   5.912   9.698  0.2975 -0.0265  0.3454
   13CHL1   C19  928   3.236   5.962   9.640  0.1267 -0.0656  0.7263
   13CHL1  H19A  929   3.170   5.998   9.721  1.3564  4.0508  0.1366
   13CHL1  H19B  930   3.255   6.050   9.575  3.8808 -0.7717  0.5844
   13CHL1  H19C  931   3.184   5.877   9.591  0.0648  0.0647  0.5645
   13CHL1    C1  932   3.345   5.789   9.792  0.0673 -1.0067  0.2341
   13CHL1   H1A  933   3.309   5.695   9.746  2.1499 -1.1357 -1.2974
   13CHL1   H1B  934   3.445   5.766   9.835 -0.4126 -0.0410  1.9593
   13CHL1    C2  935   3.274   5.832   9.917 -0.1236 -0.0242 -0.6653
   13CHL1   H2A  936   3.279   5.741   9.979 -1.3606  0.7353  0.6032
   13CHL1   H2B  937   3.170   5.864   9.894  0.0990 -0.2000 -2.0169
   13CHL1   C20  938   3.615   5.710   9.067 -0.5692  1.2320  0.0236
   13CHL1   H20  939   3.516   5.664   9.091 -0.0539 -0.5406 -1.0368
   13CHL1   C21  940   3.722   5.595   9.055 -0.0256  0.0818 -0.8299
   13CHL1  H21A  941   3.675   5.512   8.998  0.3080  0.0130 -1.0040
   13CHL1  H21B  942   3.737   5.564   9.161  0.8354  0.7431 -0.7492
   13CHL1  H21C  943   3.815   5.628   9.006 -0.4962  0.2859 -1.6064
   13CHL1   C22  944   3.597   5.778   8.926  0.5410  0.2131 -0.2713
   13CHL1  H22A  945   3.512   5.849   8.939  0.1353 -0.4796  1.0939
   13CHL1  H22B  946   3.686   5.836   8.895  1.4330 -0.7976  0.3300
   13CHL1   C23  947   3.560   5.679   8.808 -1.1615  0.0205 -0.2676
   13CHL1  H23A  948   3.640   5.603   8.798  1.0085  1.7924  2.2561
   13CHL1  H23B  949   3.472   5.617   8.833 -1.0274 -1.2172 -2.5412
   13CHL1   C24  950   3.545   5.751   8.672  0.6190  0.1469 -0.5211
   13CHL1  H24A  951   3.635   5.804   8.633  0.4857  2.2290  1.7220
   13CHL1  H24B  952   3.526   5.673   8.595  1.7623  0.5301 -1.2091
   13CHL1   C25  953   3.421   5.851   8.665 -0.1752 -0.0759  0.4232
   13CHL1   H25  954   3.423   5.924   8.748 -0.4815  0.8259 -0.3443
   13CHL1   C26  955   3.417   5.922   8.531 -0.5121  0.7148 -0.3541
   13CHL1  H26A  956   3.417   5.857   8.441  1.9472 -0.9687  0.7384
   13CHL1  H26B  957   3.329   5.990   8.533 -1.4478 -0.4455  1.8982
   13CHL1  H26C  958   3.507   5.987   8.526 -0.7681  1.3789  2.3252
   13CHL1   C27  959   3.285   5.773   8.689 -0.8006 -0.5475 -0.1603
   13CHL1  H27A  960   3.293   5.671   8.646  0.7546 -1.4979  2.2255
   13CHL1  H27B  961   3.282   5.772   8.800  2.3416 -0.3629  0.0151
   13CHL1  H27C  962   3.200   5.829   8.644 -0.5698 -1.1452 -1.3760
   14CHL1    C3  963   3.848   1.614  10.364 -0.1208 -0.1853 -0.1809
   14CHL1    H3  964   3.760   1.548  10.380 -0.7973  1.3453  3.4982
   14CHL1    O3  965   3.890   1.668  10.491 -0.4273 -0.0107 -0.1793
   14CHL1   H3'  966   3.921   1.755  10.463  1.1350 -0.3947  0.2327
   14CHL1    C4  967   3.963   1.522  10.307  0.3982  0.5807 -0.3286
   14CHL1   H4A  968   4.045   1.597  10.301 -0.1307  1.2375  0.5524
   14CHL1   H4B  969   4.000   1.453  10.386 -0.7861  0.9399  0.5704
   14CHL1    C5  970   3.928   1.462  10.172  0.3222  0.2739  0.0756
   14CHL1    C6  971   3.942   1.326  10.146  0.2301  0.0484  0.2180
   14CHL1    H6  972   3.973   1.259  10.227 -2.4242  0.0725  1.3681
   14CHL1    C7  973   3.911   1.265  10.015  0.2586  0.3603  0.5452
   14CHL1   H7A  974   3.990   1.193   9.986 -0.0797  0.9767 -2.2385
   14CHL1   H7B  975   3.811   1.216  10.026 -0.5690  1.6212 -0.8688
   14CHL1    C8  976   3.907   1.367   9.898  0.0940  0.0393  0.1935
   14CHL1    H8  977   4.009   1.408   9.879 -0.2732  1.7219  1.5711
   14CHL1   C14  978   3.843   1.308   9.770  1.0292 -0.1972 -0.5618
   14CHL1   H14  979   3.748   1.257   9.798  2.1891 -0.8827  2.5569
   14CHL1   C15  980   3.919   1.195   9.701  0.0250 -0.1157 -1.2056
   14CHL1  H15A  981   4.028   1.220   9.698 -0.1795  1.0785  0.0950
   14CHL1  H15B  982   3.902   1.098   9.753 -1.4148  0.2316 -1.0082
   14CHL1   C16  983   3.860   1.192   9.558  0.6376 -0.9780  0.4248
   14CHL1  H16A  984   3.938   1.206   9.480 -1.5895 -0.1061 -1.8008
   14CHL1  H16B  985   3.810   1.097   9.530  0.1233 -0.3964 -0.7256
   14CHL1   C17  986   3.764   1.318   9.541 -0.2178  0.2316 -0.2375
   14CHL1   H17  987   3.667   1.275   9.576  1.1568 -1.3543  1.8075
   14CHL1   C13  988   3.814   1.409   9.652  0.8972  0.8941 -0.0269
   14CHL1   C18  989   3.934   1.482   9.605 -0.2807  0.8852 -0.7676
   14CHL1  H18A  990   3.987   1.541   9.682 -2.3287  0.6522  0.9195
   14CHL1  H18B  991   4.005   1.422   9.543  1.0368  2.0511 -0.4308
   14CHL1  H18C  992   3.898   1.558   9.532  0.4553  0.4753 -1.5779
   14CHL1   C12  993   3.708   1.507   9.709  0.0902  0.4084  0.8111
   14CHL1  H12A  994   3.694   1.589   9.635  1.6187 -1.0929 -1.2566
   14CHL1  H12B  995   3.611   1.455   9.726  0.9906 -0.5990  3.4276
   14CHL1   C11  996   3.750   1.569   9.837  0.0372  0.0235 -0.5695
   14CHL1  H11A  997   3.817   1.655   9.813  0.3667 -0.5659 -1.8224
   14CHL1  H11B  998   3.663   1.618   9.886  0.1022 -0.9668  0.5724
   14CHL1    C9  999   3.809   1.479   9.945  0.4710 -0.4917 -0.2123
   14CHL1    H9 1000   3.721   1.419   9.978  1.3128 -2.0394 -0.6982
   14CHL1   C10 1001   3.868   1.559  10.067  0.4532 -0.8042  0.6145
   14CHL1   C19 1002   3.979   1.653  10.013 -0.7611  0.3340 -0.3238
   14CHL1  H19A 1003   4.053   1.604   9.946  1.3053  1.6382  0.8853
   14CHL1  H19B 1004   3.934   1.739   9.959  1.0590  0.1547 -2.2703
   14CHL1  H19C 1005   4.044   1.697  10.092 -2.4299 -1.7604  2.4230
   14CHL1    C1 1006   3.768   1.654  10.134 -0.0395  0.2422  0.3027
   14CHL1   H1A 1007   3.736   1.737  10.068 -0.3654 -0.3951 -0.3533
   14CHL1   H1B 1008   3.674   1.594  10.136  1.5111 -2.4316 -1.2152
   14CHL1    C2 1009   3.812   1.722  10.262 -0.7032 -0.1245 -0.0387
   14CHL1   H2A 1010   3.739   1.791  10.311 -1.4478 -2.5082  2.4822
   14CHL1   H2B 1011   3.905   1.779  10.242 -0.5492 -0.4284 -0.1908
   14CHL1   C20 1012   3.754   1.363   9.394  0.1676  0.4482 -0.1387
   14CHL1   H20 1013   3.847   1.419   9.371  0.4506 -0.3327 -0.9511
   14CHL1   C21 1014   3.639   1.467   9.386 -0.3658  0.5771  0.4952
   14CHL1  H21A 1015   3.685   1.563   9.417 -2.5123  2.1083 -0.8010
   14CHL1  H21B 1016   3.558   1.441   9.457 -0.0663  0.6525  0.8702
   14CHL1  H21C 1017   3.595   1.481   9.285  1.6822 -0.6245 -0.6501
   14CHL1   C22 1018   3.741   1.253   9.285 -0.0979 -0.2550  0.0700
   14CHL1  H22A 1019   3.835   1.195   9.300  1.6566  2.4023 -0.0219
   14CHL1  H22B 1020   3.659   1.179   9.302  0.4136 -0.6192  1.0683
   14CHL1   C23 1021   3.753   1.298   9.139 -0.9002 -0.3720 -0.2493
   14CHL1  H23A 1022   3.661   1.341   9.094 -0.2925  0.8834 -0.3257
   14CHL1  H23B 1023   3.838   1.368   9.124 -1.1232  0.0091  0.2298
   14CHL1   C24 1024   3.785   1.180   9.048  0.4825 -0.4650 -0.3673
   14CHL1  H24A 1025   3.872   1.121   9.083  0.5165 -0.0911  0.1921
   14CHL1  H24B 1026   3.704   1.104   9.054 -0.0505  0.0295 -1.1218
   14CHL1   C25 1027   3.797   1.205   8.902 -0.3252  0.0841 -0.3962
   14CHL1   H25 1028   3.883   1.276   8.890  0.0342 -0.3210 -0.2315
   14CHL1   C26 1029   3.842   1.073   8.830 -0.6369 -0.7288  0.0465
   14CHL1  H26A 1030   3.876   1.098   8.727  1.2466  0.2113  0.8543
   14CHL1  H26B 1031   3.932   1.043   8.888 -0.8553  0.9514  1.3343
   14CHL1  H26C 1032   3.756   1.003   8.827  0.6488 -2.3547 -1.9033
   14CHL1   C27 1033   3.678   1.263   8.842  0.3733 -0.4126  0.9289
   14CHL1  H27A 1034   3.641   1.357   8.888 -2.3841  0.2778 -2.2345
   14CHL1  H27B 1035   3.694   1.280   8.733 -4.0944 -2.2863 -0.2645
   14CHL1  H27C 1036   3.589   1.197   8.835 -0.5779  0.9367 -0.5361
   15CHL1    C3 1037   4.152   2.518  10.209  0.0893 -0.2763 -0.2740
   15CHL1    H3 1038   4.115   2.413  10.205 -3.2959  0.8128 -0.6129
   15CHL1    O3 1039   4.144   2.567  10.341 -0.2162 -0.1912  0.0185
   15CHL1   H3' 1040   4.200   2.507  10.389 -0.6094 -1.5224 -1.1187
   15CHL1    C4 1041   4.297   2.525  10.161  0.5548  0.5438  0.2281
   15CHL1   H4A 1042   4.326   2.630  10.183  0.8330  0.1126  2.1329
   15CHL1   H4B 1043   4.373   2.472  10.222  1.1482  1.4500  0.2977
   15CHL1    C5 1044   4.316   2.495  10.015 -0.3521  0.0676  0.7814
   15CHL1    C6 1045   4.425   2.430   9.976 -0.1976 -0.0253 -0.4261
   15CHL1    H6 1046   4.507   2.411  10.047  2.0691 -1.8158 -3.2668
   15CHL1    C7 1047   4.463   2.400   9.835  0.8961 -0.4336  0.0267
   15CHL1   H7A 1048   4.569   2.420   9.810  1.0319 -1.3440 -0.1497
   15CHL1   H7B 1049   4.440   2.295   9.809 -2.0149 -0.0459  0.6793
   15CHL1    C8 1050   4.380   2.490   9.734  0.1984  0.2482  0.2668
   15CHL1    H8 1051   4.433   2.587   9.743 -0.3889  0.8686 -2.3045
   15CHL1   C14 1052   4.387   2.433   9.596  0.0324  0.3820  0.1426
   15CHL1   H14 1053   4.334   2.335   9.603  1.0382 -0.3126 -1.3959
   15CHL1   C15 1054   4.518   2.389   9.536  0.2673  0.6387  1.0298
   15CHL1  H15A 1055   4.601   2.456   9.565  1.7051 -1.3614  1.7950
   15CHL1  H15B 1056   4.561   2.290   9.564  3.5693  0.6683 -2.9936
   15CHL1   C16 1057   4.506   2.400   9.378 -1.0324  0.0646 -0.6144
   15CHL1  H16A 1058   4.580   2.473   9.340  1.2264 -1.6962  0.2253
   15CHL1  H16B 1059   4.539   2.300   9.342  1.2342 -0.0742  1.5953
   15CHL1   C17 1060   4.363   2.434   9.353  0.2776  0.0870  0.2383
   15CHL1   H17 1061   4.311   2.336   9.352  1.6453 -0.6708  0.9790
   15CHL1   C13 1062   4.312   2.506   9.482 -0.2785  0.0315 -0.4412
   15CHL1   C18 1063   4.370   2.647   9.476 -0.0032 -0.2318  0.4104
   15CHL1  H18A 1064   4.476   2.646   9.444 -0.3416  0.0692 -0.7843
   15CHL1  H18B 1065   4.306   2.701   9.402  0.5988 -0.2356 -0.1173
   15CHL1  H18C 1066   4.369   2.714   9.565  0.5943  1.6645 -0.9274
   15CHL1   C12 1067   4.160   2.501   9.523 -0.2917 -0.2119  0.0328
   15CHL1  H12A 1068   4.110   2.584   9.467  0.3503  1.4907  1.8682
   15CHL1  H12B 1069   4.113   2.404   9.497 -2.6451  0.4717  1.4834
   15CHL1   C11 1070   4.146   2.557   9.669 -0.2655  0.5091 -0.1892
   15CHL1  H11A 1071   4.170   2.666   9.661 -0.7901  0.5948 -0.7394
   15CHL1  H11B 1072   4.039   2.541   9.697 -0.6540  0.7082 -1.4492
   15CHL1    C9 1073   4.235   2.498   9.778 -0.8920  0.4550 -0.2356
   15CHL1    H9 1074   4.205   2.391   9.784  0.4395  0.0135 -0.8343
   15CHL1   C10 1075   4.212   2.552   9.921  0.1750 -0.9843  0.1689
   15CHL1   C19 1076   4.245   2.705   9.922  0.8025 -0.1747 -0.2755
   15CHL1  H19A 1077   4.255   2.747  10.025  1.2450  4.3285 -1.9069
   15CHL1  H19B 1078   4.331   2.732   9.857  0.8074 -1.5160 -0.8404
   15CHL1  H19C 1079   4.153   2.761   9.891  1.2354 -0.5614 -2.4134
   15CHL1    C1 1080   4.066   2.537   9.975 -0.1920 -0.6960 -0.1198
   15CHL1   H1A 1081   4.007   2.601   9.907  1.6691  1.3088  0.0756
   15CHL1   H1B 1082   4.034   2.430   9.970 -0.3092 -0.7346  1.0538
   15CHL1    C2 1083   4.056   2.591  10.120 -0.4335  0.2678 -0.0591
   15CHL1   H2A 1084   3.950   2.583  10.154 -0.3973 -0.5542 -0.1309
   15CHL1   H2B 1085   4.078   2.700  10.125  0.7179  0.0627 -0.3964
   15CHL1   C20 1086   4.343   2.492   9.213  0.3488  0.7318  0.2080
   15CHL1   H20 1087   4.401   2.586   9.202  2.7193 -0.3468  2.4270
   15CHL1   C21 1088   4.196   2.526   9.194  0.3758  0.1868  0.3502
   15CHL1  H21A 1089   4.144   2.428   9.195  2.0620 -0.7891 -0.5423
   15CHL1  H21B 1090   4.170   2.568   9.094 -0.1352  0.1888  0.4843
   15CHL1  H21C 1091   4.155   2.601   9.264 -2.8739 -1.4713  0.3734
   15CHL1   C22 1092   4.399   2.381   9.107 -0.0316 -0.7148  0.5390
   15CHL1  H22A 1093   4.509   2.371   9.116  0.0169  0.2241  1.1667
   15CHL1  H22B 1094   4.354   2.281   9.128  0.0691 -1.4859 -2.4417
   15CHL1   C23 1095   4.381   2.420   8.963  0.9544  0.7588  0.7833
   15CHL1  H23A 1096   4.297   2.355   8.931 -0.6253  2.0796  2.0456
   15CHL1  H23B 1097   4.351   2.526   8.951 -3.7252 -0.6622 -2.6877
   15CHL1   C24 1098   4.497   2.386   8.874  0.6455 -0.0219 -0.6777
   15CHL1  H24A 1099   4.572   2.461   8.907 -1.1059  1.4196  0.1704
   15CHL1  H24B 1100   4.526   2.280   8.893  1.2613  0.5428  2.0100
   15CHL1   C25 1101   4.479   2.409   8.719  0.2212 -0.2465  0.2299
   15CHL1   H25 1102   4.377   2.373   8.694  1.3983 -2.0762 -2.3603
   15CHL1   C26 1103   4.512   2.554   8.684 -0.8695 -0.1406 -0.3162
   15CHL1  H26A 1104   4.615   2.570   8.722 -0.9591 -0.8952  0.2676
   15CHL1  H26B 1105   4.538   2.572   8.577  3.0816 -0.7868  0.3662
   15CHL1  H26C 1106   4.452   2.626   8.744 -2.1099 -0.3792 -1.2295
   15CHL1   C27 1107   4.577   2.319   8.638  0.0364  0.9614 -0.3164
   15CHL1  H27A 1108   4.570   2.326   8.527  1.5739  0.7461 -0.4414
   15CHL1  H27B 1109   4.677   2.352   8.674  0.9717  0.0911 -2.0241
   15CHL1  H27C 1110   4.560   2.215   8.671  0.4618  1.3463  1.1918
   16CHL1    C3 1111   4.655   2.745  10.394  0.1005  0.1330 -0.5650
   16CHL1    H3 1112   4.647   2.634  10.385 -2.8647  0.3203 -1.2585
   16CHL1    O3 1113   4.615   2.783  10.526 -0.4838  0.0373 -0.1889
   16CHL1   H3' 1114   4.600   2.878  10.527 -1.1900  0.0002  3.1867
   16CHL1    C4 1115   4.792   2.799  10.353  0.2961  0.5827 -0.0854
   16CHL1   H4A 1116   4.791   2.908  10.375  0.5214  0.2755  1.6016
   16CHL1   H4B 1117   4.856   2.750  10.430  0.7218  0.1685 -0.6942
   16CHL1    C5 1118   4.839   2.772  10.213  0.0913 -0.1090  0.1729
   16CHL1    C6 1119   4.958   2.722  10.177  0.7083  0.3354 -0.3111
   16CHL1    H6 1120   5.028   2.704  10.260  0.9427 -0.3143 -0.6462
   16CHL1    C7 1121   5.015   2.709  10.040 -0.7514 -0.3249  0.0917
   16CHL1   H7A 1122   5.122   2.737  10.027 -0.8030  1.1084  2.1993
   16CHL1   H7B 1123   5.007   2.601  10.015  2.0528 -0.4683 -0.5517
   16CHL1    C8 1124   4.924   2.786   9.937 -0.2544 -0.1470  0.4246
   16CHL1    H8 1125   4.943   2.895   9.950  1.1814 -0.6903  3.9475
   16CHL1   C14 1126   4.946   2.741   9.790 -0.3318 -0.6626  0.3249
   16CHL1   H14 1127   4.908   2.636   9.784 -0.4017 -0.7221  1.5536
   16CHL1   C15 1128   5.090   2.767   9.732  0.0445 -0.1406 -0.6395
   16CHL1  H15A 1129   5.124   2.869   9.759  0.8693 -0.8586  1.2073
   16CHL1  H15B 1130   5.163   2.698   9.778 -2.0573 -2.4415 -0.5169
   16CHL1   C16 1131   5.076   2.747   9.580  0.5088 -0.1023  0.5679
   16CHL1  H16A 1132   5.124   2.834   9.530  0.8986 -0.5345  0.1816
   16CHL1  H16B 1133   5.118   2.652   9.543  2.1070  1.0552 -0.7359
   16CHL1   C17 1134   4.920   2.741   9.541  0.1205 -0.8024 -0.5686
   16CHL1   H17 1135   4.902   2.632   9.539 -1.4087 -0.5606 -0.7394
   16CHL1   C13 1136   4.855   2.798   9.671 -0.1379  0.1285  0.5511
   16CHL1   C18 1137   4.864   2.951   9.655  0.4838 -1.1416 -0.4947
   16CHL1  H18A 1138   4.970   2.985   9.655 -0.2710  1.3746  0.3688
   16CHL1  H18B 1139   4.809   2.976   9.562 -2.4604 -2.4697  0.7599
   16CHL1  H18C 1140   4.822   2.994   9.748 -1.1438 -4.5313  0.4980
   16CHL1   C12 1141   4.713   2.753   9.712  0.3488 -0.4637  0.3657
   16CHL1  H12A 1142   4.646   2.788   9.630  1.0549 -1.3586 -0.6144
   16CHL1  H12B 1143   4.702   2.643   9.705  2.6965 -0.6572 -1.6937
   16CHL1   C11 1144   4.671   2.804   9.851 -0.3255 -0.1573 -0.3389
   16CHL1  H11A 1145   4.660   2.915   9.851  2.5790  0.2160 -0.5360
   16CHL1  H11B 1146   4.568   2.769   9.874 -0.0156 -1.5079 -0.9602
   16CHL1    C9 1147   4.771   2.764   9.969 -0.1763 -0.1050  0.7943
   16CHL1    H9 1148   4.762   2.653   9.961 -3.4936  0.1756 -4.4265
   16CHL1   C10 1149   4.737   2.817  10.107  0.1527 -0.3448  0.3709
   16CHL1   C19 1150   4.732   2.974  10.096 -0.0253  0.0484  0.0049
   16CHL1  H19A 1151   4.640   2.980  10.033 -0.6583 -1.3552  0.7334
   16CHL1  H19B 1152   4.723   3.021  10.196 -0.3226 -1.1170  0.5372
   16CHL1  H19C 1153   4.822   3.011  10.043 -1.0581  0.1258 -1.7913
   16CHL1    C1 1154   4.599   2.761  10.153 -0.1729 -0.5128  0.0340
   16CHL1   H1A 1155   4.524   2.807  10.086  0.0534  3.1719  2.0430
   16CHL1   H1B 1156   4.592   2.652  10.134  1.8113 -0.8734  1.0653
   16CHL1    C2 1157   4.554   2.797  10.295  0.2413  0.8225  0.0545
   16CHL1   H2A 1158   4.461   2.744  10.325  0.8246  0.3324  1.0752
   16CHL1   H2B 1159   4.553   2.907  10.305  2.0860  0.7965  1.0253
   16CHL1   C20 1160   4.888   2.793   9.401 -0.4808 -0.0851  0.4296
   16CHL1   H20 1161   4.888   2.904   9.394 -2.2696 -0.1466 -2.8718
   16CHL1   C21 1162   4.752   2.742   9.363 -0.7131 -0.3329 -0.3724
   16CHL1  H21A 1163   4.718   2.778   9.264 -1.1599 -0.2375 -0.1857
   16CHL1  H21B 1164   4.673   2.767   9.436  1.2328 -3.3977  3.1095
   16CHL1  H21C 1165   4.751   2.632   9.374 -2.0846 -0.3204 -0.2182
   16CHL1   C22 1166   4.994   2.747   9.297  0.8316  0.3875 -0.6559
   16CHL1  H22A 1167   5.091   2.801   9.310  0.7213  1.3568 -3.3595
   16CHL1  H22B 1168   5.006   2.637   9.301  1.6267  0.4752 -0.3154
   16CHL1   C23 1169   4.958   2.781   9.154 -0.6764  0.3107 -0.1718
   16CHL1  H23A 1170   4.862   2.734   9.126 -1.2607  1.5640 -0.3169
   16CHL1  H23B 1171   4.936   2.890   9.147  1.2065  0.6588 -1.5568
   16CHL1   C24 1172   5.070   2.741   9.050  1.1617 -0.7329 -0.2382
   16CHL1  H24A 1173   5.164   2.749   9.109  0.2038 -0.9525  1.3660
   16CHL1  H24B 1174   5.052   2.633   9.031 -3.0958  0.0760 -2.0188
   16CHL1   C25 1175   5.090   2.832   8.931  0.9300 -0.4709  0.6037
   16CHL1   H25 1176   5.111   2.933   8.973  0.8447 -0.3722  0.4072
   16CHL1   C26 1177   5.208   2.785   8.850 -0.1981 -0.4586  0.1892
   16CHL1  H26A 1178   5.207   2.837   8.752  0.0756 -0.3946  0.2205
   16CHL1  H26B 1179   5.299   2.816   8.906  0.2377 -0.7598 -0.3511
   16CHL1  H26C 1180   5.207   2.676   8.832  1.0472 -0.5683  0.6735
   16CHL1   C27 1181   4.966   2.836   8.838 -0.4412 -0.2834  0.2154
   16CHL1  H27A 1182   4.872   2.855   8.894 -0.8943 -2.0391  0.0853
   16CHL1  H27B 1183   4.982   2.920   8.768 -1.9854 -0.1483 -0.0032
   16CHL1  H27C 1184   4.950   2.739   8.787 -0.4734 -0.5125  0.6504
   17CHL1    C3 1185   0.483   0.029  10.250  0.3245 -0.1960  0.0918
   17CHL1    H3 1186   0.396  -0.038  10.236  0.3023 -0.4775  1.4968
   17CHL1    O3 1187   0.514   0.024  10.388 -0.1940 -0.2028  0.7007
   17CHL1   H3' 1188   0.579   0.095  10.396  1.1483 -1.5109  1.8742
   17CHL1    C4 1189   0.602  -0.006  10.169 -0.0173  0.4127 -0.6467
   17CHL1   H4A 1190   0.679   0.074  10.166 -0.0819  0.4644 -0.9591
   17CHL1   H4B 1191   0.666  -0.086  10.211  0.5864  1.1555 -0.1336
   17CHL1    C5 1192   0.555  -0.021  10.024  0.7697 -0.4699  0.1607
   17CHL1    C6 1193   0.566  -0.134   9.946 -0.0161 -1.0228 -0.3015
   17CHL1    H6 1194   0.605  -0.229   9.986  0.3846 -2.2080 -3.2614
   17CHL1    C7 1195   0.537  -0.135   9.799 -0.2255 -0.4984 -0.1487
   17CHL1   H7A 1196   0.623  -0.188   9.754 -0.7947 -0.2684 -1.5796
   17CHL1   H7B 1197   0.456  -0.205   9.769  0.1629 -0.7613 -0.5804
   17CHL1    C8 1198   0.522   0.001   9.737 -0.4726 -0.3395 -0.2835
   17CHL1    H8 1199   0.625   0.042   9.726 -0.1095 -1.3501 -0.7030
   17CHL1   C14 1200   0.461   0.001   9.595  0.5082  0.1346 -0.3911
   17CHL1   H14 1201   0.364  -0.051   9.609  0.5339  0.5810  1.9300
   17CHL1   C15 1202   0.539  -0.079   9.486  0.2085 -0.1759  0.1126
   17CHL1  H15A 1203   0.645  -0.050   9.471  0.1775  1.1742  2.0778
   17CHL1  H15B 1204   0.536  -0.185   9.519 -0.5904 -0.6633 -1.4389
   17CHL1   C16 1205   0.459  -0.047   9.359 -0.2713 -0.3769 -0.3289
   17CHL1  H16A 1206   0.534  -0.007   9.287  0.3820  0.1162  0.6002
   17CHL1  H16B 1207   0.389  -0.122   9.316  1.4552 -1.3013 -1.6555
   17CHL1   C17 1208   0.372   0.083   9.395 -0.1964  0.1968 -0.5484
   17CHL1   H17 1209   0.276   0.040   9.430  0.1177  1.3226  1.9312
   17CHL1   C13 1210   0.431   0.135   9.534  0.2294  0.6218 -0.0200
   17CHL1   C18 1211   0.554   0.226   9.508 -0.3380 -0.0140  0.3478
   17CHL1  H18A 1212   0.625   0.218   9.593  0.4740  1.3268 -0.1823
   17CHL1  H18B 1213   0.598   0.195   9.410 -2.5109  2.3961 -1.5301
   17CHL1  H18C 1214   0.515   0.329   9.498  1.5258  0.6221 -0.9261
   17CHL1   C12 1215   0.328   0.210   9.629  0.3275 -0.3335  0.0210
   17CHL1  H12A 1216   0.303   0.312   9.591  2.9152  0.4011  0.1121
   17CHL1  H12B 1217   0.236   0.149   9.638 -0.1246  0.4540  0.8649
   17CHL1   C11 1218   0.400   0.224   9.763  0.0005  0.5556 -0.1446
   17CHL1  H11A 1219   0.477   0.303   9.763  1.0350 -0.4151  0.8826
   17CHL1  H11B 1220   0.328   0.266   9.836  1.0809  0.0499  1.2533
   17CHL1    C9 1221   0.439   0.089   9.835 -0.0848 -0.3298 -0.3595
   17CHL1    H9 1222   0.341   0.039   9.847 -0.5310  0.6373  0.1516
   17CHL1   C10 1223   0.507   0.111   9.974 -0.7516  0.2419 -0.1544
   17CHL1   C19 1224   0.629   0.207   9.953 -0.1948  0.1916  0.1170
   17CHL1  H19A 1225   0.583   0.308   9.957  0.0891  0.3291 -0.1069
   17CHL1  H19B 1226   0.713   0.197  10.024  1.6806 -0.3019 -2.0555
   17CHL1  H19C 1227   0.667   0.198   9.849 -1.4530  1.7283 -0.5264
   17CHL1    C1 1228   0.400   0.183  10.076 -0.1148  0.0889 -0.2704
   17CHL1   H1A 1229   0.382   0.285  10.036  1.9447  0.4311 -0.4491
   17CHL1   H1B 1230   0.313   0.115  10.064 -1.7846  2.3862 -2.1230
   17CHL1    C2 1231   0.444   0.172  10.222  0.0572 -0.0655 -0.2849
   17CHL1   H2A 1232   0.371   0.208  10.298 -0.3083  2.3019 -1.6697
   17CHL1   H2B 1233   0.534   0.233  10.243  1.0908 -0.6906 -2.5854
   17CHL1   C20 1234   0.346   0.181   9.281  0.1946  0.3321  0.0940
   17CHL1   H20 1235   0.436   0.245   9.269  0.1214  0.6786  1.2946
   17CHL1   C21 1236   0.231   0.276   9.323  0.0234 -0.4217 -0.0401
   17CHL1  H21A 1237   0.271   0.350   9.396 -1.4870 -0.0921  0.5074
   17CHL1  H21B 1238   0.152   0.212   9.370  0.0437 -0.3069  0.1500
   17CHL1  H21C 1239   0.191   0.331   9.235  2.8470  0.3208 -0.9364
   17CHL1   C22 1240   0.326   0.112   9.146  0.8614 -0.8526  0.4348
   17CHL1  H22A 1241   0.423   0.063   9.124  0.3208 -0.6457 -2.8643
   17CHL1  H22B 1242   0.245   0.036   9.146 -1.0472  1.0571  1.6120
   17CHL1   C23 1243   0.298   0.197   9.020 -0.3093 -0.1080  1.0553
   17CHL1  H23A 1244   0.197   0.243   9.032  0.9532  2.5047  2.3140
   17CHL1  H23B 1245   0.373   0.278   9.018 -2.0246  1.5648  0.3291
   17CHL1   C24 1246   0.293   0.118   8.890  0.1265 -0.0533 -0.1981
   17CHL1  H24A 1247   0.395   0.097   8.850 -0.1491  1.2684 -1.7260
   17CHL1  H24B 1248   0.243   0.022   8.913  2.7633 -0.9406  2.5200
   17CHL1   C25 1249   0.221   0.194   8.786 -0.3695  0.3282  0.4691
   17CHL1   H25 1250   0.130   0.243   8.826  1.2849  4.7943 -0.5709
   17CHL1   C26 1251   0.303   0.317   8.727 -0.0412  0.9861 -0.1998
   17CHL1  H26A 1252   0.241   0.354   8.642 -0.1065 -2.3125 -1.7228
   17CHL1  H26B 1253   0.324   0.395   8.804 -0.2208 -1.2805  2.2905
   17CHL1  H26C 1254   0.399   0.276   8.689  0.0163  1.4391 -0.5566
   17CHL1   C27 1255   0.178   0.100   8.672 -0.2771 -0.3481  0.0325
   17CHL1  H27A 1256   0.128   0.007   8.707 -2.7914  0.6755 -0.6741
   17CHL1  H27B 1257   0.098   0.146   8.610 -0.0897  0.0784  0.1035
   17CHL1  H27C 1258   0.259   0.075   8.600  0.4198  0.8585  0.3789
   18CHL1    C3 1259   5.599   5.149  10.380  0.4997 -0.6920 -0.0800
   18CHL1    H3 1260   5.683   5.078  10.397  1.8022  0.1500 -2.5883
   18CHL1    O3 1261   5.582   5.246  10.482  0.6076 -0.0461  0.1013
   18CHL1   H3' 1262   5.508   5.299  10.451  0.3691 -0.6178 -0.3436
   18CHL1    C4 1263   5.627   5.227  10.255  1.0418 -0.2476  0.5440
   18CHL1   H4A 1264   5.539   5.290  10.232  2.0625  1.0806  0.1057
   18CHL1   H4B 1265   5.709   5.301  10.269  1.0708 -0.3772  1.0811
   18CHL1    C5 1266   5.644   5.142  10.129 -0.0124 -0.1558 -0.3471
   18CHL1    C6 1267   5.748   5.155  10.053 -0.3402  0.5259 -0.0834
   18CHL1    H6 1268   5.829   5.223  10.083  0.5647 -0.4245 -0.2845
   18CHL1    C7 1269   5.774   5.084   9.927 -0.1400  0.4542 -0.7375
   18CHL1   H7A 1270   5.826   5.145   9.850  1.0193  0.5139  0.0605
   18CHL1   H7B 1271   5.846   5.004   9.954  1.0368  0.9463 -2.2979
   18CHL1    C8 1272   5.642   5.014   9.880 -0.2673  0.2834  0.4257
   18CHL1    H8 1273   5.574   5.091   9.837  0.0309  0.1525 -0.2901
   18CHL1   C14 1274   5.677   4.911   9.767  0.1000 -0.0244  0.5336
   18CHL1   H14 1275   5.751   4.845   9.817  2.2007  1.2518 -0.7561
   18CHL1   C15 1276   5.752   4.955   9.645  0.3880 -0.0012 -0.4412
   18CHL1  H15A 1277   5.702   5.039   9.592 -0.5729 -0.9003 -1.0147
   18CHL1  H15B 1278   5.858   4.971   9.671  0.0035 -1.5337  2.5836
   18CHL1   C16 1279   5.742   4.835   9.546  0.0848  0.1288 -1.1541
   18CHL1  H16A 1280   5.695   4.877   9.455 -0.9088  1.2469 -0.1502
   18CHL1  H16B 1281   5.841   4.786   9.534 -0.2248 -1.4157  1.6771
   18CHL1   C17 1282   5.628   4.740   9.598 -0.2701 -0.1289  0.8820
   18CHL1   H17 1283   5.696   4.671   9.652  0.4357  0.6298  0.9899
   18CHL1   C13 1284   5.554   4.828   9.707 -0.1588  0.6742 -0.6462
   18CHL1   C18 1285   5.451   4.918   9.638 -0.8968 -0.5693  0.5024
   18CHL1  H18A 1286   5.485   4.961   9.541 -0.7386  0.9933  1.2198
   18CHL1  H18B 1287   5.354   4.866   9.618  0.0749 -2.0787 -0.4997
   18CHL1  H18C 1288   5.428   5.003   9.705 -1.0214 -0.4642  0.3287
   18CHL1   C12 1289   5.485   4.754   9.823  0.2786  0.2222 -0.3107
   18CHL1  H12A 1290   5.401   4.690   9.788  0.0926  0.6946 -0.7339
   18CHL1  H12B 1291   5.558   4.681   9.864  0.6381  0.4445 -0.5563
   18CHL1   C11 1292   5.450   4.855   9.936  0.3354 -0.8860  0.2779
   18CHL1  H11A 1293   5.373   4.923   9.893  0.4082 -0.3870  0.9208
   18CHL1  H11B 1294   5.394   4.795  10.011 -2.0983 -2.8190 -2.8319
   18CHL1    C9 1295   5.570   4.940   9.990  0.5438 -0.4626 -0.1096
   18CHL1    H9 1296   5.647   4.879  10.040  1.1526  1.3589  1.2672
   18CHL1   C10 1297   5.525   5.046  10.103 -0.4566  0.2153 -0.3670
   18CHL1   C19 1298   5.391   5.110  10.056 -0.2262  0.2911  0.2859
   18CHL1  H19A 1299   5.348   5.184  10.128 -0.1245  0.5571  0.0750
   18CHL1  H19B 1300   5.417   5.164   9.962  1.1099 -1.1943 -0.2401
   18CHL1  H19C 1301   5.306   5.043  10.033 -0.7502  0.8252  0.6324
   18CHL1    C1 1302   5.513   4.969  10.236  0.4553 -0.2221  0.3411
   18CHL1   H1A 1303   5.431   4.895  10.223  1.0450 -0.8911  0.3670
   18CHL1   H1B 1304   5.600   4.907  10.266  0.5316 -0.3355 -0.1077
   18CHL1    C2 1305   5.483   5.058  10.361  0.1632  0.3843  0.7967
   18CHL1   H2A 1306   5.465   4.993  10.449 -0.3777  0.1131  0.4893
   18CHL1   H2B 1307   5.387   5.114  10.352 -0.0714 -0.2769 -1.3104
   18CHL1   C20 1308   5.536   4.679   9.489 -0.3012  0.4089  0.6598
   18CHL1   H20 1309   5.474   4.761   9.448 -3.0106 -1.8883 -0.1639
   18CHL1   C21 1310   5.447   4.578   9.550 -0.3757  0.0337  0.5557
   18CHL1  H21A 1311   5.355   4.595   9.610  0.3921  0.3149  1.6776
   18CHL1  H21B 1312   5.515   4.509   9.605  0.7527  0.2989 -0.4621
   18CHL1  H21C 1313   5.404   4.514   9.470 -1.9807 -1.1811  2.2987
   18CHL1   C22 1314   5.620   4.626   9.365 -0.9917 -0.5160  0.3667
   18CHL1  H22A 1315   5.671   4.716   9.325 -1.0559  0.4966  2.4572
   18CHL1  H22B 1316   5.709   4.566   9.396 -0.5483 -0.3311 -0.5165
   18CHL1   C23 1317   5.546   4.544   9.260  0.2551  1.4049  0.6260
   18CHL1  H23A 1318   5.511   4.442   9.286 -1.3787  1.6198 -0.5761
   18CHL1  H23B 1319   5.455   4.608   9.250 -0.6311  0.1413  0.4680
   18CHL1   C24 1320   5.605   4.543   9.122 -0.1210  0.5535  0.3630
   18CHL1  H24A 1321   5.527   4.496   9.058 -1.3496  3.6923 -0.5927
   18CHL1  H24B 1322   5.628   4.645   9.086  0.6914 -0.6050 -2.7754
   18CHL1   C25 1323   5.737   4.464   9.101 -0.2411  0.6687  0.0430
   18CHL1   H25 1324   5.819   4.518   9.154  1.3114 -0.1153 -1.4549
   18CHL1   C26 1325   5.738   4.305   9.137 -0.3008  0.1738 -0.1050
   18CHL1  H26A 1326   5.707   4.295   9.243  0.8940 -2.3211  0.0911
   18CHL1  H26B 1327   5.658   4.254   9.079 -1.2590  1.0801  0.3790
   18CHL1  H26C 1328   5.839   4.263   9.118 -0.1548  0.2648  0.4544
   18CHL1   C27 1329   5.785   4.475   8.959  0.2112 -0.2699  0.3812
   18CHL1  H27A 1330   5.798   4.578   8.918  1.2017 -0.3695  0.4159
   18CHL1  H27B 1331   5.890   4.440   8.970  0.5234 -0.3860 -2.2141
   18CHL1  H27C 1332   5.733   4.420   8.877 -0.3024  0.6679  0.0615
   19CHL1    C3 1333   4.753   1.197  10.303 -0.3582  0.1859  0.4534
   19CHL1    H3 1334   4.655   1.151  10.277  1.0760 -1.5606 -2.3016
   19CHL1    O3 1335   4.787   1.218  10.435 -0.6301 -0.1860  0.0272
   19CHL1   H3' 1336   4.865   1.274  10.435 -3.0457  3.5594  0.7654
   19CHL1    C4 1337   4.867   1.109  10.239  0.9036 -0.1495 -0.6178
   19CHL1   H4A 1338   4.968   1.154  10.249  1.1470 -0.2662 -2.2675
   19CHL1   H4B 1339   4.879   1.022  10.308  0.5346  1.7324  1.9869
   19CHL1    C5 1340   4.843   1.074  10.094 -0.6046 -0.4853  0.5041
   19CHL1    C6 1341   4.814   0.949  10.054 -0.1833  0.4531 -0.7914
   19CHL1    H6 1342   4.818   0.863  10.122  2.6438 -0.2233 -1.6669
   19CHL1    C7 1343   4.788   0.918   9.908 -0.3981 -0.3179  0.8246
   19CHL1   H7A 1344   4.855   0.836   9.874  1.5601  1.5744 -0.0487
   19CHL1   H7B 1345   4.687   0.879   9.882  0.4031 -1.5470 -0.6653
   19CHL1    C8 1346   4.822   1.030   9.809  0.2953 -0.2929  0.0934
   19CHL1    H8 1347   4.931   1.027   9.787  0.4403  1.2603  0.4692
   19CHL1   C14 1348   4.743   1.017   9.676  0.2376  0.3198 -0.0233
   19CHL1   H14 1349   4.637   1.020   9.710  0.4124 -1.3946  0.7998
   19CHL1   C15 1350   4.759   0.877   9.615 -0.0815  0.2089 -0.7303
   19CHL1  H15A 1351   4.857   0.828   9.634 -1.4627 -2.0414  1.0222
   19CHL1  H15B 1352   4.679   0.806   9.644 -0.7389  1.8967  1.9118
   19CHL1   C16 1353   4.739   0.902   9.467  0.5204 -0.2289 -0.1871
   19CHL1  H16A 1354   4.841   0.897   9.424  0.5910  0.1389 -0.0665
   19CHL1  H16B 1355   4.670   0.838   9.408 -1.5567  0.1393  1.6999
   19CHL1   C17 1356   4.686   1.046   9.458  0.0126 -0.2353  0.2772
   19CHL1   H17 1357   4.580   1.048   9.491 -0.2027  0.9015 -0.4235
   19CHL1   C13 1358   4.765   1.120   9.569  0.5550  0.5782 -0.7244
   19CHL1   C18 1359   4.914   1.127   9.528 -0.4432 -0.1221  0.6262
   19CHL1  H18A 1360   4.919   1.203   9.447 -1.0882 -1.6450 -0.9067
   19CHL1  H18B 1361   4.971   1.151   9.621  2.4726 -2.3906 -0.3923
   19CHL1  H18C 1362   4.961   1.035   9.486  1.2243  1.7639 -2.0415
   19CHL1   C12 1363   4.722   1.254   9.629 -0.7861  0.3054  0.5324
   19CHL1  H12A 1364   4.729   1.344   9.564 -0.6321  0.7568  1.1671
   19CHL1  H12B 1365   4.612   1.252   9.643 -0.5921  0.7100  2.2716
   19CHL1   C11 1366   4.789   1.286   9.760 -0.8541  0.1868 -0.0985
   19CHL1  H11A 1367   4.894   1.307   9.730 -0.6692 -2.9916 -2.1807
   19CHL1  H11B 1368   4.749   1.380   9.803  0.8762  0.6044  0.6909
   19CHL1    C9 1369   4.778   1.165   9.861 -0.2299  0.2355 -0.0287
   19CHL1    H9 1370   4.668   1.158   9.873 -0.0631 -0.2645  1.5272
   19CHL1   C10 1371   4.832   1.195  10.003 -0.2584  0.8342  0.8465
   19CHL1   C19 1372   4.965   1.268   9.980 -0.5010 -0.0174  0.7512
   19CHL1  H19A 1373   4.954   1.360   9.919  1.9340 -0.4660 -0.4767
   19CHL1  H19B 1374   5.004   1.300  10.079 -3.1805 -1.9155  2.5815
   19CHL1  H19C 1375   5.044   1.216   9.921 -1.9467 -0.9517 -0.4346
   19CHL1    C1 1376   4.737   1.306  10.076  0.4958 -0.4901  0.0580
   19CHL1   H1A 1377   4.744   1.404  10.023  2.6453  0.2617  1.5792
   19CHL1   H1B 1378   4.634   1.266  10.079  0.5851 -0.6639  1.3541
   19CHL1    C2 1379   4.764   1.333  10.225 -0.1453  0.1670 -0.4736
   19CHL1   H2A 1380   4.691   1.407  10.263 -2.6473 -3.6835  3.0399
   19CHL1   H2B 1381   4.865   1.376  10.241  0.3890 -0.3609 -2.1991
   19CHL1   C20 1382   4.693   1.102   9.313  0.1504 -0.7742 -0.0529
   19CHL1   H20 1383   4.798   1.124   9.285  0.2611  3.2077  2.6787
   19CHL1   C21 1384   4.626   1.241   9.318  0.4698 -0.1365 -0.1094
   19CHL1  H21A 1385   4.699   1.319   9.345  0.1044  0.8648 -1.8734
   19CHL1  H21B 1386   4.552   1.240   9.401 -0.6800 -2.1282 -1.0527
   19CHL1  H21C 1387   4.581   1.261   9.218 -1.1029 -0.9424  0.3970
   19CHL1   C22 1388   4.630   1.008   9.205  0.0498 -1.3940  0.4820
   19CHL1  H22A 1389   4.679   0.908   9.204  0.6323 -1.1094 -0.3114
   19CHL1  H22B 1390   4.521   1.003   9.228  0.0299  0.9390  1.1125
   19CHL1   C23 1391   4.634   1.062   9.056  0.6155 -0.1023 -0.1228
   19CHL1  H23A 1392   4.553   1.135   9.033 -0.4204 -1.6497 -1.6505
   19CHL1  H23B 1393   4.733   1.107   9.033  0.2656  1.5824  1.4072
   19CHL1   C24 1394   4.607   0.948   8.954  0.2206  0.7179  0.1503
   19CHL1  H24A 1395   4.671   0.860   8.974 -1.4216 -0.7261 -0.7060
   19CHL1  H24B 1396   4.503   0.915   8.973 -0.1014  0.7849 -1.3438
   19CHL1   C25 1397   4.617   0.992   8.809  0.0862 -0.0979 -0.3527
   19CHL1   H25 1398   4.564   1.088   8.791 -0.2963 -0.2020  0.1838
   19CHL1   C26 1399   4.764   1.035   8.777 -0.0843 -0.2034 -0.2820
   19CHL1  H26A 1400   4.779   1.133   8.827  0.8682 -1.0179  1.1136
   19CHL1  H26B 1401   4.844   0.969   8.817 -0.3481  0.7565  1.9588
   19CHL1  H26C 1402   4.769   1.039   8.666 -2.4771 -0.4571 -0.4726
   19CHL1   C27 1403   4.576   0.876   8.724 -0.5955  0.4762  0.7508
   19CHL1  H27A 1404   4.622   0.782   8.760 -1.1570  0.4549  1.4190
   19CHL1  H27B 1405   4.467   0.858   8.729 -0.3849 -1.5772 -0.7136
   19CHL1  H27C 1406   4.604   0.879   8.616  3.0280  0.2532  1.5458
   20CHL1    C3 1407   5.188   0.606  10.089  0.5376 -0.2238  0.0726
   20CHL1    H3 1408   5.116   0.532  10.048  0.3308 -0.8867  1.5989
   20CHL1    O3 1409   5.198   0.605  10.230  0.2204  0.8957  0.2711
   20CHL1   H3' 1410   5.119   0.647  10.263  0.5346  1.0285  0.8636
   20CHL1    C4 1411   5.324   0.575  10.019 -0.0113 -0.0452 -0.0655
   20CHL1   H4A 1412   5.397   0.645  10.066  1.4361  0.1839 -2.4889
   20CHL1   H4B 1413   5.359   0.471  10.035  2.8966  0.8128 -0.3078
   20CHL1    C5 1414   5.323   0.594   9.867  0.2096  0.0964  0.9210
   20CHL1    C6 1415   5.340   0.495   9.772  0.4700  0.4360  0.1200
   20CHL1    H6 1416   5.359   0.390   9.799 -0.5097 -0.1959 -1.4907
   20CHL1    C7 1417   5.336   0.515   9.628  0.3158  0.5364  0.1025
   20CHL1   H7A 1418   5.430   0.483   9.579  0.2485  0.4565  0.0248
   20CHL1   H7B 1419   5.241   0.473   9.589  0.7749  1.2926 -1.9461
   20CHL1    C8 1420   5.341   0.666   9.584 -1.0831  0.1083 -0.1192
   20CHL1    H8 1421   5.443   0.709   9.588 -0.1742 -2.0015  1.2638
   20CHL1   C14 1422   5.290   0.680   9.440 -0.4855  0.2627  0.6316
   20CHL1   H14 1423   5.186   0.640   9.439 -0.7291  0.8913  0.1039
   20CHL1   C15 1424   5.364   0.608   9.324  0.1986 -0.3204 -0.5843
   20CHL1  H15A 1425   5.472   0.634   9.329 -0.0402  1.4260 -2.6692
   20CHL1  H15B 1426   5.345   0.499   9.317 -3.6345  0.2632 -1.5911
   20CHL1   C16 1427   5.302   0.653   9.200  0.0491  0.0786  0.6118
   20CHL1  H16A 1428   5.383   0.663   9.125 -1.2844 -0.6453 -0.9654
   20CHL1  H16B 1429   5.223   0.586   9.160 -0.7013  0.0381  2.0864
   20CHL1   C17 1430   5.229   0.788   9.237  0.1329  0.0758 -0.1445
   20CHL1   H17 1431   5.123   0.759   9.252  0.4041 -0.1870  1.4475
   20CHL1   C13 1432   5.267   0.824   9.380 -0.8474  0.4792  0.2523
   20CHL1   C18 1433   5.399   0.903   9.380 -0.1630  0.3195  0.0277
   20CHL1  H18A 1434   5.470   0.861   9.304 -0.2268 -1.6679  0.9999
   20CHL1  H18B 1435   5.372   1.008   9.359 -0.1168  0.3897  0.3263
   20CHL1  H18C 1436   5.455   0.897   9.476 -1.0826 -2.3980  0.4880
   20CHL1   C12 1437   5.160   0.889   9.463  0.7156 -0.3426  0.1246
   20CHL1  H12A 1438   5.158   0.996   9.432  1.0391 -0.8420 -1.7736
   20CHL1  H12B 1439   5.060   0.840   9.462  0.7527 -0.5264  1.8523
   20CHL1   C11 1440   5.197   0.887   9.615  0.0009  0.0521  0.5469
   20CHL1  H11A 1441   5.275   0.965   9.632  1.4916 -0.5455 -2.6817
   20CHL1  H11B 1442   5.110   0.925   9.673 -0.4888 -0.7941  0.3764
   20CHL1    C9 1443   5.244   0.748   9.666  0.0215  0.2107 -0.4644
   20CHL1    H9 1444   5.151   0.689   9.658 -1.4270  2.3882 -0.6162
   20CHL1   C10 1445   5.278   0.737   9.818  0.6635 -0.3241 -0.4555
   20CHL1   C19 1446   5.386   0.853   9.852  0.6326  0.0929 -0.1481
   20CHL1  H19A 1447   5.484   0.834   9.802  0.8444  0.5825  0.0730
   20CHL1  H19B 1448   5.350   0.954   9.823  0.1096 -1.0236 -3.9290
   20CHL1  H19C 1449   5.401   0.857   9.962  2.0767 -0.5901 -0.2948
   20CHL1    C1 1450   5.136   0.768   9.894  0.2879  0.1055  0.6254
   20CHL1   H1A 1451   5.108   0.873   9.868  0.2728 -0.1483 -0.4486
   20CHL1   H1B 1452   5.053   0.711   9.847 -0.0530 -0.7233  2.1837
   20CHL1    C2 1453   5.145   0.751  10.044  0.2884 -0.4035 -0.5939
   20CHL1   H2A 1454   5.047   0.787  10.084  0.4468  1.2272 -1.5981
   20CHL1   H2B 1455   5.225   0.815  10.086 -1.9044  0.7108  2.2177
   20CHL1   C20 1456   5.239   0.888   9.118  0.3027  0.2985 -0.3074
   20CHL1   H20 1457   5.346   0.908   9.098  0.1586  0.4483 -0.9307
   20CHL1   C21 1458   5.179   1.026   9.162  0.4216  0.8141 -0.3063
   20CHL1  H21A 1459   5.154   1.092   9.076 -0.8860  3.6093  2.0622
   20CHL1  H21B 1460   5.247   1.079   9.231  2.1268 -0.2234 -1.1281
   20CHL1  H21C 1461   5.079   1.007   9.207  0.2357  0.5173 -0.8353
   20CHL1   C22 1462   5.163   0.833   8.996 -0.1689  0.2466  0.5662
   20CHL1  H22A 1463   5.196   0.728   8.981 -2.6180 -0.8272  2.1451
   20CHL1  H22B 1464   5.055   0.832   9.020 -0.7857 -4.0347 -1.3636
   20CHL1   C23 1465   5.197   0.903   8.863  0.2396  0.1061 -0.0641
   20CHL1  H23A 1466   5.173   1.012   8.872 -1.8327 -0.3900  1.2242
   20CHL1  H23B 1467   5.307   0.894   8.853  0.0737 -2.8434  0.0347
   20CHL1   C24 1468   5.136   0.838   8.742 -0.1046  0.0574 -0.1724
   20CHL1  H24A 1469   5.169   0.732   8.735  0.5672  0.2935 -0.6626
   20CHL1  H24B 1470   5.025   0.843   8.739 -0.0208  3.1257 -0.5989
   20CHL1   C25 1471   5.192   0.892   8.603 -0.0252  0.4909 -0.4448
   20CHL1   H25 1472   5.301   0.895   8.625 -0.5799 -1.5204  3.4482
   20CHL1   C26 1473   5.162   0.789   8.493 -0.1961  0.1671  0.8229
   20CHL1  H26A 1474   5.209   0.815   8.397  1.0624 -1.8774  0.8285
   20CHL1  H26B 1475   5.198   0.689   8.525  2.1085  0.9009  0.6987
   20CHL1  H26C 1476   5.052   0.781   8.478  0.0011  0.9753 -1.2481
   20CHL1   C27 1477   5.139   1.027   8.567  0.9754  0.2255 -0.3066
   20CHL1  H27A 1478   5.185   1.075   8.478  0.4200  0.4690 -0.4667
   20CHL1  H27B 1479   5.028   1.019   8.568  0.8170  1.9003 -0.9662
   20CHL1  H27C 1480   5.156   1.091   8.656 -1.7769 -1.0407  1.2975
   21CHL1    C3 1481   4.960   4.861  10.347 -1.0165 -0.1695 -1.0242
   21CHL1    H3 1482   4.911   4.957  10.322 -1.5086  0.5455  2.2870
   21CHL1    O3 1483   4.980   4.870  10.489 -0.8261  0.8722 -0.2142
   21CHL1   H3' 1484   5.076   4.872  10.492 -0.8270  0.8110 -0.1382
   21CHL1    C4 1485   4.883   4.734  10.318 -0.3552 -0.7511  0.2602
   21CHL1   H4A 1486   4.937   4.640  10.341 -2.0665 -1.4972  1.3638
   21CHL1   H4B 1487   4.786   4.742  10.370  0.2647 -1.7207  1.6278
   21CHL1    C5 1488   4.868   4.733  10.161  0.6203 -0.1567 -0.3587
   21CHL1    C6 1489   4.743   4.745  10.100 -0.1052  0.4309 -0.1132
   21CHL1    H6 1490   4.648   4.741  10.155  0.1764 -1.7466  0.3216
   21CHL1    C7 1491   4.729   4.730   9.951  0.4664 -0.2449 -0.0490
   21CHL1   H7A 1492   4.652   4.655   9.921  0.7720 -0.1680 -1.0645
   21CHL1   H7B 1493   4.697   4.829   9.909 -0.2960 -1.4488 -2.5265
   21CHL1    C8 1494   4.857   4.699   9.869  0.7224 -0.4846  0.9728
   21CHL1    H8 1495   4.873   4.590   9.878  1.0963 -0.4676  0.5478
   21CHL1   C14 1496   4.842   4.733   9.721 -0.7196 -0.4698  0.6914
   21CHL1   H14 1497   4.843   4.844   9.724  2.0238 -0.4295  0.6888
   21CHL1   C15 1498   4.712   4.700   9.653 -0.1714 -0.0406 -0.2918
   21CHL1  H15A 1499   4.692   4.593   9.678 -0.6225  0.0944 -0.0680
   21CHL1  H15B 1500   4.625   4.760   9.688 -1.1155 -2.5563  2.0507
   21CHL1   C16 1501   4.751   4.703   9.494 -0.0139 -0.2562  0.7263
   21CHL1  H16A 1502   4.747   4.597   9.462  2.0430 -0.0039 -0.5403
   21CHL1  H16B 1503   4.690   4.769   9.429 -1.1685 -0.6926  1.3261
   21CHL1   C17 1504   4.900   4.734   9.491  0.4341  0.5706 -0.4967
   21CHL1   H17 1505   4.902   4.845   9.493  1.5076  0.6273 -2.4102
   21CHL1   C13 1506   4.959   4.698   9.633  0.3295  0.2210 -0.4716
   21CHL1   C18 1507   4.979   4.543   9.650 -0.3316  0.2680  0.0670
   21CHL1  H18A 1508   5.060   4.513   9.579  1.6034 -0.9580  2.6175
   21CHL1  H18B 1509   5.008   4.512   9.752 -0.4655 -0.6889 -0.1742
   21CHL1  H18C 1510   4.889   4.483   9.625  0.2269 -0.8507  0.6673
   21CHL1   C12 1511   5.079   4.778   9.691 -0.2558  0.2100 -0.7071
   21CHL1  H12A 1512   5.170   4.750   9.634 -0.6672  1.2489 -1.9527
   21CHL1  H12B 1513   5.071   4.888   9.677 -1.9216  0.1567 -0.4278
   21CHL1   C11 1514   5.107   4.739   9.844  0.0493 -0.4782 -0.0198
   21CHL1  H11A 1515   5.131   4.631   9.847 -2.3842 -1.1183 -0.6716
   21CHL1  H11B 1516   5.200   4.794   9.866  0.2894 -0.4158 -1.1014
   21CHL1    C9 1517   4.977   4.768   9.930  0.1675 -0.6936  0.3829
   21CHL1    H9 1518   4.962   4.878   9.927 -0.6782 -0.7060  2.4283
   21CHL1   C10 1519   5.001   4.746  10.083  1.0773 -0.0029 -0.1843
   21CHL1   C19 1520   5.074   4.608  10.100 -0.2461  0.1083  0.1403
   21CHL1  H19A 1521   5.175   4.608  10.054  0.1387 -0.5922  0.9503
   21CHL1  H19B 1522   5.093   4.590  10.208  1.7537 -1.0894 -0.3658
   21CHL1  H19C 1523   5.009   4.526  10.063 -3.4263  0.8382  3.5264
   21CHL1    C1 1524   5.092   4.860  10.135  0.1185  0.1220  0.1151
   21CHL1   H1A 1525   5.190   4.855  10.082 -1.4559 -1.3249 -2.9237
   21CHL1   H1B 1526   5.038   4.952  10.106 -0.1428  0.1087  0.5643
   21CHL1    C2 1527   5.104   4.867  10.283 -0.2501 -0.0784 -0.5291
   21CHL1   H2A 1528   5.152   4.959  10.322  0.3480  0.7715 -3.1323
   21CHL1   H2B 1529   5.170   4.785  10.319  0.3366  0.6957  0.1996
   21CHL1   C20 1530   4.968   4.689   9.368  0.3462  0.1715  0.7461
   21CHL1   H20 1531   4.950   4.581   9.351 -2.0187  0.2641  2.1670
   21CHL1   C21 1532   5.119   4.713   9.378 -0.1080  0.4107  0.0472
   21CHL1  H21A 1533   5.164   4.645   9.453 -1.6739  0.1725  0.8213
   21CHL1  H21B 1534   5.138   4.818   9.408 -3.6423  0.1381  4.3234
   21CHL1  H21C 1535   5.171   4.691   9.283  0.2954 -0.7331  0.5172
   21CHL1   C22 1536   4.910   4.760   9.237  0.1580  0.3784  0.2790
   21CHL1  H22A 1537   4.801   4.742   9.222  0.2350 -0.0403  0.2108
   21CHL1  H22B 1538   4.935   4.867   9.246  0.4384  0.5181 -1.6418
   21CHL1   C23 1539   4.968   4.700   9.114  0.5637 -0.4022 -0.3881
   21CHL1  H23A 1540   5.077   4.722   9.111  0.6155 -0.7171 -1.6485
   21CHL1  H23B 1541   4.949   4.590   9.117  0.8995 -0.4835  3.2556
   21CHL1   C24 1542   4.912   4.758   8.983  0.4810 -0.6283  0.8529
   21CHL1  H24A 1543   4.802   4.743   8.985  0.0905  1.8377  0.3336
   21CHL1  H24B 1544   4.931   4.866   9.000  1.6384 -0.6942  0.1114
   21CHL1   C25 1545   4.979   4.709   8.849 -0.2075  0.9292 -0.0701
   21CHL1   H25 1546   5.085   4.741   8.852 -0.5330  2.0723 -0.2534
   21CHL1   C26 1547   4.970   4.557   8.837  0.2775  0.1579  0.1021
   21CHL1  H26A 1548   5.006   4.529   8.736  1.0501  1.3462  0.0355
   21CHL1  H26B 1549   5.036   4.503   8.909 -0.5043 -1.1830 -0.1371
   21CHL1  H26C 1550   4.867   4.514   8.845  0.2886 -0.0715 -0.8575
   21CHL1   C27 1551   4.908   4.782   8.728  0.0349 -0.5872  0.0036
   21CHL1  H27A 1552   4.801   4.753   8.726 -0.9227  2.5887 -1.3629
   21CHL1  H27B 1553   4.920   4.891   8.739  0.1571 -0.7605  1.9544
   21CHL1  H27C 1554   4.961   4.758   8.634  1.5251 -3.7223  1.4817
   22CHL1    C3 1555   3.017   6.556   9.915  0.0416 -0.7924 -0.2013
   22CHL1    H3 1556   2.922   6.604   9.884 -0.5348 -1.0512  1.0862
   22CHL1    O3 1557   3.028   6.568  10.059 -0.0156 -0.2652  0.3810
   22CHL1   H3' 1558   3.088   6.642  10.070  0.2541 -0.1734 -1.3999
   22CHL1    C4 1559   3.011   6.408   9.878 -0.3714  0.4163  0.6679
   22CHL1   H4A 1560   3.093   6.351   9.928  0.0392  0.8607  0.5152
   22CHL1   H4B 1561   2.919   6.371   9.927  0.4206 -3.3117 -0.3984
   22CHL1    C5 1562   3.011   6.386   9.724 -0.0490 -0.2611 -0.7137
   22CHL1    C6 1563   2.914   6.315   9.668 -0.6921 -0.9861  0.1373
   22CHL1    H6 1564   2.829   6.276   9.726 -2.4794  1.9196 -0.3294
   22CHL1    C7 1565   2.930   6.267   9.527 -0.9219  0.5317 -0.2636
   22CHL1   H7A 1566   2.915   6.157   9.524  0.4873  0.2334  1.7453
   22CHL1   H7B 1567   2.851   6.316   9.465 -1.6838 -0.0534  0.2265
   22CHL1    C8 1568   3.069   6.308   9.461  0.3161  0.2093 -0.3818
   22CHL1    H8 1569   3.141   6.229   9.491 -1.4726 -2.3053 -2.2494
   22CHL1   C14 1570   3.063   6.295   9.313  0.1126  0.2584 -0.5668
   22CHL1   H14 1571   3.000   6.379   9.276  0.2721 -0.7291 -3.3436
   22CHL1   C15 1572   3.015   6.159   9.251 -0.3239 -0.3845 -0.2899
   22CHL1  H15A 1573   3.066   6.075   9.304 -1.3044 -0.6374  0.2706
   22CHL1  H15B 1574   2.907   6.138   9.264  0.0071 -2.4604 -0.5188
   22CHL1   C16 1575   3.068   6.160   9.108 -0.2670  0.6861  0.2187
   22CHL1  H16A 1576   3.129   6.069   9.089 -0.2161  0.8096 -0.2128
   22CHL1  H16B 1577   2.983   6.163   9.037  0.1210 -0.4979 -0.3267
   22CHL1   C17 1578   3.158   6.288   9.088  0.5561  0.4840 -0.6361
   22CHL1   H17 1579   3.082   6.359   9.047  0.9817  0.7132 -1.0316
   22CHL1   C13 1580   3.193   6.326   9.234  0.5040  0.0712  0.7332
   22CHL1   C18 1581   3.301   6.231   9.291  0.0088 -0.2888  0.1330
   22CHL1  H18A 1582   3.390   6.251   9.227 -0.3395 -2.0490 -0.9928
   22CHL1  H18B 1583   3.350   6.264   9.384  2.2009 -0.4675 -0.9012
   22CHL1  H18C 1584   3.272   6.124   9.293 -0.6961 -0.0947  1.3478
   22CHL1   C12 1585   3.224   6.469   9.262 -0.4953 -0.2675  1.0694
   22CHL1  H12A 1586   3.318   6.506   9.216 -1.6599  0.7955 -0.5894
   22CHL1  H12B 1587   3.146   6.537   9.222  2.3988  2.7193  0.0616
   22CHL1   C11 1588   3.241   6.496   9.414  0.3559  0.4947  0.0506
   22CHL1  H11A 1589   3.336   6.448   9.446 -0.1584 -0.3441  0.3672
   22CHL1  H11B 1590   3.271   6.603   9.415 -0.1069  0.6468  2.0747
   22CHL1    C9 1591   3.115   6.449   9.501  0.3890  0.5379  0.5213
   22CHL1    H9 1592   3.034   6.514   9.461  0.1102 -1.0073 -1.6347
   22CHL1   C10 1593   3.128   6.458   9.655  0.8880  0.2506  0.3624
   22CHL1   C19 1594   3.256   6.381   9.697  0.0241  0.4440 -0.9318
   22CHL1  H19A 1595   3.349   6.427   9.656 -0.6092  0.4588 -2.4171
   22CHL1  H19B 1596   3.261   6.393   9.808 -0.4259  1.1709 -0.9876
   22CHL1  H19C 1597   3.249   6.276   9.661 -1.4166  0.4698 -0.7828
   22CHL1    C1 1598   3.133   6.604   9.691 -0.4008  0.1525  0.3578
   22CHL1   H1A 1599   3.215   6.663   9.646 -0.9563 -0.0617 -0.9644
   22CHL1   H1B 1600   3.042   6.646   9.642  0.2689 -0.4791 -1.5057
   22CHL1    C2 1601   3.137   6.622   9.850  0.1116  0.1863  0.7346
   22CHL1   H2A 1602   3.147   6.729   9.879  1.3916 -0.7634  4.3552
   22CHL1   H2B 1603   3.233   6.584   9.890  0.7520  1.6257  0.6221
   22CHL1   C20 1604   3.261   6.277   8.976 -0.2309  0.5191 -0.3429
   22CHL1   H20 1605   3.331   6.196   9.002 -0.2958  0.3662 -0.6410
   22CHL1   C21 1606   3.340   6.407   8.951  0.0869 -0.3917 -0.6687
   22CHL1  H21A 1607   3.278   6.498   8.939 -0.2899 -0.4425  0.7833
   22CHL1  H21B 1608   3.390   6.391   8.853 -1.2774  1.6228 -1.7596
   22CHL1  H21C 1609   3.413   6.409   9.035  0.7179 -0.5992 -1.2018
   22CHL1   C22 1610   3.196   6.229   8.842  0.0136 -0.1231 -0.3941
   22CHL1  H22A 1611   3.282   6.232   8.772  0.8256  0.0754  0.5712
   22CHL1  H22B 1612   3.164   6.124   8.861  2.4094 -0.7478  0.6869
   22CHL1   C23 1613   3.071   6.303   8.780  0.3165  0.4392  0.3132
   22CHL1  H23A 1614   2.991   6.316   8.855 -2.7670  2.5923 -3.0058
   22CHL1  H23B 1615   3.087   6.411   8.760 -0.9951  0.6301  0.2247
   22CHL1   C24 1616   3.035   6.244   8.637  0.4102  0.0692 -0.0921
   22CHL1  H24A 1617   3.059   6.135   8.631 -1.6316 -0.4808  0.9124
   22CHL1  H24B 1618   2.925   6.250   8.630  0.2923  0.1268  1.4881
   22CHL1   C25 1619   3.092   6.317   8.518  0.0856  0.5240  0.1903
   22CHL1   H25 1620   3.063   6.424   8.527  1.0403  0.7796  0.3379
   22CHL1   C26 1621   3.246   6.304   8.514 -0.2415  0.0835  1.2142
   22CHL1  H26A 1622   3.283   6.341   8.612 -1.1217  2.5247  0.7168
   22CHL1  H26B 1623   3.289   6.213   8.467  0.7002  2.6719 -3.6935
   22CHL1  H26C 1624   3.286   6.380   8.443  0.2331 -0.4619  0.8915
   22CHL1   C27 1625   3.024   6.270   8.393 -0.5578 -0.1332 -0.1376
   22CHL1  H27A 1626   2.915   6.253   8.404 -0.7291 -0.8167 -2.3807
   22CHL1  H27B 1627   3.037   6.348   8.316  0.6556  0.2594  0.4419
   22CHL1  H27C 1628   3.073   6.175   8.364  1.4298  0.9901 -0.6231
   23CHL1    C3 1629   1.838   0.662  10.360 -0.3726  0.8962 -0.3714
   23CHL1    H3 1630   1.735   0.627  10.383  0.2782 -1.2645 -0.4994
   23CHL1    O3 1631   1.902   0.700  10.482  0.7198 -0.3318  0.0385
   23CHL1   H3' 1632   1.866   0.640  10.548 -0.8315 -1.9508 -2.1439
   23CHL1    C4 1633   1.911   0.538  10.311  0.7412 -0.9332  0.0302
   23CHL1   H4A 1634   2.021   0.552  10.311  0.5176  1.0801  0.3418
   23CHL1   H4B 1635   1.890   0.455  10.382 -0.3479 -1.0227 -0.3744
   23CHL1    C5 1636   1.874   0.493  10.175  0.2481 -0.2595 -0.0395
   23CHL1    C6 1637   1.841   0.371  10.137  0.3429  0.5463 -0.2847
   23CHL1    H6 1638   1.845   0.293  10.215 -0.9261  1.1467  0.4245
   23CHL1    C7 1639   1.827   0.321   9.997  0.1180  0.1651 -0.3179
   23CHL1   H7A 1640   1.876   0.223   9.981 -0.4312  0.1088 -1.8034
   23CHL1   H7B 1641   1.718   0.297   9.991 -0.0935  0.3233  2.0979
   23CHL1    C8 1642   1.873   0.425   9.885 -0.7746 -0.1369 -0.2228
   23CHL1    H8 1643   1.983   0.411   9.880 -0.9059 -1.3336 -0.0019
   23CHL1   C14 1644   1.807   0.385   9.747  0.3399  0.9832 -0.3700
   23CHL1   H14 1645   1.700   0.407   9.762  0.1984 -0.0381  0.2128
   23CHL1   C15 1646   1.805   0.231   9.712 -0.1757  0.3424  0.3671
   23CHL1  H15A 1647   1.904   0.194   9.743  0.7717  2.1677 -0.3287
   23CHL1  H15B 1648   1.714   0.181   9.753  0.3067 -0.3651  0.5975
   23CHL1   C16 1649   1.797   0.240   9.556 -0.3403 -0.1105 -0.4112
   23CHL1  H16A 1650   1.881   0.187   9.506  0.5204  1.3632 -0.5867
   23CHL1  H16B 1651   1.701   0.196   9.522 -0.3737  0.1376 -0.6400
   23CHL1   C17 1652   1.793   0.391   9.515  0.0920 -0.5454 -1.0018
   23CHL1   H17 1653   1.685   0.416   9.522  0.0003 -0.8263 -1.3620
   23CHL1   C13 1654   1.863   0.466   9.631  0.1840 -0.8196  0.1600
   23CHL1   C18 1655   2.010   0.457   9.616  0.2675  0.7205 -0.7087
   23CHL1  H18A 1656   2.043   0.515   9.527 -0.7823  1.7387 -0.4691
   23CHL1  H18B 1657   2.065   0.499   9.703 -0.2663  0.5696 -0.2944
   23CHL1  H18C 1658   2.032   0.349   9.605 -1.4920  0.4031 -1.3966
   23CHL1   C12 1659   1.807   0.613   9.668 -0.7069 -0.9590  0.9476
   23CHL1  H12A 1660   1.846   0.692   9.601 -0.2026  0.4329  2.8203
   23CHL1  H12B 1661   1.696   0.608   9.669 -0.7454 -1.2225 -1.0395
   23CHL1   C11 1662   1.854   0.664   9.804 -0.5930  0.7772 -0.1362
   23CHL1  H11A 1663   1.963   0.687   9.802 -0.0511 -0.3645  4.2815
   23CHL1  H11B 1664   1.808   0.762   9.828 -5.7073 -1.6218  1.0513
   23CHL1    C9 1665   1.828   0.564   9.918 -0.2968  0.0600 -0.1421
   23CHL1    H9 1666   1.717   0.557   9.921 -0.2472 -0.7830  0.2432
   23CHL1   C10 1667   1.878   0.608  10.063 -0.6178 -0.3905 -0.6526
   23CHL1   C19 1668   2.029   0.637  10.051  0.2384 -0.0370  0.0198
   23CHL1  H19A 1669   2.083   0.640  10.148  0.4965  0.6703 -0.1324
   23CHL1  H19B 1670   2.082   0.567   9.982 -0.1080  0.8894 -1.2185
   23CHL1  H19C 1671   2.034   0.741  10.013 -3.1155  0.4120  0.5279
   23CHL1    C1 1672   1.793   0.726  10.112  0.1942  0.1330 -0.6915
   23CHL1   H1A 1673   1.792   0.801  10.031 -1.9675  0.3817 -0.4883
   23CHL1   H1B 1674   1.689   0.686  10.112  0.0340  0.5340  0.0076
   23CHL1    C2 1675   1.839   0.772  10.255 -0.4759  0.1914  0.1716
   23CHL1   H2A 1676   1.782   0.863  10.283 -1.9764 -0.9384  0.9137
   23CHL1   H2B 1677   1.945   0.807  10.254  0.0109 -1.1893 -2.0723
   23CHL1   C20 1678   1.822   0.422   9.372 -0.1325 -0.5237  0.4071
   23CHL1   H20 1679   1.926   0.391   9.351 -0.0406 -0.2158  0.4022
   23CHL1   C21 1680   1.810   0.569   9.341  0.4737 -0.1079 -0.1342
   23CHL1  H21A 1681   1.865   0.592   9.247  3.4071  1.6389  1.8440
   23CHL1  H21B 1682   1.867   0.632   9.412  0.7663 -0.0990 -0.3766
   23CHL1  H21C 1683   1.702   0.595   9.341  0.1567 -1.1822  1.7835
   23CHL1   C22 1684   1.727   0.343   9.276 -0.0221 -0.0334  0.1022
   23CHL1  H22A 1685   1.752   0.236   9.296 -0.6415  0.3709  3.6482
   23CHL1  H22B 1686   1.627   0.355   9.324 -0.1898 -2.5916  0.5878
   23CHL1   C23 1687   1.745   0.387   9.130 -0.2606  0.1095 -0.1919
   23CHL1  H23A 1688   1.670   0.338   9.064  2.0358 -1.0933 -2.0779
   23CHL1  H23B 1689   1.727   0.496   9.114 -0.6100 -0.3270 -3.4859
   23CHL1   C24 1690   1.887   0.348   9.078  0.0426  0.0588  0.3085
   23CHL1  H24A 1691   1.970   0.400   9.131  1.4427 -1.5483 -0.1867
   23CHL1  H24B 1692   1.913   0.242   9.098 -0.3817  0.3763  2.7445
   23CHL1   C25 1693   1.902   0.362   8.921 -0.0144 -0.2050 -0.2945
   23CHL1   H25 1694   1.837   0.287   8.871 -2.5490  0.5965  1.6197
   23CHL1   C26 1695   1.860   0.499   8.870  0.5952  0.0874  0.9510
   23CHL1  H26A 1696   1.868   0.495   8.759  1.2847 -1.7402  1.0299
   23CHL1  H26B 1697   1.755   0.529   8.891  1.3234  2.2730  1.7139
   23CHL1  H26C 1698   1.929   0.575   8.912 -0.7411  3.0067 -1.6874
   23CHL1   C27 1699   2.049   0.332   8.879  0.0468 -0.0149 -0.1620
   23CHL1  H27A 1700   2.063   0.223   8.897 -1.4267 -0.2588 -0.3507
   23CHL1  H27B 1701   2.064   0.342   8.769 -0.6203  0.2848 -0.2280
   23CHL1  H27C 1702   2.111   0.406   8.934 -0.7870  0.8744 -0.3817
   24CHL1    C3 1703   5.421   1.503  10.150  0.1098  0.5340  1.0424
   24CHL1    H3 1704   5.317   1.526  10.118 -0.2753 -1.9258  0.2830
   24CHL1    O3 1705   5.429   1.469  10.293  0.1841 -0.4914  0.3793
   24CHL1   H3' 1706   5.516   1.429  10.294  0.5422 -0.0323 -2.6137
   24CHL1    C4 1707   5.458   1.369  10.082  0.0872 -0.0720  0.6297
   24CHL1   H4A 1708   5.556   1.344  10.129  0.5380  0.0734 -0.2075
   24CHL1   H4B 1709   5.384   1.294  10.116  0.4149 -1.7478 -2.0276
   24CHL1    C5 1710   5.472   1.377   9.933 -0.0644  0.5712 -0.2048
   24CHL1    C6 1711   5.403   1.290   9.856  0.1236 -0.9321  1.0005
   24CHL1    H6 1712   5.341   1.210   9.900 -1.4452  1.8182  4.2627
   24CHL1    C7 1713   5.414   1.295   9.705 -0.4619  0.6338  0.3105
   24CHL1   H7A 1714   5.413   1.197   9.653 -1.1595  2.4986 -3.5260
   24CHL1   H7B 1715   5.322   1.336   9.658 -0.4850 -1.0664 -1.2584
   24CHL1    C8 1716   5.532   1.381   9.647 -1.0072  0.0148  0.2247
   24CHL1    H8 1717   5.628   1.328   9.662 -0.5800 -0.3647 -3.1125
   24CHL1   C14 1718   5.507   1.411   9.498 -0.0233  0.4951  0.9919
   24CHL1   H14 1719   5.417   1.475   9.500  0.3314  1.0354  0.3473
   24CHL1   C15 1720   5.476   1.292   9.399  0.3085  0.4225 -0.2252
   24CHL1  H15A 1721   5.543   1.206   9.414 -0.0432  0.1064 -0.4417
   24CHL1  H15B 1722   5.369   1.264   9.415  0.6986 -1.7380 -1.0710
   24CHL1   C16 1723   5.504   1.344   9.255 -0.4604 -0.5127 -0.2720
   24CHL1  H16A 1724   5.579   1.280   9.204 -2.4200 -1.9780 -1.4489
   24CHL1  H16B 1725   5.409   1.353   9.197 -0.8880  0.6355  0.5605
   24CHL1   C17 1726   5.559   1.488   9.281 -0.3301 -0.1353  1.2734
   24CHL1   H17 1727   5.470   1.554   9.295 -1.0045 -0.9899  1.1022
   24CHL1   C13 1728   5.617   1.492   9.421 -0.2658  0.4422  0.1118
   24CHL1   C18 1729   5.766   1.432   9.422  0.2107  0.4161  0.0274
   24CHL1  H18A 1730   5.774   1.345   9.354  1.3580  0.6944 -0.2102
   24CHL1  H18B 1731   5.842   1.498   9.374 -0.7551  0.7191 -1.1544
   24CHL1  H18C 1732   5.803   1.394   9.519 -3.0797 -2.0201  0.4895
   24CHL1   C12 1733   5.612   1.631   9.499  0.4823  0.0136 -0.0032
   24CHL1  H12A 1734   5.687   1.698   9.453  0.4188 -1.8520 -3.0833
   24CHL1  H12B 1735   5.514   1.681   9.489  0.4685 -0.0096  0.0141
   24CHL1   C11 1736   5.635   1.611   9.651  0.2503  0.2716  0.8511
   24CHL1  H11A 1737   5.729   1.552   9.652 -0.9845 -1.8066  0.9146
   24CHL1  H11B 1738   5.651   1.709   9.701 -0.2276  0.0452  1.4734
   24CHL1    C9 1739   5.542   1.515   9.728  0.5303 -0.3465  1.4545
   24CHL1    H9 1740   5.442   1.561   9.714  1.2317  0.5566 -1.2942
   24CHL1   C10 1741   5.558   1.501   9.881  0.2367  0.3285  0.1064
   24CHL1   C19 1742   5.715   1.487   9.908  0.3283  0.3572  0.1390
   24CHL1  H19A 1743   5.738   1.475  10.016 -0.9164 -0.0092  0.3766
   24CHL1  H19B 1744   5.748   1.395   9.855 -1.5048 -0.9757  1.1783
   24CHL1  H19C 1745   5.775   1.575   9.877 -0.5158  0.0903 -2.5120
   24CHL1    C1 1746   5.505   1.636   9.957 -0.7290  0.5925  0.0147
   24CHL1   H1A 1747   5.566   1.725   9.930 -0.4209 -0.0833 -1.6514
   24CHL1   H1B 1748   5.402   1.657   9.922 -1.0377  0.9313  1.1227
   24CHL1    C2 1749   5.511   1.615  10.109  0.5767 -0.5762  0.4309
   24CHL1   H2A 1750   5.474   1.703  10.167  1.5029  0.8802 -1.1058
   24CHL1   H2B 1751   5.613   1.586  10.141  0.0139 -3.3591 -0.0337
   24CHL1   C20 1752   5.635   1.539   9.158  0.2606  0.2250  0.8098
   24CHL1   H20 1753   5.730   1.482   9.151  0.0833 -0.0908  0.9845
   24CHL1   C21 1754   5.663   1.690   9.172  0.0351 -0.3789  0.5973
   24CHL1  H21A 1755   5.712   1.715   9.268  0.4448 -0.2258  0.3521
   24CHL1  H21B 1756   5.572   1.753   9.169  0.1483 -0.2274  0.2599
   24CHL1  H21C 1757   5.733   1.720   9.091  1.6995 -2.4345  1.1712
   24CHL1   C22 1758   5.554   1.508   9.024  0.7026 -0.3849 -0.0278
   24CHL1  H22A 1759   5.616   1.554   8.945  0.4067 -0.9810 -0.6117
   24CHL1  H22B 1760   5.549   1.402   8.990 -0.7834 -0.4329  0.2458
   24CHL1   C23 1761   5.414   1.576   8.998 -0.4999  0.2285  0.0724
   24CHL1  H23A 1762   5.338   1.531   9.065  1.2822 -2.4425  0.4771
   24CHL1  H23B 1763   5.419   1.683   9.028 -2.3316  0.1194  0.8771
   24CHL1   C24 1764   5.370   1.564   8.855  0.0207  0.3811 -0.6057
   24CHL1  H24A 1765   5.290   1.637   8.830 -0.9493 -0.2122  0.6425
   24CHL1  H24B 1766   5.454   1.594   8.789  1.0016 -2.0055 -0.5196
   24CHL1   C25 1767   5.334   1.419   8.804 -0.8670 -0.3034  0.4745
   24CHL1   H25 1768   5.420   1.350   8.821  0.4014  1.5066  1.7452
   24CHL1   C26 1769   5.205   1.377   8.871  0.2047  0.2552  0.5740
   24CHL1  H26A 1770   5.122   1.451   8.865 -1.0349 -1.0301  1.1704
   24CHL1  H26B 1771   5.170   1.284   8.821 -0.3298  1.4145 -1.2884
   24CHL1  H26C 1772   5.229   1.356   8.978 -0.3139  0.5377  0.7503
   24CHL1   C27 1773   5.306   1.423   8.652 -0.1235 -0.0709  0.7853
   24CHL1  H27A 1774   5.213   1.482   8.635  0.0291  0.4016  1.5043
   24CHL1  H27B 1775   5.384   1.481   8.598  1.5166  0.6687  3.7020
   24CHL1  H27C 1776   5.291   1.320   8.615  0.0284 -0.2460  1.1992
   25CHL1    C3 1777   3.447   1.692  10.419 -0.0391 -0.0419  0.1440
   25CHL1    H3 1778   3.552   1.665  10.393  0.2845  0.9389  0.3601
   25CHL1    O3 1779   3.430   1.674  10.563 -0.1696 -0.2241 -0.3346
   25CHL1   H3' 1780   3.494   1.606  10.585 -0.3846 -0.5601 -0.7440
   25CHL1    C4 1781   3.423   1.838  10.384 -0.0447 -0.1177  0.3369
   25CHL1   H4A 1782   3.320   1.864  10.415 -1.4802 -4.5723  0.0480
   25CHL1   H4B 1783   3.489   1.898  10.449 -1.4214  0.2774  1.4076
   25CHL1    C5 1784   3.443   1.858  10.236 -0.5497  0.8402 -0.4517
   25CHL1    C6 1785   3.543   1.935  10.187  0.2716  0.2352  0.1396
   25CHL1    H6 1786   3.602   1.999  10.253 -0.0493  0.6073  0.0667
   25CHL1    C7 1787   3.539   1.961  10.038 -0.3431  0.7048 -0.0026
   25CHL1   H7A 1788   3.525   2.069  10.018  0.7847  0.7313 -0.7139
   25CHL1   H7B 1789   3.640   1.939   9.997 -0.7260  0.2688 -0.7421
   25CHL1    C8 1790   3.431   1.891   9.954  0.5890  0.5144 -0.2155
   25CHL1    H8 1791   3.336   1.948   9.955 -0.5294 -1.2839 -0.2863
   25CHL1   C14 1792   3.473   1.881   9.812 -0.2189 -0.2004 -0.3361
   25CHL1   H14 1793   3.562   1.815   9.816  1.0360  1.4512 -0.0696
   25CHL1   C15 1794   3.515   2.011   9.755  0.0136 -0.0945 -0.4890
   25CHL1  H15A 1795   3.448   2.090   9.795  0.7507  0.7366 -0.8585
   25CHL1  H15B 1796   3.620   2.030   9.784  0.3040 -0.4309 -1.3204
   25CHL1   C16 1797   3.500   1.993   9.602 -0.0411  0.2837 -0.0278
   25CHL1  H16A 1798   3.429   2.071   9.566 -3.0496 -2.5173 -0.6939
   25CHL1  H16B 1799   3.595   2.006   9.547  1.8810 -2.7427  2.2957
   25CHL1   C17 1800   3.428   1.855   9.575  0.1330 -0.4555 -0.6055
   25CHL1   H17 1801   3.515   1.785   9.572  1.4942  0.9959  1.5390
   25CHL1   C13 1802   3.366   1.828   9.713  0.3810 -0.8090  0.1199
   25CHL1   C18 1803   3.228   1.906   9.713 -0.0529  0.7584 -0.9076
   25CHL1  H18A 1804   3.189   1.924   9.815  2.5882 -0.7128  0.4613
   25CHL1  H18B 1805   3.236   2.011   9.679  0.8449  0.6037 -1.1804
   25CHL1  H18C 1806   3.150   1.850   9.656  0.6544 -0.8648 -0.3452
   25CHL1   C12 1807   3.340   1.684   9.757  0.0349 -0.1736 -0.0621
   25CHL1  H12A 1808   3.266   1.629   9.694 -1.5418  1.6434  0.1388
   25CHL1  H12B 1809   3.439   1.632   9.753 -0.0123 -0.2956  0.3036
   25CHL1   C11 1810   3.296   1.675   9.904 -0.3550  0.1395 -0.6060
   25CHL1  H11A 1811   3.196   1.723   9.907 -0.3582  0.2272 -1.6166
   25CHL1  H11B 1812   3.297   1.567   9.930 -0.5841 -0.1743 -1.8162
   25CHL1    C9 1813   3.390   1.758  10.004 -0.0574 -0.7879  0.2832
   25CHL1    H9 1814   3.489   1.706  10.002  0.5833  0.3898 -1.5171
   25CHL1   C10 1815   3.350   1.764  10.153  0.0174  0.4048  0.2696
   25CHL1   C19 1816   3.213   1.825  10.151 -0.1795 -0.2271 -0.8587
   25CHL1  H19A 1817   3.198   1.925  10.105 -1.0329 -0.0817 -0.2934
   25CHL1  H19B 1818   3.139   1.762  10.096 -0.5837 -1.0613  0.5750
   25CHL1  H19C 1819   3.182   1.824  10.258 -0.7890  0.7663 -1.0241
   25CHL1    C1 1820   3.346   1.616  10.207  0.0071 -0.1735 -0.4794
   25CHL1   H1A 1821   3.264   1.562  10.155 -0.7677  1.1078 -0.6522
   25CHL1   H1B 1822   3.437   1.560  10.179  1.0482  1.3340 -0.2259
   25CHL1    C2 1823   3.339   1.607  10.361 -0.3498 -0.6729  1.0744
   25CHL1   H2A 1824   3.357   1.499  10.376 -0.7272 -0.8476  0.3199
   25CHL1   H2B 1825   3.237   1.629  10.399 -0.0579 -1.0959  2.1389
   25CHL1   C20 1826   3.338   1.847   9.448 -0.0086  0.4655 -0.2466
   25CHL1   H20 1827   3.249   1.913   9.461  0.2686  0.7996 -0.0125
   25CHL1   C21 1828   3.288   1.702   9.435 -0.1276  0.2621 -0.2418
   25CHL1  H21A 1829   3.242   1.692   9.334 -1.1005  1.1270  0.1098
   25CHL1  H21B 1830   3.207   1.678   9.507  0.2584 -0.6839 -0.1076
   25CHL1  H21C 1831   3.379   1.639   9.451  0.7316  1.6160  0.3880
   25CHL1   C22 1832   3.406   1.908   9.325  0.3281 -0.5560  0.0596
   25CHL1  H22A 1833   3.336   1.914   9.239  1.3029 -0.9699 -0.7906
   25CHL1  H22B 1834   3.432   2.014   9.350 -2.4532 -0.0611  1.1573
   25CHL1   C23 1835   3.528   1.837   9.264 -1.0233  0.1120 -0.0850
   25CHL1  H23A 1836   3.599   1.823   9.349 -1.6187  2.6578  0.9181
   25CHL1  H23B 1837   3.490   1.742   9.223 -2.4565  1.1464 -1.2549
   25CHL1   C24 1838   3.601   1.910   9.152  0.4206 -0.6329 -0.3556
   25CHL1  H24A 1839   3.540   1.942   9.065 -0.3513 -2.2663 -0.4355
   25CHL1  H24B 1840   3.634   2.006   9.199  2.4836 -2.2747  1.8157
   25CHL1   C25 1841   3.717   1.830   9.096  0.0809  0.9604  0.3811
   25CHL1   H25 1842   3.772   1.797   9.187  1.5915  0.9388 -0.4915
   25CHL1   C26 1843   3.672   1.698   9.011 -0.1652  0.4991 -0.1555
   25CHL1  H26A 1844   3.611   1.719   8.921  1.2298  0.3190 -1.1710
   25CHL1  H26B 1845   3.763   1.652   8.967 -1.8943 -2.1721 -1.1764
   25CHL1  H26C 1846   3.628   1.615   9.070 -1.8759 -0.0116 -2.0478
   25CHL1   C27 1847   3.800   1.920   9.005  0.2173  0.2770 -0.0143
   25CHL1  H27A 1848   3.895   1.880   8.963  1.0728  1.3422  0.8462
   25CHL1  H27B 1849   3.745   1.951   8.914 -0.6168  1.2569  0.8092
   25CHL1  H27C 1850   3.848   1.999   9.066  0.4256 -1.0646  1.6587
   26CHL1    C3 1851   4.407   5.760  10.250  0.0386  0.2064 -0.0739
   26CHL1    H3 1852   4.449   5.665  10.290  0.6768  1.0492  1.3378
   26CHL1    O3 1853   4.361   5.816  10.369  0.2329  0.2229  0.5729
   26CHL1   H3' 1854   4.320   5.897  10.337 -1.0854 -0.0875  1.3793
   26CHL1    C4 1855   4.512   5.850  10.185 -0.0613 -0.4271  0.0741
   26CHL1   H4A 1856   4.457   5.941  10.153 -0.8770 -1.0412 -0.2950
   26CHL1   H4B 1857   4.592   5.875  10.259  0.8059 -3.0459  0.1049
   26CHL1    C5 1858   4.566   5.787  10.059  0.9843  0.5610  0.3100
   26CHL1    C6 1859   4.689   5.746  10.046  0.0927  0.0734  0.0986
   26CHL1    H6 1860   4.759   5.778  10.124 -0.3963  1.0593  0.1501
   26CHL1    C7 1861   4.744   5.679   9.919 -0.1450 -0.0823 -0.8150
   26CHL1   H7A 1862   4.847   5.707   9.887 -0.1957 -0.7722 -1.6195
   26CHL1   H7B 1863   4.745   5.569   9.934  1.1883  0.2253  2.0170
   26CHL1    C8 1864   4.647   5.692   9.797 -0.3534 -0.1824  0.2012
   26CHL1    H8 1865   4.647   5.796   9.758  0.1857 -1.2999 -3.0795
   26CHL1   C14 1866   4.690   5.615   9.678 -0.0463 -0.7626  0.0974
   26CHL1   H14 1867   4.687   5.514   9.724 -2.6733  0.5103  3.0679
   26CHL1   C15 1868   4.832   5.642   9.620  0.0759  0.0631 -0.4698
   26CHL1  H15A 1869   4.846   5.750   9.599 -1.9302  0.6937  1.1285
   26CHL1  H15B 1870   4.908   5.604   9.693  0.3152  2.1264  0.4181
   26CHL1   C16 1871   4.830   5.561   9.491  0.5485 -0.1828  0.1469
   26CHL1  H16A 1872   4.883   5.627   9.419  1.5909 -1.4482 -0.2813
   26CHL1  H16B 1873   4.879   5.464   9.516 -0.8764 -0.5793  1.5740
   26CHL1   C17 1874   4.678   5.539   9.447 -0.3300  0.3484 -0.1450
   26CHL1   H17 1875   4.653   5.436   9.480 -0.3168  0.6362  0.8052
   26CHL1   C13 1876   4.594   5.618   9.559  0.0340 -0.4832 -0.1647
   26CHL1   C18 1877   4.583   5.764   9.502 -0.2828 -0.0636 -0.1694
   26CHL1  H18A 1878   4.539   5.768   9.400 -0.7579 -3.1982 -0.1871
   26CHL1  H18B 1879   4.523   5.829   9.570 -1.8541  0.4022 -1.9042
   26CHL1  H18C 1880   4.686   5.807   9.500 -0.4246  0.3731  0.8728
   26CHL1   C12 1881   4.459   5.557   9.610  0.9270  0.4108 -0.0253
   26CHL1  H12A 1882   4.379   5.555   9.534  0.4510 -0.4521  0.4803
   26CHL1  H12B 1883   4.477   5.451   9.640 -1.0936  0.0744  0.1430
   26CHL1   C11 1884   4.405   5.644   9.722 -0.0398  1.4270 -0.6478
   26CHL1  H11A 1885   4.371   5.743   9.683 -2.1750  0.4974 -1.3169
   26CHL1  H11B 1886   4.315   5.589   9.758  0.8824 -1.5364 -2.5188
   26CHL1    C9 1887   4.503   5.662   9.840  0.4233  0.0860  0.6702
   26CHL1    H9 1888   4.519   5.565   9.892 -1.3956 -0.2051  0.7669
   26CHL1   C10 1889   4.452   5.757   9.950 -0.8512  0.4860 -0.0161
   26CHL1   C19 1890   4.392   5.891   9.884 -0.7839  0.6200 -0.1651
   26CHL1  H19A 1891   4.478   5.950   9.846 -1.2315  2.0796  0.9804
   26CHL1  H19B 1892   4.306   5.873   9.816 -1.1213  0.0873  0.3861
   26CHL1  H19C 1893   4.352   5.956   9.965 -2.4903  1.2286 -1.4322
   26CHL1    C1 1894   4.342   5.681  10.024 -0.1425 -0.2902  0.6496
   26CHL1   H1A 1895   4.256   5.674   9.954 -0.0614  3.2625  0.0113
   26CHL1   H1B 1896   4.376   5.582  10.064 -1.3934 -0.2316  1.9286
   26CHL1    C2 1897   4.290   5.739  10.155 -0.4951  0.0462 -0.0304
   26CHL1   H2A 1898   4.233   5.656  10.202  3.5852 -3.4265 -0.6189
   26CHL1   H2B 1899   4.233   5.834  10.142 -0.2531  0.3103  0.7997
   26CHL1   C20 1900   4.631   5.539   9.297 -0.1185  0.0091 -0.2496
   26CHL1   H20 1901   4.655   5.641   9.257 -0.0478  0.6816  1.4314
   26CHL1   C21 1902   4.480   5.501   9.299 -0.0031  0.1315  0.2868
   26CHL1  H21A 1903   4.447   5.416   9.362 -0.3998  0.3098  0.3244
   26CHL1  H21B 1904   4.443   5.479   9.196 -0.7675  3.3100 -0.2331
   26CHL1  H21C 1905   4.427   5.594   9.328 -0.0224  1.6992 -3.9720
   26CHL1   C22 1906   4.717   5.436   9.218  0.4403 -0.1060 -0.3210
   26CHL1  H22A 1907   4.823   5.436   9.251  0.4751  0.8369 -0.4287
   26CHL1  H22B 1908   4.675   5.338   9.250 -2.3376  1.7545  2.3819
   26CHL1   C23 1909   4.701   5.434   9.066 -0.3163 -0.0251 -0.0814
   26CHL1  H23A 1910   4.593   5.453   9.053 -0.4290 -0.5004  0.1349
   26CHL1  H23B 1911   4.751   5.525   9.028 -0.8648 -0.5399 -2.1105
   26CHL1   C24 1912   4.759   5.307   9.002 -0.7682 -0.6662  0.4874
   26CHL1  H24A 1913   4.865   5.291   9.031 -0.1169  0.8563 -0.9036
   26CHL1  H24B 1914   4.705   5.218   9.041 -1.2598 -0.9023 -0.6755
   26CHL1   C25 1915   4.753   5.321   8.843 -0.0268  0.2565 -0.3986
   26CHL1   H25 1916   4.811   5.412   8.816 -0.9675  1.3920  1.2282
   26CHL1   C26 1917   4.820   5.202   8.762 -0.6648 -0.2568  0.1228
   26CHL1  H26A 1918   4.772   5.103   8.777 -2.0846  0.5297  0.9148
   26CHL1  H26B 1919   4.820   5.233   8.655  1.4819  1.6280  0.5894
   26CHL1  H26C 1920   4.929   5.201   8.785 -0.4545  0.6790 -0.7463
   26CHL1   C27 1921   4.609   5.339   8.795 -0.4110  0.1328  0.7679
   26CHL1  H27A 1922   4.542   5.251   8.807 -1.7590  1.2610  1.9425
   26CHL1  H27B 1923   4.555   5.424   8.842 -0.6751  0.8272 -0.7484
   26CHL1  H27C 1924   4.628   5.359   8.688  2.7282  0.2274  1.2588
   27CHL1    C3 1925   5.255   2.980  10.296 -0.7528  0.1149 -0.2388
   27CHL1    H3 1926   5.236   2.872  10.281  0.8822 -0.8792  3.5257
   27CHL1    O3 1927   5.213   3.001  10.428 -0.1702  0.4762 -0.0734
   27CHL1   H3' 1928   5.260   2.941  10.486 -2.2813  0.5270  1.8198
   27CHL1    C4 1929   5.408   3.016  10.276  0.6883  0.5977 -0.1897
   27CHL1   H4A 1930   5.430   3.119  10.310 -0.4153  0.0041  2.5593
   27CHL1   H4B 1931   5.460   2.946  10.345 -0.2980  0.9374  0.9314
   27CHL1    C5 1932   5.457   2.992  10.134  0.8132  0.5725  0.1169
   27CHL1    C6 1933   5.565   2.925  10.103 -0.1099  0.0562  0.6131
   27CHL1    H6 1934   5.623   2.880  10.184  2.2394 -1.0983 -1.5417
   27CHL1    C7 1935   5.611   2.904   9.956 -0.2701  0.1514 -0.0023
   27CHL1   H7A 1936   5.716   2.939   9.954 -0.3075  0.2330 -1.1761
   27CHL1   H7B 1937   5.624   2.796   9.932  0.1173 -0.5594  3.0113
   27CHL1    C8 1938   5.534   2.982   9.844 -0.1680 -1.1736 -0.4328
   27CHL1    H8 1939   5.576   3.085   9.834 -0.5251 -1.0358 -0.5613
   27CHL1   C14 1940   5.553   2.918   9.714  0.3677 -0.6791  0.2761
   27CHL1   H14 1941   5.478   2.835   9.710 -1.1860  0.6436  0.8230
   27CHL1   C15 1942   5.687   2.859   9.669 -0.6803  0.2370  0.5627
   27CHL1  H15A 1943   5.775   2.923   9.693  0.3006 -0.0446 -1.9350
   27CHL1  H15B 1944   5.701   2.761   9.720  0.0360  0.1520  0.2113
   27CHL1   C16 1945   5.677   2.845   9.514  0.0148  0.2199 -0.4336
   27CHL1  H16A 1946   5.770   2.893   9.476 -0.0684  0.2385 -0.6126
   27CHL1  H16B 1947   5.685   2.736   9.495  2.2755  0.5325 -1.6725
   27CHL1   C17 1948   5.543   2.915   9.478  0.3170  0.4595  0.2421
   27CHL1   H17 1949   5.460   2.841   9.480  0.2330  0.4398 -1.5741
   27CHL1   C13 1950   5.505   3.007   9.592 -0.4391 -0.7916  0.1825
   27CHL1   C18 1951   5.602   3.134   9.580 -0.0655 -0.0096 -0.5517
   27CHL1  H18A 1952   5.710   3.111   9.597  0.0851  0.2359 -1.1727
   27CHL1  H18B 1953   5.590   3.185   9.482 -1.1791 -2.2015 -1.6126
   27CHL1  H18C 1954   5.579   3.211   9.657 -1.4675 -0.6799 -0.2770
   27CHL1   C12 1955   5.361   3.047   9.616  0.3154  0.0641 -0.8763
   27CHL1  H12A 1956   5.328   3.134   9.555 -0.5660  0.1732 -0.2586
   27CHL1  H12B 1957   5.298   2.963   9.577  1.0404  0.4623 -3.0943
   27CHL1   C11 1958   5.320   3.094   9.766  0.3824  0.0548  0.7743
   27CHL1  H11A 1959   5.361   3.197   9.770 -1.3005  0.8430 -0.5305
   27CHL1  H11B 1960   5.210   3.106   9.777  0.2662 -1.0935  0.9532
   27CHL1    C9 1961   5.386   3.011   9.875  0.0721  0.4608 -0.5475
   27CHL1    H9 1962   5.344   2.909   9.861 -1.0695  0.8984 -0.4477
   27CHL1   C10 1963   5.361   3.050  10.025 -0.2285  0.2445 -0.0480
   27CHL1   C19 1964   5.391   3.205  10.039 -0.5447  0.8870 -0.2573
   27CHL1  H19A 1965   5.329   3.269   9.972 -1.7940 -1.4900 -1.5168
   27CHL1  H19B 1966   5.378   3.230  10.146 -0.8092 -3.5123  0.9318
   27CHL1  H19C 1967   5.498   3.225  10.018 -0.7187  1.2086 -0.8514
   27CHL1    C1 1968   5.212   3.022  10.059 -0.7029 -0.0389  1.2646
   27CHL1   H1A 1969   5.146   3.083   9.994  0.2472 -1.0533 -0.7303
   27CHL1   H1B 1970   5.202   2.912  10.044 -1.3330  0.3213 -1.4625
   27CHL1    C2 1971   5.168   3.055  10.200 -0.2213 -0.5536 -0.4026
   27CHL1   H2A 1972   5.059   3.045  10.221 -0.0494  1.7908  2.1429
   27CHL1   H2B 1973   5.174   3.165  10.215  2.3971 -0.5732 -0.8226
   27CHL1   C20 1974   5.541   2.973   9.333 -0.6086 -0.1037 -0.2228
   27CHL1   H20 1975   5.616   3.055   9.335  2.1794 -2.5182  1.2586
   27CHL1   C21 1976   5.404   3.023   9.294 -0.0691 -1.1749  0.4492
   27CHL1  H21A 1977   5.420   3.085   9.203  0.8826  0.5504  1.7277
   27CHL1  H21B 1978   5.386   3.098   9.374  2.7904 -2.1148  2.1136
   27CHL1  H21C 1979   5.320   2.951   9.285 -1.3779 -0.0126  2.5793
   27CHL1   C22 1980   5.593   2.872   9.223 -0.2638  0.0058  0.7823
   27CHL1  H22A 1981   5.676   2.807   9.259 -1.4571 -2.4549 -0.6296
   27CHL1  H22B 1982   5.505   2.812   9.193 -0.4684  0.3345  0.7221
   27CHL1   C23 1983   5.642   2.948   9.100  0.4569  0.3215  0.2024
   27CHL1  H23A 1984   5.576   3.035   9.080 -2.0985 -1.7575 -0.8234
   27CHL1  H23B 1985   5.744   2.991   9.115  0.8654 -0.5782  0.0686
   27CHL1   C24 1986   5.635   2.857   8.973  0.2208  0.0451  0.1429
   27CHL1  H24A 1987   5.722   2.790   8.986 -0.3841 -0.4469  1.9749
   27CHL1  H24B 1988   5.543   2.794   8.975  1.1065 -1.2818  1.0274
   27CHL1   C25 1989   5.654   2.933   8.829  0.0375  1.0376 -0.4616
   27CHL1   H25 1990   5.565   2.998   8.813  0.4535  1.2225 -2.2278
   27CHL1   C26 1991   5.779   3.021   8.820 -0.2104  0.6298  0.3235
   27CHL1  H26A 1992   5.865   2.955   8.845 -1.8507 -2.1672 -0.8611
   27CHL1  H26B 1993   5.799   3.050   8.714  2.1900 -1.1574  0.2037
   27CHL1  H26C 1994   5.774   3.106   8.891  1.3674 -0.2681  1.5873
   27CHL1   C27 1995   5.649   2.825   8.720 -0.5582  0.2608 -0.9916
   27CHL1  H27A 1996   5.628   2.872   8.622  0.5565  3.0889  0.0172
   27CHL1  H27B 1997   5.745   2.772   8.703  0.1340  1.2376 -0.2116
   27CHL1  H27C 1998   5.575   2.744   8.740  1.2453 -0.7797  2.2066
   28CHL1    C3 1999   4.957   1.669  10.074  0.5468  0.3805  0.2013
   28CHL1    H3 2000   4.939   1.560  10.069 -3.2240  0.9271 -2.8536
   28CHL1    O3 2001   4.973   1.720  10.202 -0.4377 -0.1470  0.1761
   28CHL1   H3' 2002   5.029   1.657  10.247 -0.6272 -1.6228 -1.5380
   28CHL1    C4 2003   5.076   1.701   9.984  0.0914 -0.3673 -0.0144
   28CHL1   H4A 2004   5.083   1.811   9.970  1.8763 -0.3137  1.1408
   28CHL1   H4B 2005   5.164   1.667  10.041 -0.7762 -1.8798  0.4813
   28CHL1    C5 2006   5.053   1.657   9.843  0.1570  0.0824  0.7502
   28CHL1    C6 2007   5.122   1.556   9.792  0.2192 -0.1498  0.3339
   28CHL1    H6 2008   5.199   1.503   9.851  1.5840 -0.2438 -1.4610
   28CHL1    C7 2009   5.115   1.526   9.645  0.3631 -0.2648 -0.1303
   28CHL1   H7A 2010   5.217   1.509   9.605  0.4289  2.4156 -1.3193
   28CHL1   H7B 2011   5.056   1.432   9.639 -0.7899  0.5081 -1.5487
   28CHL1    C8 2012   5.040   1.628   9.554 -0.6334  0.1345 -0.6311
   28CHL1    H8 2013   5.108   1.713   9.531  3.2744 -2.8794 -1.4083
   28CHL1   C14 2014   5.018   1.552   9.420  0.2195  0.0558 -0.2891
   28CHL1   H14 2015   4.970   1.454   9.438  2.9778 -1.1206  1.1772
   28CHL1   C15 2016   5.130   1.504   9.326 -0.5981 -0.5185 -0.6406
   28CHL1  H15A 2017   5.204   1.586   9.327 -1.4740  0.3146 -1.5151
   28CHL1  H15B 2018   5.171   1.408   9.364 -3.2916 -1.1947  0.8232
   28CHL1   C16 2019   5.060   1.477   9.193  0.2560  0.5138 -0.1916
   28CHL1  H16A 2020   5.118   1.537   9.120  0.9698  0.1756  0.0891
   28CHL1  H16B 2021   5.077   1.370   9.171 -1.3073 -0.2917  2.0958
   28CHL1   C17 2022   4.905   1.522   9.215 -0.8270 -0.3581  0.0189
   28CHL1   H17 2023   4.835   1.446   9.257  0.4686 -0.3285  2.4276
   28CHL1   C13 2024   4.918   1.627   9.330  0.7346 -0.1519 -0.4454
   28CHL1   C18 2025   4.982   1.758   9.273 -0.4677  0.6088  0.0430
   28CHL1  H18A 2026   5.067   1.731   9.207 -0.9166 -2.5653  0.6073
   28CHL1  H18B 2027   4.910   1.804   9.203 -1.4644 -1.6450 -0.5037
   28CHL1  H18C 2028   5.022   1.834   9.344 -0.6487  0.8318 -0.0941
   28CHL1   C12 2029   4.793   1.666   9.407  0.1951  0.1803 -0.6321
   28CHL1  H12A 2030   4.724   1.734   9.352  0.2780 -1.8237 -3.4498
   28CHL1  H12B 2031   4.733   1.577   9.436 -1.2268  0.3186 -2.8962
   28CHL1   C11 2032   4.829   1.747   9.532  0.3508  0.6289 -0.8829
   28CHL1  H11A 2033   4.875   1.843   9.499  2.4589 -0.3649 -0.9952
   28CHL1  H11B 2034   4.734   1.770   9.586  1.0419  0.7996  0.2804
   28CHL1    C9 2035   4.919   1.667   9.629  0.6143  0.0375  0.6585
   28CHL1    H9 2036   4.858   1.576   9.646  0.1883 -0.2328 -1.9696
   28CHL1   C10 2037   4.941   1.727   9.770 -0.1840 -0.6736  0.2787
   28CHL1   C19 2038   4.965   1.886   9.743 -0.0333  0.1078 -0.0680
   28CHL1  H19A 2039   5.044   1.908   9.668  1.2915 -2.0798  0.5770
   28CHL1  H19B 2040   4.874   1.941   9.712 -1.3019 -1.4258  0.7412
   28CHL1  H19C 2041   4.994   1.938   9.837  0.7681 -0.6026  0.0991
   28CHL1    C1 2042   4.819   1.702   9.865  0.1122  0.1712 -0.2159
   28CHL1   H1A 2043   4.733   1.759   9.823  1.4884  1.4753 -1.3771
   28CHL1   H1B 2044   4.804   1.592   9.853 -0.7989  0.2146  0.3813
   28CHL1    C2 2045   4.836   1.731  10.017 -0.2397 -0.9251 -0.0177
   28CHL1   H2A 2046   4.740   1.713  10.070  0.4233  0.1940  1.6429
   28CHL1   H2B 2047   4.848   1.841  10.026 -0.5979 -1.0032  1.7819
   28CHL1   C20 2048   4.847   1.567   9.080 -0.0970  0.5843 -0.7082
   28CHL1   H20 2049   4.912   1.651   9.047  0.3060 -0.3501 -2.4098
   28CHL1   C21 2050   4.701   1.612   9.109 -0.3686  0.3772  0.1278
   28CHL1  H21A 2051   4.694   1.715   9.150 -1.8248  1.2542 -2.1423
   28CHL1  H21B 2052   4.649   1.534   9.169  1.9229 -1.9930 -0.7868
   28CHL1  H21C 2053   4.649   1.616   9.011  0.0109 -1.9500 -0.2311
   28CHL1   C22 2054   4.836   1.458   8.968 -0.6239 -0.3079  0.7030
   28CHL1  H22A 2055   4.931   1.402   8.978  0.0424  0.3843 -1.1862
   28CHL1  H22B 2056   4.757   1.382   8.986  0.5116 -1.3359  1.5278
   28CHL1   C23 2057   4.814   1.498   8.823 -0.5585  0.1480  0.4438
   28CHL1  H23A 2058   4.706   1.508   8.801 -0.0539 -0.7069 -2.9058
   28CHL1  H23B 2059   4.867   1.592   8.796 -0.5658  0.2106  0.6413
   28CHL1   C24 2060   4.870   1.391   8.729  0.0409  0.2120  0.2218
   28CHL1  H24A 2061   4.969   1.355   8.766  0.9214 -0.4851 -2.5582
   28CHL1  H24B 2062   4.796   1.309   8.723 -0.0062  0.1442  1.3627
   28CHL1   C25 2063   4.899   1.441   8.581  0.4203 -0.3115 -0.2911
   28CHL1   H25 2064   4.970   1.526   8.589 -0.2724  0.6296 -2.9208
   28CHL1   C26 2065   4.967   1.331   8.492  0.5430  0.1509 -0.3012
   28CHL1  H26A 2066   4.893   1.249   8.483  0.5277  0.2690 -1.5196
   28CHL1  H26B 2067   4.988   1.374   8.391  0.4343  1.1500  0.0882
   28CHL1  H26C 2068   5.058   1.307   8.551 -2.3746 -0.7289  4.3168
   28CHL1   C27 2069   4.770   1.484   8.503  0.1653 -0.3160  0.3542
   28CHL1  H27A 2070   4.794   1.557   8.423  2.4384 -1.1236  0.2213
   28CHL1  H27B 2071   4.713   1.401   8.458 -0.4580  0.1645  0.2461
   28CHL1  H27C 2072   4.704   1.541   8.571  1.8266  1.1946  0.7972
   29CHL1    C3 2073   2.834   6.356   6.954  0.4768 -0.2385  0.3437
   29CHL1    H3 2074   2.899   6.266   6.964 -0.2179 -0.8552 -0.4817
   29CHL1    O3 2075   2.823   6.388   6.815  0.1324 -0.0070 -0.2752
   29CHL1   H3' 2076   2.762   6.462   6.809  0.9356  0.5563 -1.8014
   29CHL1    C4 2077   2.685   6.327   6.998 -0.5000  0.1208 -0.1195
   29CHL1   H4A 2078   2.640   6.426   6.978  1.9348  1.1509 -0.9251
   29CHL1   H4B 2079   2.647   6.244   6.936  0.6811 -0.7800  0.3130
   29CHL1    C5 2080   2.682   6.299   7.144  0.1157 -0.1966  1.1220
   29CHL1    C6 2081   2.629   6.188   7.190  1.1321  0.3435 -0.1448
   29CHL1    H6 2082   2.586   6.106   7.131  0.2158 -0.0095  0.9796
   29CHL1    C7 2083   2.608   6.165   7.334  0.4066  0.7984  0.0676
   29CHL1   H7A 2084   2.501   6.143   7.353  0.3423  0.6521 -0.4398
   29CHL1   H7B 2085   2.659   6.073   7.371  0.2105  1.3049  1.6504
   29CHL1    C8 2086   2.642   6.273   7.436  0.0945  0.1392  0.2187
   29CHL1    H8 2087   2.555   6.339   7.452 -0.0098 -0.3715  2.0023
   29CHL1   C14 2088   2.686   6.212   7.571  0.2612 -0.5683 -0.2263
   29CHL1   H14 2089   2.787   6.170   7.551  0.5840  0.3310 -0.5239
   29CHL1   C15 2090   2.598   6.107   7.640  0.0302  0.0781 -0.1732
   29CHL1  H15A 2091   2.493   6.141   7.630 -0.3082 -0.5765  0.9322
   29CHL1  H15B 2092   2.599   6.008   7.589  0.4179  0.5599 -1.1233
   29CHL1   C16 2093   2.639   6.112   7.783  0.4464 -0.2792  0.5362
   29CHL1  H16A 2094   2.554   6.148   7.845 -0.1134  1.6218 -1.2037
   29CHL1  H16B 2095   2.684   6.018   7.819  2.2735  0.0006 -0.8998
   29CHL1   C17 2096   2.748   6.221   7.797 -0.2307  0.0359  0.3857
   29CHL1   H17 2097   2.849   6.178   7.783  1.0846  1.2303  4.5018
   29CHL1   C13 2098   2.722   6.315   7.676 -0.2535 -0.3461 -0.2554
   29CHL1   C18 2099   2.600   6.407   7.719 -0.5766  0.7786  0.0621
   29CHL1  H18A 2100   2.638   6.474   7.799  0.9908 -1.0871  0.9340
   29CHL1  H18B 2101   2.566   6.462   7.629  0.8115 -0.5245 -1.3079
   29CHL1  H18C 2102   2.515   6.345   7.755  0.4235 -2.4898 -2.6715
   29CHL1   C12 2103   2.836   6.406   7.620 -0.7210 -0.1008  0.6886
   29CHL1  H12A 2104   2.868   6.483   7.694 -1.5273  0.3968  0.5331
   29CHL1  H12B 2105   2.921   6.339   7.594  0.1541  0.8112  1.1164
   29CHL1   C11 2106   2.796   6.477   7.485  0.3116 -0.1325 -0.8570
   29CHL1  H11A 2107   2.703   6.538   7.487  0.3990 -0.0293  0.5797
   29CHL1  H11B 2108   2.875   6.542   7.442 -0.3987 -0.2799 -2.4714
   29CHL1    C9 2109   2.755   6.363   7.383 -0.3491  0.2941  0.5505
   29CHL1    H9 2110   2.846   6.298   7.381 -0.5681 -0.1451 -3.4072
   29CHL1   C10 2111   2.738   6.412   7.238  0.0568  0.3853  0.0370
   29CHL1   C19 2112   2.662   6.544   7.234  0.4472 -0.1329  0.3202
   29CHL1  H19A 2113   2.575   6.534   7.304 -0.0902 -0.7545 -0.4281
   29CHL1  H19B 2114   2.722   6.634   7.262 -0.9257  1.5042 -1.6616
   29CHL1  H19C 2115   2.621   6.573   7.135  1.6088  1.9818  0.3922
   29CHL1    C1 2116   2.885   6.442   7.180 -0.4227  0.2182  0.3472
   29CHL1   H1A 2117   2.928   6.534   7.225 -0.9891 -0.0912  1.5571
   29CHL1   H1B 2118   2.956   6.357   7.196 -0.9404 -0.7513 -2.1197
   29CHL1    C2 2119   2.893   6.474   7.030  0.9706  0.0035 -0.2433
   29CHL1   H2A 2120   2.998   6.490   6.999  1.1265  2.1109  1.2172
   29CHL1   H2B 2121   2.829   6.562   7.009  0.9065 -0.1628 -0.7680
   29CHL1   C20 2122   2.756   6.278   7.941  0.3311  0.0926  0.0920
   29CHL1   H20 2123   2.661   6.321   7.979  1.2632 -0.3221  3.2146
   29CHL1   C21 2124   2.871   6.388   7.947  0.3739  0.4840 -0.0997
   29CHL1  H21A 2125   2.840   6.482   7.894 -0.1928 -0.1303 -0.8901
   29CHL1  H21B 2126   2.955   6.346   7.887 -0.7117  1.5825 -2.5744
   29CHL1  H21C 2127   2.894   6.420   8.050  2.8580  1.7807 -0.9691
   29CHL1   C22 2128   2.793   6.160   8.042 -0.0566  0.1836  0.5224
   29CHL1  H22A 2129   2.727   6.074   8.016  0.1376  0.4056 -0.8185
   29CHL1  H22B 2130   2.897   6.127   8.026 -0.0385  0.9248 -1.1516
   29CHL1   C23 2131   2.771   6.199   8.190 -0.8040  1.2712  0.0528
   29CHL1  H23A 2132   2.817   6.125   8.258  1.4019  0.3429 -2.2749
   29CHL1  H23B 2133   2.823   6.295   8.211  2.7112 -0.2271 -1.1195
   29CHL1   C24 2134   2.621   6.201   8.227  0.3546  0.4525 -0.7857
   29CHL1  H24A 2135   2.581   6.287   8.168  1.0536  1.6552  0.4362
   29CHL1  H24B 2136   2.574   6.111   8.183  3.7068  0.4469 -5.0506
   29CHL1   C25 2137   2.581   6.226   8.373 -0.5084  0.3361  0.4748
   29CHL1   H25 2138   2.646   6.302   8.423 -1.1827  0.1731  1.6372
   29CHL1   C26 2139   2.445   6.283   8.380 -0.3812 -0.0391  0.6117
   29CHL1  H26A 2140   2.434   6.356   8.297  2.2807 -1.2024 -0.8981
   29CHL1  H26B 2141   2.367   6.209   8.353 -1.7328  1.1548  1.1593
   29CHL1  H26C 2142   2.428   6.325   8.482 -2.0997 -0.7765  0.6585
   29CHL1   C27 2143   2.590   6.094   8.456  0.3255 -0.7035  0.5252
   29CHL1  H27A 2144   2.695   6.059   8.455  1.2017  1.7626  0.5175
   29CHL1  H27B 2145   2.557   6.096   8.562  0.5808  2.2632  0.6308
   29CHL1  H27C 2146   2.526   6.024   8.397  1.6893 -0.8986 -0.7870
   30CHL1    C3 2147   2.867   3.187   7.395  0.9199  0.4575 -0.0212
   30CHL1    H3 2148   2.883   3.288   7.351  0.3298  0.5352 -0.0704
   30CHL1    O3 2149   2.817   3.099   7.299 -0.3818  0.1742  0.2089
   30CHL1   H3' 2150   2.888   3.083   7.236  0.7905  1.7247  1.0621
   30CHL1    C4 2151   3.002   3.132   7.451  0.4548  0.0295  0.3863
   30CHL1   H4A 2152   2.992   3.023   7.468  0.5497  0.2633  2.0797
   30CHL1   H4B 2153   3.084   3.136   7.376  0.0162 -3.9098 -0.5260
   30CHL1    C5 2154   3.055   3.195   7.580  0.5040 -0.8886  0.2544
   30CHL1    C6 2155   3.185   3.231   7.593  0.5912  0.1912  0.2883
   30CHL1    H6 2156   3.266   3.202   7.524  0.9348 -0.4836  0.9604
   30CHL1    C7 2157   3.238   3.278   7.724  0.2069  0.3876 -0.4012
   30CHL1   H7A 2158   3.322   3.208   7.745 -1.2134 -1.2336  0.0832
   30CHL1   H7B 2159   3.276   3.380   7.704 -0.7474  0.8257  0.0121
   30CHL1    C8 2160   3.142   3.274   7.850 -0.4308 -0.9818 -0.3146
   30CHL1    H8 2161   3.150   3.169   7.888  0.6940 -0.6023  0.5648
   30CHL1   C14 2162   3.187   3.378   7.956  0.1959  0.4476  0.4881
   30CHL1   H14 2163   3.180   3.481   7.913 -1.4107  0.3636  0.4851
   30CHL1   C15 2164   3.339   3.386   7.996 -0.3746  0.6759  0.1542
   30CHL1  H15A 2165   3.363   3.278   7.986 -3.1839  0.1675 -2.2476
   30CHL1  H15B 2166   3.392   3.454   7.926 -0.2176  0.6484  0.2462
   30CHL1   C16 2167   3.333   3.444   8.140  0.2734 -0.1337 -0.0673
   30CHL1  H16A 2168   3.368   3.371   8.216 -1.0187 -1.8781 -1.0710
   30CHL1  H16B 2169   3.386   3.541   8.150  1.0472 -0.1705 -2.9557
   30CHL1   C17 2170   3.184   3.488   8.169  0.6896  0.7589 -0.2568
   30CHL1   H17 2171   3.163   3.584   8.117  0.1812  0.2003 -1.1105
   30CHL1   C13 2172   3.099   3.381   8.084 -0.0791  0.2769  0.1306
   30CHL1   C18 2173   3.113   3.244   8.144  0.0821  0.9875 -0.5084
   30CHL1  H18A 2174   3.058   3.239   8.241  1.0075  2.1518  0.1041
   30CHL1  H18B 2175   3.061   3.171   8.078  0.5379 -0.9759  1.1688
   30CHL1  H18C 2176   3.218   3.209   8.157 -0.3204 -0.7449 -1.5169
   30CHL1   C12 2177   2.954   3.400   8.041  0.3160 -0.3518 -0.8549
   30CHL1  H12A 2178   2.884   3.376   8.124 -1.1092 -0.1377 -1.9655
   30CHL1  H12B 2179   2.949   3.505   8.004 -0.9348 -0.5519 -1.3052
   30CHL1   C11 2180   2.892   3.318   7.928 -0.1818 -0.4105 -0.2752
   30CHL1  H11A 2181   2.877   3.214   7.964  1.7221 -1.0625 -1.1959
   30CHL1  H11B 2182   2.801   3.370   7.893 -0.9391 -0.8115  1.0397
   30CHL1    C9 2183   2.995   3.305   7.810  0.2787 -0.7864 -0.0100
   30CHL1    H9 2184   2.999   3.409   7.769  0.3754 -0.6581  0.3233
   30CHL1   C10 2185   2.950   3.215   7.689 -0.3966 -0.2805  0.9615
   30CHL1   C19 2186   2.910   3.081   7.748 -0.3228 -0.1541  0.2025
   30CHL1  H19A 2187   2.991   3.043   7.814 -1.2311  0.8035  1.9358
   30CHL1  H19B 2188   2.817   3.093   7.808 -2.0374 -2.0895 -1.9084
   30CHL1  H19C 2189   2.877   3.013   7.667 -1.4538  0.1035  0.4221
   30CHL1    C1 2190   2.820   3.276   7.627 -0.7441  0.6295  0.1939
   30CHL1   H1A 2191   2.738   3.290   7.700 -0.7569  2.3189 -0.1196
   30CHL1   H1B 2192   2.857   3.375   7.594  1.7134 -0.5650 -0.9129
   30CHL1    C2 2193   2.767   3.193   7.507 -0.5318 -0.0038 -0.8770
   30CHL1   H2A 2194   2.676   3.253   7.485  0.1066  1.5208  0.4056
   30CHL1   H2B 2195   2.742   3.089   7.534  2.2070 -0.8726 -1.4167
   30CHL1   C20 2196   3.159   3.492   8.324  0.0916 -0.7519  0.0341
   30CHL1   H20 2197   3.048   3.481   8.329 -0.0114  0.1684 -0.0104
   30CHL1   C21 2198   3.183   3.643   8.357  0.0344  0.1185 -1.2150
   30CHL1  H21A 2199   3.111   3.706   8.302 -3.1474 -1.3117  0.9926
   30CHL1  H21B 2200   3.285   3.677   8.328  0.5670 -0.7703 -0.4397
   30CHL1  H21C 2201   3.166   3.651   8.467  0.3909  1.6698 -1.2522
   30CHL1   C22 2202   3.226   3.395   8.419 -0.6492  0.4249 -0.5006
   30CHL1  H22A 2203   3.217   3.290   8.385  0.4697  0.4392 -0.8882
   30CHL1  H22B 2204   3.333   3.424   8.426 -0.8628  1.3302 -0.7669
   30CHL1   C23 2205   3.165   3.405   8.562  0.0103  0.0115  0.1004
   30CHL1  H23A 2206   3.186   3.502   8.612 -1.5858  0.5355 -0.2174
   30CHL1  H23B 2207   3.058   3.378   8.554  1.1640 -5.7870 -0.1114
   30CHL1   C24 2208   3.219   3.302   8.659 -0.3831  0.2523 -0.3685
   30CHL1  H24A 2209   3.230   3.210   8.597  2.7041  1.4240 -1.7953
   30CHL1  H24B 2210   3.323   3.331   8.687 -0.8409  0.9250  0.7111
   30CHL1   C25 2211   3.145   3.284   8.790  0.1369  0.4618 -0.8108
   30CHL1   H25 2212   3.039   3.256   8.773  0.5731 -1.6752 -0.3616
   30CHL1   C26 2213   3.204   3.160   8.868  1.2038  0.1099 -0.2410
   30CHL1  H26A 2214   3.161   3.154   8.970 -1.8172 -0.2875 -1.4150
   30CHL1  H26B 2215   3.189   3.065   8.811 -0.1421  0.3200 -0.2542
   30CHL1  H26C 2216   3.312   3.186   8.876  1.6946 -1.9156  0.4926
   30CHL1   C27 2217   3.140   3.411   8.878 -0.0315 -0.3128  0.4483
   30CHL1  H27A 2218   3.088   3.494   8.824 -1.2080 -0.2023  1.7018
   30CHL1  H27B 2219   3.082   3.405   8.972  0.3923 -0.5872  0.6944
   30CHL1  H27C 2220   3.242   3.454   8.885 -0.5972  0.8906  2.0785
   31CHL1    C3 2221   1.747   1.136   6.853  0.3238 -0.3094 -0.2335
   31CHL1    H3 2222   1.682   1.048   6.878 -0.0807  0.3511  1.1211
   31CHL1    O3 2223   1.732   1.151   6.710 -0.6264  0.0614 -0.5718
   31CHL1   H3' 2224   1.788   1.083   6.673  0.6194  1.1863 -0.8270
   31CHL1    C4 2225   1.690   1.269   6.910 -0.3067 -0.2806  0.8419
   31CHL1   H4A 2226   1.740   1.360   6.871  1.6331 -0.9118  1.7281
   31CHL1   H4B 2227   1.582   1.278   6.886 -0.8441 -0.3360  3.0870
   31CHL1    C5 2228   1.708   1.273   7.061 -0.3355  0.1685 -0.7008
   31CHL1    C6 2229   1.609   1.306   7.143  0.8352  0.0833  0.1083
   31CHL1    H6 2230   1.514   1.338   7.099  1.2776  0.7342 -0.3930
   31CHL1    C7 2231   1.622   1.317   7.293 -0.2002  0.1450 -0.2524
   31CHL1   H7A 2232   1.564   1.402   7.334  0.3701  1.1434 -1.4456
   31CHL1   H7B 2233   1.597   1.218   7.336  1.7120 -1.0820 -1.7721
   31CHL1    C8 2234   1.768   1.346   7.338 -0.3175  0.2987  0.2499
   31CHL1    H8 2235   1.806   1.443   7.300  1.1078 -0.5406 -0.5974
   31CHL1   C14 2236   1.773   1.340   7.483 -0.0457  0.0853 -0.4711
   31CHL1   H14 2237   1.736   1.241   7.515  1.4099  0.3434  2.3870
   31CHL1   C15 2238   1.696   1.443   7.564 -0.5160 -0.0048  0.0151
   31CHL1  H15A 2239   1.711   1.549   7.531  0.4551  0.0173  0.4883
   31CHL1  H15B 2240   1.585   1.435   7.562 -0.4210 -3.0028  1.7867
   31CHL1   C16 2241   1.743   1.430   7.706 -0.5304 -0.0274 -0.1316
   31CHL1  H16A 2242   1.766   1.527   7.755  0.9248  0.3207 -1.4246
   31CHL1  H16B 2243   1.673   1.374   7.771 -0.6822  0.5414  0.2025
   31CHL1   C17 2244   1.873   1.344   7.695  0.0079 -1.0058 -0.9824
   31CHL1   H17 2245   1.840   1.243   7.727 -1.3419 -0.2560  0.0840
   31CHL1   C13 2246   1.911   1.345   7.545  0.1662 -0.2989 -0.6273
   31CHL1   C18 2247   1.982   1.476   7.508 -0.5721 -0.0270 -0.4637
   31CHL1  H18A 2248   2.079   1.476   7.563 -0.3592 -2.1764 -0.7609
   31CHL1  H18B 2249   1.989   1.478   7.397 -2.5415 -0.7197 -0.6390
   31CHL1  H18C 2250   1.927   1.566   7.542  1.2771  0.5659  1.1444
   31CHL1   C12 2251   1.999   1.227   7.491  0.1014 -0.0644  0.5166
   31CHL1  H12A 2252   2.099   1.225   7.539 -0.0181  1.4747  0.8976
   31CHL1  H12B 2253   1.949   1.131   7.517 -0.9359 -0.0131 -1.1333
   31CHL1   C11 2254   2.001   1.223   7.337 -0.2748  0.0500 -0.0211
   31CHL1  H11A 2255   2.073   1.302   7.305  2.3706 -2.6918 -1.4532
   31CHL1  H11B 2256   2.034   1.118   7.320 -0.1085  0.0031  0.5612
   31CHL1    C9 2257   1.858   1.239   7.275  1.0475  0.3579  0.2295
   31CHL1    H9 2258   1.803   1.150   7.312 -0.5041  1.2461  0.1688
   31CHL1   C10 2259   1.850   1.246   7.117 -0.6790  0.0098 -0.0994
   31CHL1   C19 2260   1.939   1.363   7.073 -0.0156 -0.4577  0.0105
   31CHL1  H19A 2261   1.914   1.457   7.126 -1.1418  0.2551 -1.6921
   31CHL1  H19B 2262   2.045   1.340   7.098  0.4615 -1.0728 -2.2943
   31CHL1  H19C 2263   1.931   1.389   6.966  1.0991  1.8385  0.4314
   31CHL1    C1 2264   1.900   1.112   7.048 -0.3226 -0.0825 -0.1527
   31CHL1   H1A 2265   2.004   1.081   7.070 -0.1537 -0.5483 -1.5457
   31CHL1   H1B 2266   1.829   1.035   7.085 -0.1340 -0.8566 -1.3531
   31CHL1    C2 2267   1.889   1.105   6.893  0.0857 -0.6300 -0.3222
   31CHL1   H2A 2268   1.920   1.007   6.852 -1.1095 -0.2103 -2.3423
   31CHL1   H2B 2269   1.951   1.183   6.845  0.5306 -0.6960  0.1361
   31CHL1   C20 2270   1.974   1.385   7.802  0.0729  0.3314 -0.2032
   31CHL1   H20 2271   2.016   1.485   7.777  2.3096 -0.4079  0.3388
   31CHL1   C21 2272   2.104   1.295   7.789  0.3158 -0.5677 -0.7287
   31CHL1  H21A 2273   2.090   1.186   7.802  0.6064 -0.4485  0.7993
   31CHL1  H21B 2274   2.192   1.337   7.844 -0.8135  1.4303 -0.3316
   31CHL1  H21C 2275   2.137   1.329   7.688 -0.4813  1.2032 -0.4436
   31CHL1   C22 2276   1.917   1.388   7.950  0.6727  0.0060 -0.0118
   31CHL1  H22A 2277   1.858   1.482   7.953 -0.4876 -0.7224  0.8776
   31CHL1  H22B 2278   1.850   1.300   7.956  1.1526 -0.3541  0.1522
   31CHL1   C23 2279   2.021   1.386   8.065  0.2319  0.0047 -0.2495
   31CHL1  H23A 2280   2.066   1.284   8.069 -0.7449 -0.4577 -0.6662
   31CHL1  H23B 2281   2.103   1.457   8.045  1.2645  0.2313  3.9007
   31CHL1   C24 2282   1.954   1.421   8.204  0.0301  0.5334  0.1639
   31CHL1  H24A 2283   1.915   1.525   8.191  1.5709  0.9390 -1.7005
   31CHL1  H24B 2284   1.880   1.339   8.215  1.2385 -0.8030 -1.2784
   31CHL1   C25 2285   2.054   1.408   8.318 -0.2715  0.7254  0.4091
   31CHL1   H25 2286   2.089   1.302   8.321 -0.4010  0.5264 -2.3759
   31CHL1   C26 2287   2.179   1.499   8.288 -0.3506 -0.8596  0.2264
   31CHL1  H26A 2288   2.151   1.606   8.282  0.9223 -0.4914  0.6361
   31CHL1  H26B 2289   2.250   1.491   8.373  0.8739  1.8250 -0.4227
   31CHL1  H26C 2290   2.238   1.464   8.200  0.5760 -0.3627  0.6391
   31CHL1   C27 2291   1.985   1.444   8.457  0.6324  0.2173  0.3156
   31CHL1  H27A 2292   2.052   1.492   8.530 -0.4397  0.9128  0.8608
   31CHL1  H27B 2293   1.937   1.351   8.494  0.1571 -0.5004 -1.9183
   31CHL1  H27C 2294   1.908   1.522   8.441  1.4523  1.1343  0.7535
   32CHL1    C3 2295   3.068   3.523   7.139  0.5804  0.6694 -0.4092
   32CHL1    H3 2296   2.965   3.492   7.164  1.0958  0.7427  1.9878
   32CHL1    O3 2297   3.098   3.476   7.008 -0.4386  0.1363  0.2711
   32CHL1   H3' 2298   3.192   3.461   6.995 -0.6120 -0.0196 -0.9539
   32CHL1    C4 2299   3.079   3.673   7.131  0.3930 -0.1136  0.3783
   32CHL1   H4A 2300   3.178   3.700   7.090  0.0756  1.2331  0.4359
   32CHL1   H4B 2301   3.006   3.703   7.052 -0.4245  0.5169  1.3397
   32CHL1    C5 2302   3.053   3.741   7.265  0.0150  0.6649 -0.5243
   32CHL1    C6 2303   2.966   3.842   7.274 -0.5376  0.2347 -0.1188
   32CHL1    H6 2304   2.917   3.873   7.181 -0.0954  0.7159 -0.1979
   32CHL1    C7 2305   2.927   3.923   7.396  0.4152  0.2218  0.3024
   32CHL1   H7A 2306   2.921   4.032   7.373  0.8877  0.2545  0.3371
   32CHL1   H7B 2307   2.826   3.890   7.429  0.3286  1.2051  1.1023
   32CHL1    C8 2308   3.039   3.885   7.496  0.8182  0.1073 -0.9000
   32CHL1    H8 2309   3.132   3.937   7.466  1.6536  0.7606  2.4134
   32CHL1   C14 2310   2.986   3.947   7.626 -0.4865  0.4707 -0.3015
   32CHL1   H14 2311   2.890   3.895   7.643 -0.1825  0.1386  0.4599
   32CHL1   C15 2312   2.955   4.092   7.629  0.3305 -0.3107  0.7020
   32CHL1  H15A 2313   3.039   4.160   7.602 -0.5816  0.4108 -0.4129
   32CHL1  H15B 2314   2.873   4.127   7.563  0.9356  1.7130  0.9470
   32CHL1   C16 2315   2.932   4.122   7.778 -0.1041  0.6549 -0.0858
   32CHL1  H16A 2316   2.990   4.211   7.811 -1.8722  1.1990  1.7686
   32CHL1  H16B 2317   2.826   4.150   7.797 -0.5862  0.8308 -2.6937
   32CHL1   C17 2318   2.985   3.997   7.851  0.0210  0.0901 -0.0223
   32CHL1   H17 2319   2.904   3.925   7.871  0.8636 -1.0792 -0.7135
   32CHL1   C13 2320   3.075   3.924   7.746 -0.1045  0.7094 -1.0737
   32CHL1   C18 2321   3.215   3.991   7.732  0.0284 -0.3614 -0.0751
   32CHL1  H18A 2322   3.272   3.983   7.827  0.5156  3.8722  0.1929
   32CHL1  H18B 2323   3.270   3.944   7.647 -0.3619 -0.6100 -0.1929
   32CHL1  H18C 2324   3.202   4.100   7.713 -0.7604 -0.3100  0.7221
   32CHL1   C12 2325   3.096   3.768   7.764 -0.1395  0.9982  0.1759
   32CHL1  H12A 2326   3.166   3.745   7.847 -0.9383 -2.9027 -0.0285
   32CHL1  H12B 2327   2.997   3.723   7.785  0.0585 -2.0036 -4.0061
   32CHL1   C11 2328   3.154   3.703   7.636 -0.2674  0.4234 -0.3057
   32CHL1  H11A 2329   3.255   3.747   7.622 -0.8344  1.4378 -1.4385
   32CHL1  H11B 2330   3.160   3.593   7.646  0.4683  0.3569 -1.3456
   32CHL1    C9 2331   3.070   3.738   7.511  0.0111 -0.0191  0.2731
   32CHL1    H9 2332   2.971   3.689   7.524 -0.2472 -0.3376 -2.2963
   32CHL1   C10 2333   3.130   3.681   7.378  0.6249 -0.3602  0.0771
   32CHL1   C19 2334   3.279   3.727   7.359 -0.2377 -0.7084 -0.3713
   32CHL1  H19A 2335   3.335   3.663   7.430 -0.3530 -1.1093 -0.6365
   32CHL1  H19B 2336   3.315   3.702   7.257  0.8555 -2.4723  0.4163
   32CHL1  H19C 2337   3.310   3.829   7.391  0.4807 -0.7692 -0.8542
   32CHL1    C1 2338   3.129   3.525   7.369  0.4454 -1.0291 -1.0188
   32CHL1   H1A 2339   3.200   3.494   7.449  0.2140 -1.9226 -1.1506
   32CHL1   H1B 2340   3.029   3.498   7.410  0.1527  2.4814  0.9341
   32CHL1    C2 2341   3.160   3.458   7.241 -0.1792  1.0467  0.5908
   32CHL1   H2A 2342   3.139   3.349   7.246  0.0236  0.9900  0.2224
   32CHL1   H2B 2343   3.268   3.468   7.221 -0.0496 -2.7436 -1.7451
   32CHL1   C20 2344   3.039   4.034   7.988  0.3336  0.4756  0.1145
   32CHL1   H20 2345   3.150   4.040   7.991  0.2714  2.0002  3.2870
   32CHL1   C21 2346   3.010   3.911   8.079  0.1216  0.4565  0.5807
   32CHL1  H21A 2347   3.088   3.896   8.156  0.3144  2.1315  0.7458
   32CHL1  H21B 2348   3.010   3.815   8.021 -2.9057  1.4478 -1.3194
   32CHL1  H21C 2349   2.912   3.927   8.129 -1.8916 -2.7765 -1.8577
   32CHL1   C22 2350   2.972   4.161   8.048  0.3299 -0.1837 -0.1384
   32CHL1  H22A 2351   3.021   4.245   7.994 -1.5218  0.3784 -1.0512
   32CHL1  H22B 2352   2.862   4.151   8.036 -0.5052  1.9928  3.9419
   32CHL1   C23 2353   2.997   4.188   8.196  0.2829  0.4726 -0.1945
   32CHL1  H23A 2354   2.958   4.102   8.255  1.8306 -0.2893 -0.2173
   32CHL1  H23B 2355   3.104   4.195   8.225 -0.1702  0.8230  1.5486
   32CHL1   C24 2356   2.926   4.322   8.243 -0.1845  0.2330  0.2563
   32CHL1  H24A 2357   2.965   4.389   8.163 -1.3453 -0.7332 -1.1751
   32CHL1  H24B 2358   2.816   4.321   8.228 -0.4355 -1.6639  1.8869
   32CHL1   C25 2359   2.950   4.357   8.393 -0.9777  0.4709 -0.3385
   32CHL1   H25 2360   3.058   4.355   8.419 -1.2519 -0.1710  0.8274
   32CHL1   C26 2361   2.901   4.496   8.416  0.3111  0.5298  0.4377
   32CHL1  H26A 2362   2.939   4.574   8.347 -0.9693  1.0345  0.2728
   32CHL1  H26B 2363   2.790   4.502   8.411  0.2116 -1.5528 -1.3941
   32CHL1  H26C 2364   2.928   4.519   8.521 -1.0356  0.1738  0.8780
   32CHL1   C27 2365   2.875   4.266   8.498  0.0144 -0.1457 -0.8507
   32CHL1  H27A 2366   2.890   4.312   8.598  0.2179  1.7831 -1.7318
   32CHL1  H27B 2367   2.765   4.272   8.479  0.1266  4.9152 -1.0790
   32CHL1  H27C 2368   2.920   4.165   8.488  0.4767  0.2594 -3.4846
   33CHL1    C3 2369   3.675   1.312   6.642  0.7797  0.2477  0.3977
   33CHL1    H3 2370   3.777   1.269   6.644  1.0624  0.8856  0.1052
   33CHL1    O3 2371   3.650   1.335   6.502  0.0764  0.0906 -0.2360
   33CHL1   H3' 2372   3.557   1.356   6.493 -0.5905 -2.4667 -0.3232
   33CHL1    C4 2373   3.571   1.211   6.705  1.1193 -0.4023 -0.1633
   33CHL1   H4A 2374   3.471   1.256   6.688  1.0971 -1.0676 -1.9958
   33CHL1   H4B 2375   3.592   1.115   6.654 -0.0045 -0.4769 -0.5044
   33CHL1    C5 2376   3.589   1.193   6.850 -0.4997  0.0780  0.0594
   33CHL1    C6 2377   3.602   1.069   6.896 -0.6046  0.1640 -0.1453
   33CHL1    H6 2378   3.610   0.979   6.833  1.9497  0.4245 -0.3259
   33CHL1    C7 2379   3.627   1.041   7.041 -0.2263 -0.8559  0.1898
   33CHL1   H7A 2380   3.565   0.959   7.082  0.0734 -0.8082  0.7504
   33CHL1   H7B 2381   3.730   1.001   7.052  0.4381 -0.0406 -2.2664
   33CHL1    C8 2382   3.610   1.163   7.135  0.0893 -0.4542  0.2163
   33CHL1    H8 2383   3.502   1.183   7.150 -0.0223 -1.9112  1.6551
   33CHL1   C14 2384   3.679   1.151   7.268 -0.1418 -0.0687 -0.6971
   33CHL1   H14 2385   3.790   1.151   7.262  0.0065 -0.2673  1.2335
   33CHL1   C15 2386   3.670   1.013   7.349  0.3593  0.0267  0.5311
   33CHL1  H15A 2387   3.563   0.983   7.349 -0.3815  2.4899 -0.3254
   33CHL1  H15B 2388   3.732   0.937   7.297  0.5638  0.6147 -0.0859
   33CHL1   C16 2389   3.722   1.044   7.490 -0.1137 -0.2180  0.4568
   33CHL1  H16A 2390   3.637   1.012   7.554 -0.5303  1.7733  0.9388
   33CHL1  H16B 2391   3.813   0.982   7.506  0.9308  0.9928 -0.6027
   33CHL1   C17 2392   3.735   1.199   7.502  0.4477 -0.4111  0.4315
   33CHL1   H17 2393   3.835   1.234   7.470 -0.6922  2.3694 -0.4677
   33CHL1   C13 2394   3.656   1.262   7.376 -0.8613 -0.0049  0.2072
   33CHL1   C18 2395   3.503   1.271   7.403 -0.2056  0.4600  0.3603
   33CHL1  H18A 2396   3.482   1.353   7.475 -1.5879 -0.3704  0.9396
   33CHL1  H18B 2397   3.448   1.296   7.310  0.4569 -1.4300 -0.6020
   33CHL1  H18C 2398   3.455   1.187   7.457 -1.3615  0.7435 -0.1972
   33CHL1   C12 2399   3.718   1.386   7.310 -0.0998 -0.0419  0.1247
   33CHL1  H12A 2400   3.707   1.472   7.379  0.7412 -0.3256  0.6205
   33CHL1  H12B 2401   3.825   1.368   7.285 -0.4098 -0.7462 -0.7571
   33CHL1   C11 2402   3.650   1.421   7.178 -0.1521 -0.3155 -0.0211
   33CHL1  H11A 2403   3.544   1.451   7.192 -0.1354 -0.0929 -0.3702
   33CHL1  H11B 2404   3.702   1.506   7.131 -1.8170  0.9219  0.2951
   33CHL1    C9 2405   3.655   1.299   7.077  0.2402  0.4779 -1.3445
   33CHL1    H9 2406   3.762   1.278   7.058 -0.1763 -1.4918 -1.7705
   33CHL1   C10 2407   3.596   1.325   6.939  0.4991 -0.0581 -0.2880
   33CHL1   C19 2408   3.448   1.373   6.949 -0.2809 -0.2461  0.2106
   33CHL1  H19A 2409   3.391   1.293   6.999 -0.7201 -0.2410 -0.2716
   33CHL1  H19B 2410   3.450   1.468   7.008 -3.3284 -0.8343  1.4469
   33CHL1  H19C 2411   3.393   1.393   6.855  0.2471 -2.9656 -0.7722
   33CHL1    C1 2412   3.686   1.423   6.865  0.6478  0.9997  0.0853
   33CHL1   H1A 2413   3.685   1.523   6.914  0.7638  0.8128  0.4774
   33CHL1   H1B 2414   3.790   1.384   6.871 -0.0232 -1.0817 -1.2102
   33CHL1    C2 2415   3.650   1.442   6.718  0.2803 -0.5108 -0.2386
   33CHL1   H2A 2416   3.714   1.521   6.674  0.0529  0.0490  0.4237
   33CHL1   H2B 2417   3.547   1.479   6.698  0.5559  0.0845 -0.5681
   33CHL1   C20 2418   3.697   1.255   7.643 -0.0471  0.7075 -0.1651
   33CHL1   H20 2419   3.592   1.231   7.668 -1.3113  2.3047 -3.4640
   33CHL1   C21 2420   3.721   1.409   7.653 -0.2514  0.0651  0.1807
   33CHL1  H21A 2421   3.707   1.454   7.754  0.7455 -1.0124  0.8229
   33CHL1  H21B 2422   3.655   1.461   7.580  1.9330 -1.1729 -2.8877
   33CHL1  H21C 2423   3.823   1.445   7.631 -0.2635  0.1901  0.3236
   33CHL1   C22 2424   3.781   1.181   7.757  0.2325 -0.1981 -0.0190
   33CHL1  H22A 2425   3.750   1.078   7.730 -3.2521 -0.1362  2.9830
   33CHL1  H22B 2426   3.891   1.195   7.746  0.1017  0.1814 -0.9888
   33CHL1   C23 2427   3.729   1.197   7.893 -0.1457 -0.1178  0.2248
   33CHL1  H23A 2428   3.721   1.304   7.921 -2.9239  0.2854 -1.6679
   33CHL1  H23B 2429   3.625   1.157   7.898 -0.0385 -0.2833  1.5681
   33CHL1   C24 2430   3.806   1.121   7.999 -0.3392 -0.0851 -0.4743
   33CHL1  H24A 2431   3.799   1.012   7.980 -4.1930  0.2953 -2.0855
   33CHL1  H24B 2432   3.912   1.155   7.995 -0.6922  1.0568 -0.6053
   33CHL1   C25 2433   3.769   1.133   8.140 -0.3053 -0.3904 -0.3650
   33CHL1   H25 2434   3.746   1.241   8.155 -0.3879 -0.7445  2.8206
   33CHL1   C26 2435   3.646   1.054   8.177 -0.2030 -0.2720 -0.2844
   33CHL1  H26A 2436   3.676   0.949   8.197  0.9077  0.0214 -0.3476
   33CHL1  H26B 2437   3.601   1.087   8.273  2.4924  0.2614  0.8907
   33CHL1  H26C 2438   3.569   1.058   8.097 -1.0312  1.2416  0.5466
   33CHL1   C27 2439   3.889   1.094   8.231  0.0642 -0.1673  0.3215
   33CHL1  H27A 2440   3.910   0.986   8.220 -0.9492 -0.2817 -0.6926
   33CHL1  H27B 2441   3.977   1.154   8.199 -0.7462  0.7068 -0.3195
   33CHL1  H27C 2442   3.863   1.114   8.337  1.0202 -0.1537  0.5585
   34CHL1    C3 2443   4.268   3.704   6.973  0.4059 -0.0441  0.0482
   34CHL1    H3 2444   4.212   3.780   6.914  2.2228 -0.2995 -2.1327
   34CHL1    O3 2445   4.330   3.630   6.867  0.4677 -0.0178  0.1537
   34CHL1   H3' 2446   4.367   3.702   6.816 -3.2872  0.4132 -2.3610
   34CHL1    C4 2447   4.374   3.767   7.068  0.6404 -0.7127 -1.0794
   34CHL1   H4A 2448   4.446   3.686   7.094  0.3156 -0.9035 -0.7657
   34CHL1   H4B 2449   4.426   3.843   7.006 -0.8192  1.3862  0.1422
   34CHL1    C5 2450   4.317   3.839   7.190 -1.1731  1.0281  0.8568
   34CHL1    C6 2451   4.347   3.965   7.221 -0.8697 -0.1971  0.0309
   34CHL1    H6 2452   4.419   4.020   7.159 -2.6831 -0.0548 -2.0814
   34CHL1    C7 2453   4.292   4.032   7.350  0.2127  0.4022  0.3058
   34CHL1   H7A 2454   4.369   4.099   7.393  0.9430 -0.8358  0.9719
   34CHL1   H7B 2455   4.202   4.091   7.320 -1.5248 -0.6821  2.9753
   34CHL1    C8 2456   4.242   3.928   7.454 -0.4167  0.4700  0.7022
   34CHL1    H8 2457   4.335   3.881   7.491 -0.3987 -2.2110 -2.3659
   34CHL1   C14 2458   4.171   3.995   7.572 -0.6676 -0.2757  0.1038
   34CHL1   H14 2459   4.085   4.045   7.523  0.1948  1.1031 -0.0469
   34CHL1   C15 2460   4.232   4.128   7.638  0.4686  0.0695 -0.3603
   34CHL1  H15A 2461   4.331   4.095   7.676 -0.3472 -0.0462  1.8650
   34CHL1  H15B 2462   4.222   4.217   7.573 -0.6306  0.0282 -0.2777
   34CHL1   C16 2463   4.141   4.141   7.769 -0.3250  0.7233 -0.0834
   34CHL1  H16A 2464   4.207   4.139   7.859  0.0101 -2.8701 -0.2613
   34CHL1  H16B 2465   4.086   4.237   7.779 -1.2557 -0.0256  3.0130
   34CHL1   C17 2466   4.045   4.016   7.776  0.3898 -0.2872 -0.0988
   34CHL1   H17 2467   3.964   4.047   7.707 -0.9833 -2.7736  0.2768
   34CHL1   C13 2468   4.106   3.908   7.684  0.6794  0.8793  0.1340
   34CHL1   C18 2469   4.223   3.831   7.747  0.1885  0.5781  0.5460
   34CHL1  H18A 2470   4.186   3.752   7.815 -2.6745  1.1582 -0.2165
   34CHL1  H18B 2471   4.272   3.773   7.666 -0.9570 -1.8279  1.4920
   34CHL1  H18C 2472   4.305   3.888   7.797 -0.3139 -0.0773  2.1573
   34CHL1   C12 2473   4.007   3.817   7.611  0.0875 -0.1844  0.8172
   34CHL1  H12A 2474   3.939   3.764   7.682 -0.8391 -0.0490  0.0461
   34CHL1  H12B 2475   3.934   3.885   7.562 -1.4103 -1.1287  1.6645
   34CHL1   C11 2476   4.070   3.734   7.498 -0.6259  0.2526  0.5473
   34CHL1  H11A 2477   4.148   3.661   7.527  1.6796  0.7702 -3.6297
   34CHL1  H11B 2478   3.989   3.685   7.440 -1.5436  2.3669 -0.0631
   34CHL1    C9 2479   4.151   3.825   7.396  0.5363  0.5857  0.5144
   34CHL1    H9 2480   4.074   3.885   7.342  1.9742 -0.5757 -3.1962
   34CHL1   C10 2481   4.221   3.747   7.276 -0.0704  0.0251 -0.1115
   34CHL1   C19 2482   4.309   3.640   7.337 -0.8500  0.3155 -0.6930
   34CHL1  H19A 2483   4.358   3.679   7.429  0.5426  0.0416 -1.2905
   34CHL1  H19B 2484   4.241   3.563   7.379  2.2514 -1.7060  1.0361
   34CHL1  H19C 2485   4.373   3.590   7.261 -2.8204 -2.5986 -0.6037
   34CHL1    C1 2486   4.115   3.693   7.179 -0.2014  1.1095 -0.8406
   34CHL1   H1A 2487   4.045   3.631   7.239  0.8514  0.6837 -0.0290
   34CHL1   H1B 2488   4.042   3.770   7.147 -2.2295 -0.4673 -0.2658
   34CHL1    C2 2489   4.178   3.615   7.058 -0.3510  0.1758 -0.1818
   34CHL1   H2A 2490   4.090   3.573   7.004 -1.2170 -1.9839  2.6159
   34CHL1   H2B 2491   4.242   3.532   7.096  0.4167  0.6223 -0.4854
   34CHL1   C20 2492   3.981   3.992   7.912  0.2391  0.0982  0.1006
   34CHL1   H20 2493   3.912   3.906   7.898  1.1494 -0.7851  0.8825
   34CHL1   C21 2494   3.895   4.110   7.949  1.4345 -0.1425 -0.0573
   34CHL1  H21A 2495   3.829   4.132   7.863 -0.5222 -0.9220  1.1801
   34CHL1  H21B 2496   3.958   4.197   7.977  1.2197 -0.9461  3.3422
   34CHL1  H21C 2497   3.830   4.083   8.034 -1.8562  0.0065 -2.3326
   34CHL1   C22 2498   4.079   3.965   8.034 -0.1799  0.4417 -0.5867
   34CHL1  H22A 2499   4.156   3.896   7.995  1.4064  0.6827  1.8872
   34CHL1  H22B 2500   4.127   4.061   8.062  0.1477 -0.3422  1.7258
   34CHL1   C23 2501   4.015   3.884   8.148  0.3746 -0.3010 -0.0900
   34CHL1  H23A 2502   3.957   3.942   8.223  5.1159  2.7114  1.7248
   34CHL1  H23B 2503   3.952   3.801   8.110  2.0084 -0.7211 -2.0510
   34CHL1   C24 2504   4.122   3.820   8.238  0.4201  0.3723 -0.1330
   34CHL1  H24A 2505   4.190   3.766   8.168 -0.4927  1.7770 -2.2260
   34CHL1  H24B 2506   4.192   3.894   8.285  1.6251 -0.6858 -0.2082
   34CHL1   C25 2507   4.066   3.718   8.349 -0.6908 -0.2312  0.5691
   34CHL1   H25 2508   4.004   3.643   8.297  1.8787 -0.5378 -2.3042
   34CHL1   C26 2509   4.187   3.649   8.411 -0.1204 -0.1825  0.4204
   34CHL1  H26A 2510   4.146   3.573   8.481 -0.3197 -0.4485  0.0204
   34CHL1  H26B 2511   4.232   3.590   8.328 -0.0515  1.3943 -0.7034
   34CHL1  H26C 2512   4.257   3.719   8.462  1.7095 -2.0363  0.5852
   34CHL1   C27 2513   3.967   3.779   8.454  0.4479 -0.0053 -0.2513
   34CHL1  H27A 2514   3.946   3.707   8.535  1.9936 -0.3562 -0.1313
   34CHL1  H27B 2515   4.006   3.856   8.524  0.1464 -1.2297  1.3133
   34CHL1  H27C 2516   3.881   3.824   8.400  0.8862 -1.0906 -1.9048
   35CHL1    C3 2517   0.825   5.882   7.324  0.1741 -0.3886  0.1509
   35CHL1    H3 2518   0.842   5.776   7.352  0.4554 -0.8398 -1.6136
   35CHL1    O3 2519   0.855   5.908   7.188 -0.0905  0.0228  0.2975
   35CHL1   H3' 2520   0.791   5.848   7.150 -0.1039  0.3564 -0.2169
   35CHL1    C4 2521   0.676   5.907   7.354  0.1864  0.1950 -0.4741
   35CHL1   H4A 2522   0.631   6.001   7.315 -0.0814  0.5127  0.5615
   35CHL1   H4B 2523   0.617   5.837   7.291 -1.7484  0.2627  1.1767
   35CHL1    C5 2524   0.637   5.874   7.497  0.3142 -0.0966  0.5678
   35CHL1    C6 2525   0.537   5.785   7.524 -0.4695  0.7137 -0.2692
   35CHL1    H6 2526   0.477   5.746   7.441  1.5707  0.9310 -1.9477
   35CHL1    C7 2527   0.494   5.746   7.665  0.1787  0.1815 -0.1306
   35CHL1   H7A 2528   0.385   5.758   7.683  0.6473  4.5595  0.7313
   35CHL1   H7B 2529   0.518   5.643   7.701  1.2388 -0.2133 -1.8295
   35CHL1    C8 2530   0.554   5.845   7.761  0.5293 -0.0621  0.1792
   35CHL1    H8 2531   0.497   5.940   7.764 -0.9549 -0.8480 -1.4378
   35CHL1   C14 2532   0.530   5.781   7.903 -0.0615  0.3412  0.2178
   35CHL1   H14 2533   0.595   5.691   7.907  0.8541  0.9663 -0.1957
   35CHL1   C15 2534   0.389   5.748   7.936 -0.2699 -0.0983 -0.9601
   35CHL1  H15A 2535   0.310   5.818   7.901  0.6274  1.4623  0.0084
   35CHL1  H15B 2536   0.367   5.646   7.899 -1.9337 -1.1487  2.5702
   35CHL1   C16 2537   0.389   5.750   8.090 -0.3049  0.0136 -0.3379
   35CHL1  H16A 2538   0.308   5.824   8.109 -0.4455  0.1473 -1.3753
   35CHL1  H16B 2539   0.364   5.648   8.127 -0.0317  0.3273  0.7601
   35CHL1   C17 2540   0.528   5.800   8.141 -0.2588 -0.7813 -0.7556
   35CHL1   H17 2541   0.600   5.716   8.155  1.8015  1.2910  2.4831
   35CHL1   C13 2542   0.588   5.872   8.018  0.6751  0.8193 -0.4664
   35CHL1   C18 2543   0.535   6.013   8.022 -0.2920 -0.2406  1.1995
   35CHL1  H18A 2544   0.426   6.029   8.038 -0.3600  2.3902 -1.2313
   35CHL1  H18B 2545   0.594   6.076   8.091  2.5386  0.8669 -1.9434
   35CHL1  H18C 2546   0.534   6.067   7.925 -1.0153  2.3542  2.5513
   35CHL1   C12 2547   0.741   5.871   7.993  0.1100 -0.6645 -0.1180
   35CHL1  H12A 2548   0.788   5.933   8.072  0.8828 -1.9443  0.4616
   35CHL1  H12B 2549   0.785   5.769   7.988 -0.0079 -0.6542 -1.9308
   35CHL1   C11 2550   0.776   5.939   7.867 -0.2376 -0.2153  0.1844
   35CHL1  H11A 2551   0.741   6.045   7.868 -0.1315 -0.1028  3.3701
   35CHL1  H11B 2552   0.886   5.936   7.853 -0.0385  0.9481  1.2805
   35CHL1    C9 2553   0.704   5.865   7.740  0.0947 -0.4845 -0.2049
   35CHL1    H9 2554   0.753   5.765   7.745  2.1612  0.5042  0.2949
   35CHL1   C10 2555   0.722   5.939   7.601 -0.1083 -0.9023 -0.0797
   35CHL1   C19 2556   0.688   6.090   7.617 -0.3605 -0.2762  0.0683
   35CHL1  H19A 2557   0.763   6.139   7.682  1.6671 -2.5400 -0.3992
   35CHL1  H19B 2558   0.692   6.134   7.516  1.5654  0.5310  0.4644
   35CHL1  H19C 2559   0.585   6.104   7.658 -1.1961 -2.9173 -0.8576
   35CHL1    C1 2560   0.880   5.935   7.561 -0.6978 -0.6564 -0.0910
   35CHL1   H1A 2561   0.924   6.022   7.615  0.0267  0.3459 -2.1734
   35CHL1   H1B 2562   0.937   5.849   7.603  1.5232  1.1205  0.7915
   35CHL1    C2 2563   0.915   5.959   7.415 -0.4222  0.0982  0.4755
   35CHL1   H2A 2564   1.015   5.924   7.380 -0.4274  2.1550 -1.8429
   35CHL1   H2B 2565   0.905   6.069   7.407 -1.2624 -0.0545 -0.7935
   35CHL1   C20 2566   0.524   5.880   8.278  0.6568  0.1951  0.2781
   35CHL1   H20 2567   0.487   5.983   8.262  2.5229  0.9341  0.4969
   35CHL1   C21 2568   0.672   5.907   8.327  0.2648 -0.0988 -0.0822
   35CHL1  H21A 2569   0.726   5.810   8.322  0.5751  0.1151 -1.1255
   35CHL1  H21B 2570   0.672   5.944   8.432  2.0361  0.1911 -0.1520
   35CHL1  H21C 2571   0.728   5.973   8.258  1.9157  1.2012  2.3448
   35CHL1   C22 2572   0.441   5.821   8.391 -0.7641 -0.6537  0.1748
   35CHL1  H22A 2573   0.449   5.892   8.476 -1.3695  0.0698 -0.3594
   35CHL1  H22B 2574   0.334   5.828   8.364 -0.2823  0.9370 -1.5168
   35CHL1   C23 2575   0.472   5.671   8.422 -0.1879  0.4317 -0.9725
   35CHL1  H23A 2576   0.493   5.615   8.328 -1.4631 -1.7349 -0.0377
   35CHL1  H23B 2577   0.567   5.667   8.481 -0.8233 -1.3306  0.0099
   35CHL1   C24 2578   0.358   5.610   8.505 -0.6325  0.1411  0.5448
   35CHL1  H24A 2579   0.345   5.667   8.599 -1.9763  0.5886  0.1058
   35CHL1  H24B 2580   0.269   5.631   8.443 -0.7056 -1.3906  0.0880
   35CHL1   C25 2581   0.359   5.464   8.533 -0.3314  0.7407  0.7875
   35CHL1   H25 2582   0.278   5.449   8.607 -2.3551  2.0812 -1.0456
   35CHL1   C26 2583   0.331   5.407   8.391 -0.3787 -0.2919  0.0275
   35CHL1  H26A 2584   0.332   5.297   8.403 -1.1843 -0.1683  1.4411
   35CHL1  H26B 2585   0.237   5.438   8.341 -0.5473 -1.4652 -0.4028
   35CHL1  H26C 2586   0.423   5.427   8.332  1.3510 -0.4315  2.5035
   35CHL1   C27 2587   0.488   5.406   8.586  0.0132 -0.2758 -0.0583
   35CHL1  H27A 2588   0.579   5.446   8.536 -0.0395 -2.1601 -1.7912
   35CHL1  H27B 2589   0.487   5.296   8.598 -0.1905 -0.2970 -0.2452
   35CHL1  H27C 2590   0.505   5.447   8.687  2.0344 -1.4308  0.1152
   36CHL1    C3 2591   1.669   4.615   7.106 -0.2642 -0.3665  0.5853
   36CHL1    H3 2592   1.595   4.536   7.078  0.6065 -1.6570  1.7817
   36CHL1    O3 2593   1.718   4.656   6.980 -0.5072 -0.0488 -0.0185
   36CHL1   H3' 2594   1.642   4.647   6.922 -1.7196 -1.7647  1.6730
   36CHL1    C4 2595   1.616   4.737   7.183 -0.4599  0.2882 -0.4526
   36CHL1   H4A 2596   1.705   4.802   7.171 -0.7985  0.7390 -0.5557
   36CHL1   H4B 2597   1.534   4.774   7.117 -2.0063 -0.1798  1.1393
   36CHL1    C5 2598   1.581   4.711   7.325 -0.0409 -0.0715  0.1863
   36CHL1    C6 2599   1.462   4.748   7.374  0.1220  0.2775 -0.7622
   36CHL1    H6 2600   1.386   4.799   7.314 -1.2534 -0.2459  0.4667
   36CHL1    C7 2601   1.413   4.717   7.514  0.2373 -0.3098 -0.7032
   36CHL1   H7A 2602   1.360   4.804   7.558  1.2750 -0.1798  0.3202
   36CHL1   H7B 2603   1.337   4.638   7.493 -0.4924  0.3113 -0.4608
   36CHL1    C8 2604   1.518   4.664   7.598 -0.7034 -0.3667 -0.1755
   36CHL1    H8 2605   1.588   4.745   7.627  2.0076 -2.4311 -0.4583
   36CHL1   C14 2606   1.461   4.598   7.723  0.5534  0.4724  0.1889
   36CHL1   H14 2607   1.412   4.506   7.685 -0.5934  1.7072 -1.4798
   36CHL1   C15 2608   1.370   4.684   7.811  0.7743  0.4286  0.3273
   36CHL1  H15A 2609   1.408   4.786   7.833  1.7843  0.2644 -0.5601
   36CHL1  H15B 2610   1.266   4.696   7.773 -0.3263 -1.5218  2.4791
   36CHL1   C16 2611   1.363   4.602   7.935 -0.1173  0.8543 -1.0507
   36CHL1  H16A 2612   1.363   4.674   8.020 -1.5890 -0.1099 -0.1914
   36CHL1  H16B 2613   1.270   4.545   7.956  0.5132  0.7841  1.9983
   36CHL1   C17 2614   1.476   4.493   7.931  0.5595 -0.1965 -0.3235
   36CHL1   H17 2615   1.420   4.399   7.910 -0.4256  0.1609  0.6225
   36CHL1   C13 2616   1.564   4.538   7.817  0.0695 -0.4576  1.0701
   36CHL1   C18 2617   1.666   4.647   7.859 -0.6191 -0.4679  0.1250
   36CHL1  H18A 2618   1.722   4.685   7.771  1.5126  1.4587  2.1806
   36CHL1  H18B 2619   1.625   4.743   7.896  1.3733  0.7430 -0.6615
   36CHL1  H18C 2620   1.742   4.605   7.928 -0.2706 -2.1879 -1.2181
   36CHL1   C12 2621   1.639   4.431   7.736 -0.0200  0.1546 -0.4802
   36CHL1  H12A 2622   1.726   4.394   7.794  1.6100  3.5653 -0.4599
   36CHL1  H12B 2623   1.557   4.358   7.721  0.5784 -1.2174  2.3062
   36CHL1   C11 2624   1.705   4.471   7.604  0.8268  0.0483 -1.0633
   36CHL1  H11A 2625   1.801   4.521   7.628  0.9608  0.2713 -2.0208
   36CHL1  H11B 2626   1.731   4.378   7.547  0.4619  0.1312 -1.3661
   36CHL1    C9 2627   1.611   4.561   7.524 -0.3718  0.4197 -0.0834
   36CHL1    H9 2628   1.541   4.491   7.473  1.3563  1.4450 -4.2798
   36CHL1   C10 2629   1.682   4.625   7.402 -0.2943 -0.0401 -0.1577
   36CHL1   C19 2630   1.803   4.716   7.440 -0.2368  0.0733 -0.3852
   36CHL1  H19A 2631   1.872   4.658   7.505 -1.6405 -0.8216  0.3677
   36CHL1  H19B 2632   1.859   4.759   7.354 -1.6071  3.6713  0.3317
   36CHL1  H19C 2633   1.768   4.800   7.505 -1.3825 -0.1345 -0.7153
   36CHL1    C1 2634   1.742   4.508   7.317  0.1662  0.4201 -0.9720
   36CHL1   H1A 2635   1.819   4.461   7.381 -3.8386 -3.1163  1.8660
   36CHL1   H1B 2636   1.670   4.424   7.305  1.3174 -0.3282 -3.0796
   36CHL1    C2 2637   1.784   4.548   7.173  0.5815 -0.1506  0.4582
   36CHL1   H2A 2638   1.822   4.458   7.120  0.0705  0.2987 -0.7203
   36CHL1   H2B 2639   1.871   4.614   7.192 -0.2049  1.0432  0.0056
   36CHL1   C20 2640   1.547   4.476   8.071  0.5480 -0.7036 -0.6965
   36CHL1   H20 2641   1.584   4.578   8.091 -1.3104 -0.4286  1.7808
   36CHL1   C21 2642   1.654   4.364   8.060  0.1198 -1.1222  0.3440
   36CHL1  H21A 2643   1.751   4.393   8.014 -1.0297 -0.4964 -1.8485
   36CHL1  H21B 2644   1.610   4.276   8.007  1.5955 -1.3639 -0.5625
   36CHL1  H21C 2645   1.678   4.343   8.166  0.3860  2.9107  1.2171
   36CHL1   C22 2646   1.439   4.448   8.183  0.1201 -0.0849  0.1862
   36CHL1  H22A 2647   1.361   4.528   8.184 -1.3987 -1.4915 -0.2901
   36CHL1  H22B 2648   1.371   4.366   8.151  1.6668 -0.6388 -1.8840
   36CHL1   C23 2649   1.492   4.412   8.320 -0.5280 -0.1045 -0.2986
   36CHL1  H23A 2650   1.403   4.415   8.386 -0.5285 -0.0987 -0.2999
   36CHL1  H23B 2651   1.541   4.313   8.325  0.7978  0.5552  0.6358
   36CHL1   C24 2652   1.580   4.522   8.385  0.4868 -0.0883 -0.1570
   36CHL1  H24A 2653   1.676   4.528   8.329  0.5903  0.1090  0.0394
   36CHL1  H24B 2654   1.525   4.617   8.365  0.7489 -0.1327 -1.1336
   36CHL1   C25 2655   1.625   4.501   8.530  0.1352 -0.1576  0.2848
   36CHL1   H25 2656   1.537   4.460   8.585 -0.1368 -0.5665 -0.4330
   36CHL1   C26 2657   1.737   4.406   8.536  0.2935  0.2930 -0.4131
   36CHL1  H26A 2658   1.773   4.390   8.640  1.5245  2.3839 -0.4640
   36CHL1  H26B 2659   1.711   4.309   8.490  0.4068 -0.0142  0.1594
   36CHL1  H26C 2660   1.818   4.444   8.471 -0.5700  0.3897 -1.4764
   36CHL1   C27 2661   1.678   4.633   8.585 -0.3083  0.1063  0.1994
   36CHL1  H27A 2662   1.772   4.671   8.539  0.3423  0.3002  1.6410
   36CHL1  H27B 2663   1.604   4.714   8.566  0.0725  0.5939  0.7462
   36CHL1  H27C 2664   1.696   4.620   8.694  0.1647  1.1752  0.2610
   37CHL1    C3 2665   5.077   5.187   6.825 -0.3438  0.1251 -0.3205
   37CHL1    H3 2666   5.184   5.216   6.830  0.1682 -1.5899 -0.4036
   37CHL1    O3 2667   5.047   5.175   6.692  0.2281  0.0535 -0.2268
   37CHL1   H3' 2668   5.114   5.231   6.651 -0.5331 -0.5495 -2.4438
   37CHL1    C4 2669   5.064   5.055   6.902  0.0204 -0.2826 -0.0038
   37CHL1   H4A 2670   4.964   5.013   6.876  0.4284 -0.4354 -1.3607
   37CHL1   H4B 2671   5.129   4.986   6.845 -1.6828 -0.2593 -2.0920
   37CHL1    C5 2672   5.087   5.069   7.048 -0.3918 -0.3474  0.0035
   37CHL1    C6 2673   5.176   4.996   7.113 -0.5684  0.0580  0.6192
   37CHL1    H6 2674   5.231   4.916   7.061  0.2721  1.5968 -0.9726
   37CHL1    C7 2675   5.184   4.990   7.257  0.1945 -0.2881 -0.6637
   37CHL1   H7A 2676   5.211   4.891   7.300 -0.4757 -0.1415  0.1285
   37CHL1   H7B 2677   5.266   5.062   7.276 -0.8442  1.6718 -3.0385
   37CHL1    C8 2678   5.071   5.064   7.333  0.7242 -0.6989 -0.6850
   37CHL1    H8 2679   4.980   5.001   7.339 -0.2753  0.8434  1.9487
   37CHL1   C14 2680   5.102   5.087   7.480 -0.1306  0.2723  0.6193
   37CHL1   H14 2681   5.203   5.134   7.479  0.2618 -0.4898 -1.3928
   37CHL1   C15 2682   5.134   4.963   7.568  0.1391 -0.1109 -0.0813
   37CHL1  H15A 2683   5.053   4.891   7.541  0.5133 -1.1733  1.4553
   37CHL1  H15B 2684   5.236   4.922   7.551 -0.1162 -0.4189 -0.8791
   37CHL1   C16 2685   5.119   5.003   7.708  0.0549  0.2296  0.4052
   37CHL1  H16A 2686   5.050   4.931   7.756 -2.6828  1.9496 -0.7020
   37CHL1  H16B 2687   5.210   5.005   7.772 -0.1989 -0.2673  0.7823
   37CHL1   C17 2688   5.064   5.147   7.699 -0.5599  1.1518  0.4828
   37CHL1   H17 2689   5.157   5.207   7.697 -0.1657  0.5442 -1.3775
   37CHL1   C13 2690   5.001   5.172   7.561  0.7193 -0.6695  0.2270
   37CHL1   C18 2691   4.859   5.103   7.557 -0.6385 -0.0631 -0.7840
   37CHL1  H18A 2692   4.814   5.098   7.456 -0.6444 -2.6901 -0.7155
   37CHL1  H18B 2693   4.858   4.993   7.573 -1.0282 -0.3455 -2.5217
   37CHL1  H18C 2694   4.782   5.154   7.618 -0.2724  1.2145 -1.3468
   37CHL1   C12 2695   5.009   5.312   7.501  0.0814  0.8821 -0.6870
   37CHL1  H12A 2696   4.936   5.377   7.555 -0.4960 -1.7247  1.8973
   37CHL1  H12B 2697   5.113   5.342   7.523  0.9882 -1.7774 -1.0201
   37CHL1   C11 2698   4.971   5.305   7.355  0.2811 -0.4038 -0.1293
   37CHL1  H11A 2699   4.863   5.279   7.365 -0.0805  0.6440 -1.1001
   37CHL1  H11B 2700   4.983   5.408   7.315 -0.1972  0.2623  1.4009
   37CHL1    C9 2701   5.045   5.196   7.268  0.1265  0.1949 -0.2786
   37CHL1    H9 2702   5.141   5.249   7.246 -1.1384  2.8171  0.1249
   37CHL1   C10 2703   5.000   5.175   7.115 -0.0118  0.5475  0.0927
   37CHL1   C19 2704   4.845   5.151   7.107 -0.4374  0.0290  0.2154
   37CHL1  H19A 2705   4.831   5.056   7.162  2.8507 -0.9149 -0.3548
   37CHL1  H19B 2706   4.775   5.229   7.145  0.7020  2.5710 -2.5258
   37CHL1  H19C 2707   4.815   5.130   7.003  2.6331 -0.7394 -0.6080
   37CHL1    C1 2708   5.017   5.308   7.038 -0.5331 -0.7100 -0.1852
   37CHL1   H1A 2709   4.954   5.390   7.080  0.9234  0.4108 -0.0998
   37CHL1   H1B 2710   5.120   5.345   7.057 -0.5772 -0.8430  0.3254
   37CHL1    C2 2711   4.999   5.308   6.887 -0.2809  0.2570 -0.4175
   37CHL1   H2A 2712   5.025   5.407   6.844 -1.9300 -0.0849 -2.3563
   37CHL1   H2B 2713   4.891   5.298   6.864 -0.0424  0.4009 -1.6594
   37CHL1   C20 2714   4.972   5.169   7.829  0.1216  0.1560  0.6678
   37CHL1   H20 2715   4.890   5.094   7.824 -0.3398  0.7373 -0.8391
   37CHL1   C21 2716   4.924   5.314   7.814  0.1148 -0.2671 -0.5845
   37CHL1  H21A 2717   4.869   5.351   7.903 -1.3254  0.0485 -1.5828
   37CHL1  H21B 2718   4.856   5.333   7.728 -0.8499  0.4251  0.3036
   37CHL1  H21C 2719   5.004   5.389   7.794 -0.9654  0.5740 -1.9211
   37CHL1   C22 2720   5.051   5.147   7.962 -0.3280  0.4417  0.3090
   37CHL1  H22A 2721   5.080   5.040   7.970 -1.1549  0.3316  2.5103
   37CHL1  H22B 2722   5.135   5.220   7.971  0.2705 -0.1697 -0.2443
   37CHL1   C23 2723   4.974   5.162   8.098  0.6565  0.0148  0.3328
   37CHL1  H23A 2724   5.033   5.121   8.183  3.1790 -0.6715 -1.6591
   37CHL1  H23B 2725   4.957   5.270   8.121  1.8115  0.2037  0.3522
   37CHL1   C24 2726   4.830   5.100   8.093 -0.3247  0.4856 -0.4022
   37CHL1  H24A 2727   4.769   5.169   8.030 -1.5640 -1.4180 -1.3919
   37CHL1  H24B 2728   4.832   5.000   8.044  2.1881  0.4427 -0.3441
   37CHL1   C25 2729   4.747   5.090   8.228 -0.5120 -0.0203  0.3829
   37CHL1   H25 2730   4.645   5.062   8.195 -0.5896  0.8210 -0.1138
   37CHL1   C26 2731   4.803   4.973   8.312  0.1569 -0.0408  0.2184
   37CHL1  H26A 2732   4.804   4.878   8.254  1.1452 -1.1470  1.9818
   37CHL1  H26B 2733   4.900   5.002   8.357  0.4479  0.4553 -0.6911
   37CHL1  H26C 2734   4.737   4.960   8.400 -1.5064 -1.0063 -1.0925
   37CHL1   C27 2735   4.729   5.221   8.301 -0.0231 -0.0391 -0.2246
   37CHL1  H27A 2736   4.645   5.213   8.373 -0.6260  2.0263 -0.6357
   37CHL1  H27B 2737   4.814   5.243   8.368  0.7193 -1.0477 -0.8049
   37CHL1  H27C 2738   4.721   5.311   8.236  1.1262  0.2257 -0.0130
   38CHL1    C3 2739   1.248   2.295   6.990  0.2075 -0.0582 -0.0338
   38CHL1    H3 2740   1.288   2.390   7.031 -0.7746  0.6631 -0.6839
   38CHL1    O3 2741   1.264   2.284   6.854  0.2311 -0.3842 -0.6116
   38CHL1   H3' 2742   1.216   2.203   6.838 -2.8078  1.4536 -1.8596
   38CHL1    C4 2743   1.326   2.178   7.052  0.2854 -0.2244 -0.6993
   38CHL1   H4A 2744   1.290   2.085   7.004  1.3427 -1.0143 -0.0001
   38CHL1   H4B 2745   1.434   2.193   7.032  0.4337  0.7208  0.6342
   38CHL1    C5 2746   1.302   2.187   7.201  0.0679  0.1123 -0.5683
   38CHL1    C6 2747   1.409   2.195   7.286 -0.4672 -0.3404  0.2770
   38CHL1    H6 2748   1.506   2.195   7.234 -1.0217 -0.2720 -0.7881
   38CHL1    C7 2749   1.400   2.200   7.438  0.0231 -0.6348 -0.5590
   38CHL1   H7A 2750   1.477   2.133   7.481  0.4282 -0.9443 -1.7183
   38CHL1   H7B 2751   1.426   2.303   7.470 -1.7647 -0.6131  0.9622
   38CHL1    C8 2752   1.264   2.178   7.503 -0.3278 -0.2864 -0.0513
   38CHL1    H8 2753   1.247   2.068   7.497 -0.4395 -0.3505  1.2068
   38CHL1   C14 2754   1.256   2.223   7.651  0.3733 -0.5714  0.3689
   38CHL1   H14 2755   1.265   2.333   7.640 -0.8867 -0.5526 -0.8174
   38CHL1   C15 2756   1.369   2.179   7.744 -0.1207 -0.8741 -1.4147
   38CHL1  H15A 2757   1.399   2.074   7.727 -2.0485 -1.6224 -0.4052
   38CHL1  H15B 2758   1.463   2.238   7.733 -1.1973  0.8400 -1.7739
   38CHL1   C16 2759   1.301   2.195   7.886  0.5590 -0.1642  0.3914
   38CHL1  H16A 2760   1.308   2.093   7.929  2.9316  0.1888  0.9571
   38CHL1  H16B 2761   1.365   2.261   7.947 -1.8688  2.5407  0.2645
   38CHL1   C17 2762   1.159   2.259   7.862  0.1189  0.3388  0.3913
   38CHL1   H17 2763   1.168   2.367   7.839  1.6386  0.1812  0.0811
   38CHL1   C13 2764   1.126   2.200   7.722 -0.6601 -0.1400  0.2364
   38CHL1   C18 2765   1.102   2.044   7.735  0.1296  0.1054 -0.4510
   38CHL1  H18A 2766   1.022   2.030   7.811  0.2616 -3.2783 -0.8195
   38CHL1  H18B 2767   1.067   2.001   7.639 -0.6813  1.4291 -0.7724
   38CHL1  H18C 2768   1.187   1.991   7.782 -1.2292 -0.3236  1.6939
   38CHL1   C12 2769   1.013   2.268   7.637  0.1478  0.2249 -0.0368
   38CHL1  H12A 2770   0.917   2.239   7.685  0.3907 -3.3868 -1.4493
   38CHL1  H12B 2771   1.024   2.378   7.654  2.1746  0.2181 -1.1184
   38CHL1   C11 2772   1.014   2.231   7.482 -0.2074 -0.1054 -0.5908
   38CHL1  H11A 2773   0.977   2.127   7.484 -0.8104  0.0718 -1.6846
   38CHL1  H11B 2774   0.935   2.292   7.431 -0.9630 -2.6213 -2.6280
   38CHL1    C9 2775   1.153   2.236   7.414  0.1317 -0.3129 -0.2993
   38CHL1    H9 2776   1.180   2.343   7.415 -3.4097  0.7511  1.8510
   38CHL1   C10 2777   1.158   2.194   7.255  0.2640 -0.6032 -0.5493
   38CHL1   C19 2778   1.086   2.058   7.237 -0.4405  0.0545  0.5429
   38CHL1  H19A 2779   1.124   1.990   7.317  1.4426  1.2249  0.7130
   38CHL1  H19B 2780   0.976   2.073   7.244 -0.4278 -0.0024  0.9093
   38CHL1  H19C 2781   1.124   2.009   7.145  0.1333 -0.2360  0.9312
   38CHL1    C1 2782   1.074   2.303   7.172 -0.4200 -0.2360  0.3065
   38CHL1   H1A 2783   0.967   2.295   7.199 -0.2245 -0.8637  0.9236
   38CHL1   H1B 2784   1.099   2.408   7.200  0.7799 -0.0261 -1.4031
   38CHL1    C2 2785   1.101   2.287   7.025 -0.6906 -0.0988  0.0604
   38CHL1   H2A 2786   1.057   2.382   6.986 -1.6886  0.0630  1.4657
   38CHL1   H2B 2787   1.053   2.194   6.988 -2.6692  0.3972  1.1802
   38CHL1   C20 2788   1.065   2.233   7.977  0.1892 -1.1570  0.1069
   38CHL1   H20 2789   1.049   2.125   7.999  0.9087 -1.4537 -0.7744
   38CHL1   C21 2790   0.924   2.297   7.935 -0.3310  0.3554 -0.9193
   38CHL1  H21A 2791   0.855   2.212   7.918  0.8405 -1.0873  1.1207
   38CHL1  H21B 2792   0.934   2.363   7.846  1.3443 -0.4821 -1.4023
   38CHL1  H21C 2793   0.897   2.363   8.020  1.7701  1.2000 -0.8378
   38CHL1   C22 2794   1.110   2.299   8.115  0.5637  0.1624 -0.3543
   38CHL1  H22A 2795   1.212   2.265   8.145 -0.4827 -2.5843  0.4409
   38CHL1  H22B 2796   1.111   2.409   8.104 -0.2976  0.4272  1.7892
   38CHL1   C23 2797   1.024   2.247   8.235  0.1197  0.5782 -0.3838
   38CHL1  H23A 2798   1.039   2.314   8.322 -0.9035  1.3020 -0.7429
   38CHL1  H23B 2799   0.918   2.246   8.200  0.1341 -1.8434 -0.5687
   38CHL1   C24 2800   1.055   2.105   8.282 -0.2512 -0.0863  0.2448
   38CHL1  H24A 2801   1.065   2.036   8.195 -0.0002  0.6470 -0.3233
   38CHL1  H24B 2802   1.148   2.114   8.342 -0.1123 -0.3937  0.0779
   38CHL1   C25 2803   0.938   2.045   8.367  0.8004 -0.4178  0.2981
   38CHL1   H25 2804   0.894   2.122   8.434 -1.1530 -0.2530 -1.0845
   38CHL1   C26 2805   0.818   1.995   8.288  0.3428  0.5511  0.4653
   38CHL1  H26A 2806   0.756   2.074   8.240  1.8530  1.6271  0.2419
   38CHL1  H26B 2807   0.844   1.929   8.203 -1.6859  0.8865 -0.4769
   38CHL1  H26C 2808   0.755   1.931   8.354 -0.3131 -1.0885 -1.6497
   38CHL1   C27 2809   0.994   1.922   8.447  0.6748 -0.3725 -0.2273
   38CHL1  H27A 2810   1.080   1.946   8.514  0.0219 -0.5232  0.6759
   38CHL1  H27B 2811   0.912   1.879   8.509 -0.3906  0.9707 -0.6691
   38CHL1  H27C 2812   1.023   1.847   8.370 -0.8486 -0.0086 -1.1992
   39CHL1    C3 2813   0.814   0.250   6.775  0.0002 -0.2407 -0.4029
   39CHL1    H3 2814   0.871   0.155   6.782 -0.0975 -0.3441 -0.9727
   39CHL1    O3 2815   0.817   0.272   6.632 -0.0623  0.4436 -0.2404
   39CHL1   H3' 2816   0.868   0.351   6.613  0.1822  0.5606  0.8424
   39CHL1    C4 2817   0.672   0.230   6.825  0.1923  0.0629 -0.3016
   39CHL1   H4A 2818   0.615   0.319   6.792 -1.2171  0.6999  3.3479
   39CHL1   H4B 2819   0.628   0.146   6.767 -0.0779 -0.0655  0.0782
   39CHL1    C5 2820   0.658   0.208   6.978  0.1915  0.2137  0.2731
   39CHL1    C6 2821   0.593   0.107   7.035  0.5121 -0.2594  0.2393
   39CHL1    H6 2822   0.552   0.033   6.965  0.0499  0.7178 -0.5261
   39CHL1    C7 2823   0.577   0.091   7.189 -0.4689  0.3592  0.1925
   39CHL1   H7A 2824   0.469   0.083   7.213 -0.3888 -1.8224  0.0012
   39CHL1   H7B 2825   0.630  -0.001   7.223  0.9658  0.6378 -1.1650
   39CHL1    C8 2826   0.619   0.218   7.268 -0.1341  0.2218  0.5875
   39CHL1    H8 2827   0.538   0.293   7.258 -0.9746 -0.4614  2.0392
   39CHL1   C14 2828   0.632   0.190   7.420 -0.2119 -0.0402 -0.0521
   39CHL1   H14 2829   0.716   0.117   7.417 -0.5342 -0.3982 -0.7445
   39CHL1   C15 2830   0.520   0.104   7.489  0.3930  0.4867  0.3185
   39CHL1  H15A 2831   0.423   0.143   7.453 -0.3846 -1.3753  0.2854
   39CHL1  H15B 2832   0.534  -0.005   7.473  0.2386  0.2183  1.8225
   39CHL1   C16 2833   0.530   0.142   7.636  0.1919  0.5470 -0.3753
   39CHL1  H16A 2834   0.445   0.209   7.661  0.4594  0.5495  0.5396
   39CHL1  H16B 2835   0.509   0.062   7.710  0.3763  1.0889  0.2691
   39CHL1   C17 2836   0.665   0.229   7.649 -0.1701 -0.2491 -0.3751
   39CHL1   H17 2837   0.737   0.145   7.653 -0.3911 -0.4288 -0.1252
   39CHL1   C13 2838   0.672   0.308   7.513 -0.2063 -0.1465  0.1282
   39CHL1   C18 2839   0.575   0.425   7.501 -0.3197  0.4652 -0.0174
   39CHL1  H18A 2840   0.476   0.385   7.532  0.3815 -1.9148 -0.6459
   39CHL1  H18B 2841   0.601   0.509   7.570  2.2681  1.5243 -2.1136
   39CHL1  H18C 2842   0.560   0.455   7.395 -1.1422  1.2845  0.3225
   39CHL1   C12 2843   0.806   0.363   7.460  0.7819  0.0904  0.3583
   39CHL1  H12A 2844   0.832   0.462   7.501 -0.2602  0.4060  0.2814
   39CHL1  H12B 2845   0.885   0.294   7.498  1.1836 -0.3998 -1.2979
   39CHL1   C11 2846   0.805   0.384   7.306 -0.0447  0.6072  0.4659
   39CHL1  H11A 2847   0.756   0.483   7.291  0.2475  0.9102  1.4142
   39CHL1  H11B 2848   0.912   0.398   7.277  0.2008  0.7100  1.3681
   39CHL1    C9 2849   0.740   0.274   7.212 -1.1385 -1.1436  0.0254
   39CHL1    H9 2850   0.817   0.194   7.212 -0.4052 -0.4887 -1.8670
   39CHL1   C10 2851   0.735   0.319   7.061  0.0878 -0.0152 -0.8182
   39CHL1   C19 2852   0.657   0.451   7.043  0.3953 -0.6422 -0.3762
   39CHL1  H19A 2853   0.550   0.442   7.073  0.9768 -0.9359  1.7775
   39CHL1  H19B 2854   0.704   0.534   7.100 -2.6315 -0.2229  1.7442
   39CHL1  H19C 2855   0.651   0.482   6.937 -1.4615  0.6001  0.0369
   39CHL1    C1 2856   0.879   0.327   7.007  0.1253 -0.1504  0.0824
   39CHL1   H1A 2857   0.919   0.424   7.046 -0.1623  0.2269 -0.5430
   39CHL1   H1B 2858   0.943   0.245   7.046  1.5338  0.7468 -0.2643
   39CHL1    C2 2859   0.891   0.355   6.858 -0.7293  0.2758  1.2456
   39CHL1   H2A 2860   0.998   0.359   6.829 -0.2171 -2.2408  2.4882
   39CHL1   H2B 2861   0.843   0.448   6.820 -1.0524 -0.5247 -0.4486
   39CHL1   C20 2862   0.681   0.308   7.782 -0.1025 -0.0636 -1.1981
   39CHL1   H20 2863   0.603   0.387   7.785 -1.6456 -1.5221 -1.7463
   39CHL1   C21 2864   0.825   0.371   7.793  0.3841 -0.1729  0.2445
   39CHL1  H21A 2865   0.904   0.295   7.777 -0.2239 -0.8570  0.4860
   39CHL1  H21B 2866   0.843   0.426   7.888  1.2641 -0.2559  0.1374
   39CHL1  H21C 2867   0.834   0.439   7.705 -1.9351  1.5033  1.1840
   39CHL1   C22 2868   0.651   0.217   7.902 -0.0126  0.0716  0.1043
   39CHL1  H22A 2869   0.541   0.200   7.905  0.0424 -0.7461 -1.3161
   39CHL1  H22B 2870   0.706   0.121   7.890  1.6259  1.0088 -0.2811
   39CHL1   C23 2871   0.694   0.276   8.043  0.0135  0.3351  0.4246
   39CHL1  H23A 2872   0.800   0.253   8.068 -0.6874 -0.3011  3.0376
   39CHL1  H23B 2873   0.677   0.386   8.032  0.3772  0.3656  0.1557
   39CHL1   C24 2874   0.614   0.206   8.158 -0.3298 -0.4546  0.1569
   39CHL1  H24A 2875   0.504   0.217   8.146 -0.3339 -0.9222 -0.2538
   39CHL1  H24B 2876   0.632   0.097   8.153 -3.1053 -0.9497 -2.2645
   39CHL1   C25 2877   0.635   0.263   8.308 -0.3830  0.5835  0.3519
   39CHL1   H25 2878   0.580   0.359   8.299  0.1837  0.7756 -1.3139
   39CHL1   C26 2879   0.551   0.175   8.406  0.3766 -0.5451  0.0847
   39CHL1  H26A 2880   0.605   0.088   8.450  1.8593  0.6512  0.6946
   39CHL1  H26B 2881   0.523   0.238   8.492 -1.0929  1.9336 -2.0566
   39CHL1  H26C 2882   0.453   0.146   8.361 -0.3446  0.3044  1.0598
   39CHL1   C27 2883   0.781   0.283   8.343  0.2849 -0.0304 -0.2235
   39CHL1  H27A 2884   0.831   0.331   8.255 -2.0510 -0.8454 -2.1031
   39CHL1  H27B 2885   0.795   0.346   8.434 -0.8224 -1.6428  1.1092
   39CHL1  H27C 2886   0.835   0.192   8.376 -1.5169 -0.5607  1.4066
   40CHL1    C3 2887   3.342   6.253   6.985  0.7460  0.5127  0.1963
   40CHL1    H3 2888   3.448   6.272   7.015  0.5924 -0.8037  1.6770
   40CHL1    O3 2889   3.339   6.284   6.846 -0.4632  0.2503 -0.2158
   40CHL1   H3' 2890   3.246   6.285   6.825 -0.5057 -1.7477 -0.2733
   40CHL1    C4 2891   3.312   6.096   6.998  0.1646  0.1103 -0.0653
   40CHL1   H4A 2892   3.219   6.072   6.942 -0.6261  2.2487  0.2356
   40CHL1   H4B 2893   3.380   6.038   6.931 -2.7755 -0.3733 -2.8722
   40CHL1    C5 2894   3.310   6.062   7.148 -0.0431 -0.5379 -0.2287
   40CHL1    C6 2895   3.381   5.960   7.196  0.0719 -0.5553 -0.2453
   40CHL1    H6 2896   3.433   5.896   7.122  0.0528 -2.0214  0.9609
   40CHL1    C7 2897   3.403   5.917   7.340 -0.8445  0.2437 -0.3322
   40CHL1   H7A 2898   3.396   5.807   7.355  0.7346  0.0222 -0.9758
   40CHL1   H7B 2899   3.500   5.959   7.374 -0.2879 -0.2378 -1.2916
   40CHL1    C8 2900   3.296   5.992   7.423  0.5742  0.6933 -0.1193
   40CHL1    H8 2901   3.206   5.927   7.420  1.1819 -0.1523 -0.2469
   40CHL1   C14 2902   3.340   5.985   7.571 -0.3905 -0.1533 -0.0921
   40CHL1   H14 2903   3.431   6.046   7.582 -2.0112  2.0569  2.1277
   40CHL1   C15 2904   3.376   5.849   7.630  0.0101 -0.3824 -0.7768
   40CHL1  H15A 2905   3.314   5.764   7.593 -0.1889 -0.0320 -1.2587
   40CHL1  H15B 2906   3.480   5.829   7.596  0.5382 -0.4959  0.8489
   40CHL1   C16 2907   3.378   5.881   7.781  0.1121 -0.0307  0.9433
   40CHL1  H16A 2908   3.314   5.802   7.826 -0.8871  0.8651  1.1516
   40CHL1  H16B 2909   3.477   5.857   7.824 -0.4922 -1.4004  1.6461
   40CHL1   C17 2910   3.326   6.027   7.799  0.3745  0.4152 -0.5787
   40CHL1   H17 2911   3.416   6.092   7.798  0.5367  0.1983 -1.3226
   40CHL1   C13 2912   3.244   6.059   7.672 -0.4557  0.4926 -0.2417
   40CHL1   C18 2913   3.111   5.985   7.685  0.1439  0.7150  0.5030
   40CHL1  H18A 2914   3.055   5.977   7.589 -0.2622 -0.2582  0.8134
   40CHL1  H18B 2915   3.098   5.885   7.732  0.5266  0.8630  0.9373
   40CHL1  H18C 2916   3.047   6.050   7.750 -1.5181 -0.2703 -0.0873
   40CHL1   C12 2917   3.231   6.203   7.631 -0.1449  0.0674 -0.0833
   40CHL1  H12A 2918   3.167   6.264   7.698  0.6138  0.9608 -0.1611
   40CHL1  H12B 2919   3.334   6.246   7.627 -0.2354  0.5591  1.9180
   40CHL1   C11 2920   3.184   6.211   7.485  0.3135  0.1022  0.4041
   40CHL1  H11A 2921   3.079   6.177   7.493  0.7451 -1.0177  1.5208
   40CHL1  H11B 2922   3.181   6.319   7.459  0.4136  0.1968  0.7779
   40CHL1    C9 2923   3.273   6.141   7.386  0.2431  0.5410  0.4192
   40CHL1    H9 2924   3.378   6.177   7.393  1.0229 -1.3548 -0.6786
   40CHL1   C10 2925   3.239   6.166   7.243  0.4632 -0.4710  0.1653
   40CHL1   C19 2926   3.083   6.133   7.236  1.2192 -0.6200 -0.0354
   40CHL1  H19A 2927   3.072   6.026   7.263  1.6184 -0.4886  0.6803
   40CHL1  H19B 2928   3.016   6.193   7.301 -1.4367 -1.7580 -1.5859
   40CHL1  H19C 2929   3.041   6.156   7.136 -0.9165  3.3569  1.5495
   40CHL1    C1 2930   3.259   6.318   7.204  0.3031 -0.7177  0.5603
   40CHL1   H1A 2931   3.188   6.384   7.259  1.2176  0.6731  0.1285
   40CHL1   H1B 2932   3.358   6.356   7.237 -0.3876  1.3065  0.4498
   40CHL1    C2 2933   3.250   6.347   7.056  0.5477 -0.6996 -0.4793
   40CHL1   H2A 2934   3.292   6.446   7.028  1.7086 -1.9572 -3.6966
   40CHL1   H2B 2935   3.148   6.343   7.014  0.9028  0.4980 -1.5229
   40CHL1   C20 2936   3.268   6.050   7.941  0.4638  0.4741  0.2080
   40CHL1   H20 2937   3.175   5.991   7.956  0.2584  0.3320 -1.4656
   40CHL1   C21 2938   3.214   6.195   7.964 -0.6832 -0.4909 -0.4460
   40CHL1  H21A 2939   3.302   6.261   7.952 -1.2198  0.4208  0.4498
   40CHL1  H21B 2940   3.164   6.203   8.063  0.9625 -0.5592  0.4327
   40CHL1  H21C 2941   3.133   6.215   7.891 -1.3578 -2.2444 -0.2292
   40CHL1   C22 2942   3.354   6.002   8.055  0.0407  0.3428  0.3976
   40CHL1  H22A 2943   3.412   5.915   8.016  0.2564  0.8412 -0.4235
   40CHL1  H22B 2944   3.430   6.081   8.073 -0.2450  1.2279 -1.8883
   40CHL1   C23 2945   3.289   5.958   8.181 -0.4130  0.5327 -0.2508
   40CHL1  H23A 2946   3.361   5.935   8.262  0.4240 -5.1982 -2.1403
   40CHL1  H23B 2947   3.219   6.035   8.219 -0.5928 -0.6518  2.0110
   40CHL1   C24 2948   3.195   5.831   8.168 -0.8478  0.0029 -0.3447
   40CHL1  H24A 2949   3.107   5.856   8.105 -1.9276  2.4076  1.9271
   40CHL1  H24B 2950   3.258   5.749   8.129  0.4396  1.6697 -1.9221
   40CHL1   C25 2951   3.143   5.771   8.300  0.5218 -0.5192  0.1959
   40CHL1   H25 2952   3.232   5.768   8.366  1.6689 -1.6691 -1.3239
   40CHL1   C26 2953   3.027   5.865   8.342  0.0299  0.2795 -0.1143
   40CHL1  H26A 2954   3.063   5.969   8.359 -0.0922  0.0872  1.4539
   40CHL1  H26B 2955   2.946   5.856   8.266 -0.4712  1.3891  0.2589
   40CHL1  H26C 2956   2.985   5.829   8.439 -1.4416 -2.0995 -1.5535
   40CHL1   C27 2957   3.100   5.623   8.292  0.2230  0.6891  0.7632
   40CHL1  H27A 2958   3.179   5.556   8.252 -0.5428  0.2371 -0.0276
   40CHL1  H27B 2959   3.068   5.587   8.392  2.3920 -1.2574  0.8653
   40CHL1  H27C 2960   3.017   5.620   8.219  3.6433 -0.8597 -3.5157
   41CHL1    C3 2961   4.403   4.914   6.999  0.0498 -0.0751 -0.2496
   41CHL1    H3 2962   4.470   4.825   7.008  1.1928  0.6619 -1.1115
   41CHL1    O3 2963   4.367   4.938   6.866  0.3724 -0.2389 -0.3951
   41CHL1   H3' 2964   4.298   5.004   6.859  0.6991  0.3639  1.5720
   41CHL1    C4 2965   4.267   4.890   7.070 -0.4378 -0.5343 -0.4824
   41CHL1   H4A 2966   4.205   4.969   7.024  0.1312 -0.8472 -1.8231
   41CHL1   H4B 2967   4.222   4.791   7.048  0.6669 -1.4242  1.0292
   41CHL1    C5 2968   4.276   4.901   7.215  0.4768  0.5605 -1.0250
   41CHL1    C6 2969   4.230   4.806   7.298 -0.2355  0.2565 -0.2144
   41CHL1    H6 2970   4.202   4.709   7.253 -0.9469  0.4081 -0.1165
   41CHL1    C7 2971   4.212   4.811   7.442  0.5627  0.1339 -0.4368
   41CHL1   H7A 2972   4.113   4.770   7.473 -0.1906 -0.3725 -3.2513
   41CHL1   H7B 2973   4.291   4.746   7.485 -0.1308 -0.1776  0.3937
   41CHL1    C8 2974   4.225   4.958   7.491 -0.3798  0.8696  0.1048
   41CHL1    H8 2975   4.133   5.016   7.472 -1.6244 -1.0633 -0.0804
   41CHL1   C14 2976   4.262   4.955   7.644 -0.9866  1.2859  0.3630
   41CHL1   H14 2977   4.359   4.901   7.650 -1.0991  0.5235 -2.7842
   41CHL1   C15 2978   4.161   4.881   7.734 -0.2918  0.5342  0.2716
   41CHL1  H15A 2979   4.057   4.906   7.703 -0.2182  0.7997  0.2357
   41CHL1  H15B 2980   4.180   4.773   7.718 -1.1165  0.3169  0.7300
   41CHL1   C16 2981   4.187   4.936   7.873  0.0877  0.2080  0.1231
   41CHL1  H16A 2982   4.088   4.975   7.908  0.3808  0.4240  0.7286
   41CHL1  H16B 2983   4.220   4.853   7.939  0.9317  0.2350 -0.2521
   41CHL1   C17 2984   4.300   5.047   7.864  0.0482 -0.3587 -0.2930
   41CHL1   H17 2985   4.399   5.002   7.883  1.3197  2.9562  1.8552
   41CHL1   C13 2986   4.293   5.092   7.720 -0.3224  0.3467  1.0368
   41CHL1   C18 2987   4.172   5.184   7.702 -0.4093  0.2670  0.8315
   41CHL1  H18A 2988   4.195   5.292   7.703 -1.0138  0.4213 -0.0859
   41CHL1  H18B 2989   4.126   5.153   7.605 -1.9411  1.4427  1.1431
   41CHL1  H18C 2990   4.096   5.165   7.781 -0.0951  0.0083  1.0720
   41CHL1   C12 2991   4.419   5.148   7.636 -0.0275 -0.1701 -0.7802
   41CHL1  H12A 2992   4.445   5.247   7.679  1.2367 -0.5900 -0.5335
   41CHL1  H12B 2993   4.503   5.076   7.648 -0.5631 -0.6128  0.4340
   41CHL1   C11 2994   4.391   5.160   7.487  0.7776  0.2477  0.1900
   41CHL1  H11A 2995   4.312   5.235   7.470  0.0023 -0.8270 -1.1411
   41CHL1  H11B 2996   4.482   5.193   7.432 -0.8666  1.7212 -1.8049
   41CHL1    C9 2997   4.346   5.018   7.423 -0.5873 -0.3281 -0.1341
   41CHL1    H9 2998   4.435   4.957   7.447  1.4242  2.6600  0.5444
   41CHL1   C10 2999   4.336   5.029   7.265  0.3579 -0.3676  0.0551
   41CHL1   C19 3000   4.237   5.146   7.251 -0.5102 -0.2852  0.8910
   41CHL1  H19A 3001   4.149   5.140   7.318 -1.5482  0.1803 -0.3794
   41CHL1  H19B 3002   4.287   5.241   7.279 -1.2225  0.5791 -0.6124
   41CHL1  H19C 3003   4.194   5.159   7.149 -0.7237 -1.0931  0.8709
   41CHL1    C1 3004   4.476   5.050   7.204  0.8653 -0.2470  0.3937
   41CHL1   H1A 3005   4.514   5.150   7.233  1.9217 -0.7939  0.9437
   41CHL1   H1B 3006   4.543   4.980   7.258 -0.7723 -2.6131 -0.4602
   41CHL1    C2 3007   4.480   5.039   7.048  0.8117  0.1499 -0.0755
   41CHL1   H2A 3008   4.584   5.050   7.010  0.3811  0.0791 -1.3122
   41CHL1   H2B 3009   4.434   5.131   7.008  2.4471  0.7896 -0.5816
   41CHL1   C20 3010   4.296   5.147   7.980  0.6520 -0.4302 -0.0265
   41CHL1   H20 3011   4.191   5.183   7.984  0.6871 -0.3328  0.0188
   41CHL1   C21 3012   4.395   5.265   7.966 -0.2048 -0.5857 -0.4190
   41CHL1  H21A 3013   4.374   5.338   8.047  1.0182 -0.4197 -0.2373
   41CHL1  H21B 3014   4.385   5.324   7.872 -0.1843  0.1448  0.0273
   41CHL1  H21C 3015   4.498   5.231   7.992 -0.4646 -1.6553 -0.7427
   41CHL1   C22 3016   4.335   5.067   8.109 -0.2530  0.0966 -0.0937
   41CHL1  H22A 3017   4.264   4.982   8.114 -0.8939  0.6109 -0.1200
   41CHL1  H22B 3018   4.438   5.028   8.098 -0.6775 -1.1087  0.0318
   41CHL1   C23 3019   4.303   5.134   8.243 -0.0058  0.2665  0.1978
   41CHL1  H23A 3020   4.362   5.228   8.249  1.2770 -0.4823 -0.5306
   41CHL1  H23B 3021   4.194   5.153   8.232  0.0104 -0.5910 -1.6634
   41CHL1   C24 3022   4.349   5.041   8.364  0.0282  0.2795 -0.2705
   41CHL1  H24A 3023   4.326   4.938   8.331 -1.7873  0.5631  0.0199
   41CHL1  H24B 3024   4.460   5.053   8.368  0.0760 -0.5347  1.9234
   41CHL1   C25 3025   4.300   5.084   8.501 -0.2576 -0.1807 -0.2801
   41CHL1   H25 3026   4.190   5.094   8.489 -0.2182  1.6071  0.5172
   41CHL1   C26 3027   4.320   4.970   8.600 -1.0267 -0.8526 -0.0449
   41CHL1  H26A 3028   4.286   5.005   8.700 -1.7237  1.0751 -0.9188
   41CHL1  H26B 3029   4.269   4.880   8.561  1.0491 -0.6889 -3.5196
   41CHL1  H26C 3030   4.430   4.954   8.608 -0.9212 -0.1560 -0.0527
   41CHL1   C27 3031   4.351   5.217   8.548 -0.0253 -0.7147  0.1517
   41CHL1  H27A 3032   4.454   5.219   8.588 -0.8000 -3.0775  2.5838
   41CHL1  H27B 3033   4.353   5.290   8.464  1.1723 -0.3578  0.4821
   41CHL1  H27C 3034   4.278   5.257   8.621  1.0832 -0.2327  1.0149
   42CHL1    C3 3035   6.056   4.726   7.245  0.0743 -0.5959  0.1522
   42CHL1    H3 3036   6.152   4.770   7.278  0.4368 -2.4538  1.8126
   42CHL1    O3 3037   6.037   4.751   7.112  0.1008  0.3524  0.2813
   42CHL1   H3' 3038   6.095   4.691   7.066 -1.9148 -1.8832  0.4494
   42CHL1    C4 3039   6.068   4.576   7.270 -0.2334 -0.3590 -0.1459
   42CHL1   H4A 3040   5.976   4.521   7.242  1.0509 -1.6673 -2.0589
   42CHL1   H4B 3041   6.147   4.541   7.199 -0.4650 -0.2197 -0.4778
   42CHL1    C5 3042   6.109   4.548   7.413 -0.3651 -0.0835 -0.1444
   42CHL1    C6 3043   6.219   4.478   7.430 -0.1273  0.6075 -0.2336
   42CHL1    H6 3044   6.264   4.453   7.333 -2.6080  2.1646 -1.9292
   42CHL1    C7 3045   6.282   4.460   7.568 -0.6514  0.0635  0.6290
   42CHL1   H7A 3046   6.326   4.360   7.588  1.2845  0.3040 -1.8419
   42CHL1   H7B 3047   6.366   4.532   7.580 -1.4250  0.7626  2.0429
   42CHL1    C8 3048   6.176   4.490   7.681  0.3569  1.0032 -0.6256
   42CHL1    H8 3049   6.118   4.395   7.689 -0.8081  1.8488  2.9903
   42CHL1   C14 3050   6.252   4.495   7.820 -0.4899 -0.8565 -0.5125
   42CHL1   H14 3051   6.332   4.571   7.804 -1.1416 -0.1285 -0.4046
   42CHL1   C15 3052   6.347   4.373   7.861 -0.1496 -0.9419 -0.2940
   42CHL1  H15A 3053   6.293   4.276   7.850  1.5173 -1.9753  0.2999
   42CHL1  H15B 3054   6.443   4.370   7.806  0.2584  0.2303  0.3397
   42CHL1   C16 3055   6.376   4.396   8.013 -0.0004  0.3206  0.4937
   42CHL1  H16A 3056   6.349   4.306   8.072  2.8835 -0.3348  0.9944
   42CHL1  H16B 3057   6.484   4.412   8.035  0.1793  0.7565 -0.6098
   42CHL1   C17 3058   6.295   4.530   8.045  0.1933 -0.4702 -0.3481
   42CHL1   H17 3059   6.357   4.612   8.003 -0.1216  0.1164  0.3009
   42CHL1   C13 3060   6.177   4.529   7.942  0.1431 -0.0340 -0.0860
   42CHL1   C18 3061   6.074   4.421   7.969  0.4196  0.0681  0.0671
   42CHL1  H18A 3062   6.107   4.315   7.978 -0.0308  0.0538  1.9840
   42CHL1  H18B 3063   6.022   4.435   8.066 -0.0361 -0.9884 -0.0100
   42CHL1  H18C 3064   5.993   4.411   7.894 -0.8011  2.2843  0.9917
   42CHL1   C12 3065   6.108   4.663   7.923 -0.6361  0.1387  0.0444
   42CHL1  H12A 3066   6.041   4.670   8.011  2.2278  2.5981  2.2298
   42CHL1  H12B 3067   6.172   4.754   7.921 -1.6061  0.8839  1.3838
   42CHL1   C11 3068   6.025   4.654   7.791  0.1653 -0.7346 -0.2964
   42CHL1  H11A 3069   5.930   4.602   7.817 -0.1943 -0.6085 -1.3054
   42CHL1  H11B 3070   5.991   4.759   7.786  0.4185 -0.6866 -1.1721
   42CHL1    C9 3071   6.103   4.613   7.667 -0.4115 -0.3712  0.2311
   42CHL1    H9 3072   6.181   4.691   7.658 -0.9442  0.3325  1.5006
   42CHL1   C10 3073   6.025   4.614   7.529  0.1405 -0.3262  0.1434
   42CHL1   C19 3074   5.888   4.531   7.535 -0.0115 -0.5160  0.3081
   42CHL1  H19A 3075   5.914   4.424   7.555 -0.1808 -0.7047 -0.4723
   42CHL1  H19B 3076   5.821   4.566   7.617 -1.9666 -1.3580 -0.8421
   42CHL1  H19C 3077   5.823   4.534   7.445 -0.2701 -4.1190  0.2232
   42CHL1    C1 3078   5.984   4.759   7.496 -0.8361 -0.0814 -0.9274
   42CHL1   H1A 3079   5.915   4.801   7.572  1.5508 -0.3776  1.5757
   42CHL1   H1B 3080   6.079   4.816   7.499 -1.0385  0.2231 -0.0424
   42CHL1    C2 3081   5.943   4.781   7.347  0.5215  0.7446 -0.6106
   42CHL1   H2A 3082   5.933   4.889   7.326  0.5240  0.5211 -1.8187
   42CHL1   H2B 3083   5.845   4.734   7.323  1.9804 -3.0252  0.0330
   42CHL1   C20 3084   6.263   4.566   8.186 -0.0065  0.1946  0.3468
   42CHL1   H20 3085   6.162   4.610   8.196  0.5254  1.5204  0.0071
   42CHL1   C21 3086   6.358   4.674   8.230 -0.3341 -0.2288  0.6489
   42CHL1  H21A 3087   6.463   4.640   8.216 -0.4189 -0.2100 -0.0890
   42CHL1  H21B 3088   6.343   4.700   8.337 -0.3873 -0.3675  0.6746
   42CHL1  H21C 3089   6.337   4.762   8.165  0.4335 -0.3546  0.2108
   42CHL1   C22 3090   6.260   4.452   8.283  0.1893  0.2741 -0.7050
   42CHL1  H22A 3091   6.200   4.370   8.239  1.8804 -1.2521 -0.3024
   42CHL1  H22B 3092   6.366   4.419   8.296 -0.0610  0.1628  1.3903
   42CHL1   C23 3093   6.199   4.487   8.420  0.2183 -0.2570  0.2663
   42CHL1  H23A 3094   6.270   4.554   8.474  1.6320 -1.5293  0.0451
   42CHL1  H23B 3095   6.096   4.522   8.401  0.2377 -0.2974  0.0862
   42CHL1   C24 3096   6.184   4.360   8.516  0.1650 -0.1263  0.6080
   42CHL1  H24A 3097   6.126   4.286   8.457  1.2622 -0.6699  0.1987
   42CHL1  H24B 3098   6.282   4.309   8.528 -0.0319 -0.3011  1.5498
   42CHL1   C25 3099   6.115   4.391   8.653 -0.0226 -0.1229 -0.2915
   42CHL1   H25 3100   6.018   4.442   8.637  1.4075  2.4529 -1.3322
   42CHL1   C26 3101   6.105   4.256   8.730  0.6431  0.0916  0.4210
   42CHL1  H26A 3102   6.207   4.212   8.736  0.8939  0.0430 -2.7325
   42CHL1  H26B 3103   6.062   4.276   8.831 -0.8857 -3.9194  0.7501
   42CHL1  H26C 3104   6.027   4.186   8.695  0.4802  0.2363  0.4917
   42CHL1   C27 3105   6.201   4.487   8.732 -0.8587 -0.0636  0.5488
   42CHL1  H27A 3106   6.222   4.588   8.691 -0.4332  0.9397  3.0595
   42CHL1  H27B 3107   6.308   4.456   8.740 -0.6655  0.2438 -0.6393
   42CHL1  H27C 3108   6.156   4.507   8.832 -2.4711  2.7466 -0.6246
   43CHL1    C3 3109   0.959   6.620   7.126 -0.9065 -0.0918  0.2278
   43CHL1    H3 3110   0.933   6.727   7.111 -1.8663  0.0064  2.2658
   43CHL1    O3 3111   0.952   6.548   7.003 -0.4841  0.1836 -0.0742
   43CHL1   H3' 3112   0.977   6.458   7.022 -1.6993 -0.4003 -1.0558
   43CHL1    C4 3113   1.102   6.611   7.182  0.0154 -0.4523 -0.0521
   43CHL1   H4A 3114   1.136   6.505   7.172  0.1355 -0.3174 -1.2314
   43CHL1   H4B 3115   1.159   6.674   7.110  0.5280  0.0760  0.8070
   43CHL1    C5 3116   1.112   6.667   7.322  0.2037 -0.1446 -0.3047
   43CHL1    C6 3117   1.201   6.760   7.338  0.5837 -0.7794  0.0831
   43CHL1    H6 3118   1.264   6.801   7.257 -0.4919  1.8965  0.4916
   43CHL1    C7 3119   1.228   6.822   7.474 -0.0828 -0.1761  0.1334
   43CHL1   H7A 3120   1.339   6.825   7.483  0.1902  0.0977 -2.5754
   43CHL1   H7B 3121   1.194   6.928   7.480  0.5732 -0.0155  1.2836
   43CHL1    C8 3122   1.163   6.741   7.589 -0.3796  0.1565  0.0897
   43CHL1    H8 3123   1.229   6.652   7.604  0.2329  0.4454 -0.8620
   43CHL1   C14 3124   1.170   6.818   7.724  0.4428  1.0136  0.6239
   43CHL1   H14 3125   1.106   6.909   7.717 -0.5651  0.4435  1.9256
   43CHL1   C15 3126   1.308   6.866   7.767  0.3843 -0.1791  0.1048
   43CHL1  H15A 3127   1.384   6.786   7.761  0.9622  0.4123 -0.6106
   43CHL1  H15B 3128   1.350   6.949   7.706 -0.8339  0.9912  0.7759
   43CHL1   C16 3129   1.288   6.898   7.920  1.0187  0.4670  0.7306
   43CHL1  H16A 3130   1.362   6.846   7.984 -0.6107 -1.4630  1.1723
   43CHL1  H16B 3131   1.299   7.008   7.928  0.6151  0.4024  2.4883
   43CHL1   C17 3132   1.142   6.846   7.953 -0.5416  0.1762 -0.6374
   43CHL1   H17 3133   1.078   6.937   7.944 -0.0732  0.9271  2.4672
   43CHL1   C13 3134   1.109   6.739   7.847 -0.5901 -0.6810  0.3708
   43CHL1   C18 3135   1.189   6.617   7.874  0.0381 -0.3570 -0.0404
   43CHL1  H18A 3136   1.294   6.650   7.890 -0.2564  2.0604 -2.5085
   43CHL1  H18B 3137   1.143   6.574   7.966  0.5292 -0.2023  0.2800
   43CHL1  H18C 3138   1.186   6.537   7.797  2.0980 -1.1626  0.6360
   43CHL1   C12 3139   0.956   6.710   7.811 -0.7228 -0.4193 -0.1164
   43CHL1  H12A 3140   0.917   6.661   7.903 -1.2790  0.6766  0.2525
   43CHL1  H12B 3141   0.901   6.804   7.791 -0.5318  0.7995  4.1049
   43CHL1   C11 3142   0.954   6.625   7.683 -0.5568  0.2719 -0.0681
   43CHL1  H11A 3143   1.014   6.532   7.697  2.1691  1.5359 -2.3455
   43CHL1  H11B 3144   0.850   6.604   7.652 -0.6726  2.4415 -1.2777
   43CHL1    C9 3145   1.021   6.699   7.555 -0.0593  0.3894 -0.7242
   43CHL1    H9 3146   0.967   6.796   7.542 -1.7714 -0.4879 -0.3899
   43CHL1   C10 3147   1.011   6.616   7.429  1.0525  0.2711  0.2588
   43CHL1   C19 3148   1.048   6.466   7.449 -0.0151 -0.0009 -0.2405
   43CHL1  H19A 3149   1.141   6.454   7.509  0.5661  1.5933 -0.7648
   43CHL1  H19B 3150   0.960   6.420   7.500 -2.2426  1.6338 -2.3815
   43CHL1  H19C 3151   1.060   6.406   7.356 -0.1941  0.2511 -0.4269
   43CHL1    C1 3152   0.874   6.630   7.365  0.3138  0.0212 -0.0732
   43CHL1   H1A 3153   0.803   6.578   7.432 -0.8136  2.4044  0.7242
   43CHL1   H1B 3154   0.834   6.733   7.347  0.7038 -0.0705 -1.6293
   43CHL1    C2 3155   0.855   6.555   7.226  0.2173  0.6564 -0.0972
   43CHL1   H2A 3156   0.758   6.572   7.174 -0.5977 -0.9669  0.8394
   43CHL1   H2B 3157   0.876   6.446   7.224 -0.9516  0.4166 -0.0688
   43CHL1   C20 3158   1.132   6.813   8.104  0.1447  0.1485  0.1873
   43CHL1   H20 3159   1.190   6.718   8.114 -3.3921 -2.4002 -1.3186
   43CHL1   C21 3160   0.983   6.783   8.133 -0.7297  0.3415  0.4740
   43CHL1  H21A 3161   0.921   6.872   8.111 -0.0043  0.4354 -1.3733
   43CHL1  H21B 3162   0.964   6.777   8.242 -1.2667  0.6391  0.4031
   43CHL1  H21C 3163   0.949   6.684   8.095 -0.1707  0.7569 -1.1939
   43CHL1   C22 3164   1.185   6.923   8.196  0.4284 -0.2838  0.9694
   43CHL1  H22A 3165   1.296   6.921   8.201  0.4446 -0.7510  0.4962
   43CHL1  H22B 3166   1.155   7.025   8.163 -2.1864 -1.7560 -1.6505
   43CHL1   C23 3167   1.154   6.912   8.346 -0.8324 -0.6633  0.6080
   43CHL1  H23A 3168   1.046   6.916   8.373 -0.3694  0.0968  2.4957
   43CHL1  H23B 3169   1.190   6.813   8.381 -1.2108 -0.4697  1.5961
   43CHL1   C24 3170   1.230   7.024   8.427  0.5747  0.4240 -0.1248
   43CHL1  H24A 3171   1.338   7.031   8.403  1.5875 -0.8718  3.3953
   43CHL1  H24B 3172   1.189   7.123   8.398 -0.7518 -0.1269 -0.2045
   43CHL1   C25 3173   1.225   7.006   8.582  0.8717  0.0643 -0.4571
   43CHL1   H25 3174   1.284   6.923   8.626  0.0897 -0.8186 -1.0514
   43CHL1   C26 3175   1.271   7.135   8.662  0.3798 -0.4902  0.3046
   43CHL1  H26A 3176   1.259   7.138   8.772 -1.3831  1.0093  0.1193
   43CHL1  H26B 3177   1.374   7.167   8.635  0.2635 -1.4567 -1.4347
   43CHL1  H26C 3178   1.201   7.214   8.627 -0.0052 -1.6161 -1.6051
   43CHL1   C27 3179   1.078   6.982   8.628  0.2669 -0.1165 -0.5077
   43CHL1  H27A 3180   1.016   7.071   8.604  0.5395 -0.6198 -3.3912
   43CHL1  H27B 3181   1.034   6.888   8.589 -2.9079  0.1445  1.9517
   43CHL1  H27C 3182   1.082   6.977   8.739 -1.5847  1.2497 -0.3252
   44CHL1    C3 3183   5.204   4.300   6.757 -0.2785  0.0164 -0.1010
   44CHL1    H3 3184   5.201   4.190   6.771 -0.5128 -0.0677 -0.7774
   44CHL1    O3 3185   5.211   4.342   6.620 -0.2238  0.0197  0.3858
   44CHL1   H3' 3186   5.289   4.396   6.606  0.0969 -0.7858 -1.1430
   44CHL1    C4 3187   5.080   4.353   6.825 -0.3661 -0.3903 -0.2853
   44CHL1   H4A 3188   5.058   4.456   6.790 -2.2976 -0.0267  1.8002
   44CHL1   H4B 3189   4.985   4.307   6.790 -1.6670  2.8602 -1.3967
   44CHL1    C5 3190   5.081   4.341   6.978  0.4795 -0.5834 -0.4739
   44CHL1    C6 3191   4.979   4.280   7.051 -0.2156  0.0174 -0.1758
   44CHL1    H6 3192   4.885   4.247   7.002 -1.0236 -0.3165  1.5401
   44CHL1    C7 3193   4.977   4.287   7.200  0.3014  0.3303 -0.5790
   44CHL1   H7A 3194   4.873   4.306   7.233  0.1306 -1.1206 -0.2197
   44CHL1   H7B 3195   5.008   4.187   7.239 -1.5795 -0.0912 -0.0793
   44CHL1    C8 3196   5.077   4.386   7.267 -0.0580 -0.2712  0.8325
   44CHL1    H8 3197   5.040   4.486   7.234 -0.4364 -1.4168 -2.6170
   44CHL1   C14 3198   5.088   4.362   7.418  0.2470 -0.1090  0.0472
   44CHL1   H14 3199   5.113   4.254   7.430  2.5283  0.3344 -0.3499
   44CHL1   C15 3200   4.955   4.376   7.496 -0.0662 -0.0160  0.4138
   44CHL1  H15A 3201   4.907   4.471   7.464 -0.8759  0.3911  2.6955
   44CHL1  H15B 3202   4.886   4.293   7.468 -0.5165  0.7345 -0.8026
   44CHL1   C16 3203   5.000   4.395   7.638 -0.4730  0.4667 -0.3927
   44CHL1  H16A 3204   4.954   4.486   7.684 -0.6204 -0.1987  0.8373
   44CHL1  H16B 3205   4.971   4.304   7.695 -0.0116  0.2452 -0.5055
   44CHL1   C17 3206   5.158   4.408   7.637 -0.5288  0.2253 -0.5561
   44CHL1   H17 3207   5.181   4.300   7.650 -4.0643 -0.8486 -1.8497
   44CHL1   C13 3208   5.192   4.446   7.495  0.4993 -0.2931  0.7417
   44CHL1   C18 3209   5.168   4.595   7.461  1.1260  0.5752 -0.6205
   44CHL1  H18A 3210   5.183   4.613   7.353  1.9698  0.6124 -0.5025
   44CHL1  H18B 3211   5.070   4.635   7.495  0.8591  1.1204 -1.9755
   44CHL1  H18C 3212   5.244   4.657   7.514  1.6617 -0.5207 -0.0723
   44CHL1   C12 3213   5.326   4.395   7.430 -0.1333 -0.0885  0.3105
   44CHL1  H12A 3214   5.418   4.442   7.472  0.1068  0.6946 -1.0417
   44CHL1  H12B 3215   5.330   4.285   7.447  1.2815 -0.0742  0.1886
   44CHL1   C11 3216   5.332   4.413   7.275 -0.0025 -0.3748  0.2859
   44CHL1  H11A 3217   5.369   4.516   7.258  1.4942 -1.0350 -0.7806
   44CHL1  H11B 3218   5.425   4.363   7.239  0.4600  1.6380 -1.5281
   44CHL1    C9 3219   5.210   4.363   7.199  0.1615 -0.5252  0.0153
   44CHL1    H9 3220   5.221   4.252   7.202 -1.5680 -0.6891  1.5117
   44CHL1   C10 3221   5.208   4.392   7.047 -0.2182 -0.0187  0.2164
   44CHL1   C19 3222   5.222   4.551   7.032 -0.1633  0.6740 -0.2075
   44CHL1  H19A 3223   5.186   4.582   6.931  1.0281 -1.9297 -1.5291
   44CHL1  H19B 3224   5.167   4.597   7.117  0.5747  1.9186 -0.3814
   44CHL1  H19C 3225   5.331   4.572   7.033  0.1728 -0.7867 -1.3629
   44CHL1    C1 3226   5.322   4.325   6.975 -0.3521  0.0525 -0.4723
   44CHL1   H1A 3227   5.413   4.363   7.026 -0.6227 -1.5715  1.3023
   44CHL1   H1B 3228   5.318   4.214   6.977 -3.3284  0.0759 -1.1077
   44CHL1    C2 3229   5.333   4.352   6.824  0.5197 -0.4604 -0.1869
   44CHL1   H2A 3230   5.426   4.311   6.780 -0.3794 -2.1475 -0.5894
   44CHL1   H2B 3231   5.349   4.461   6.804 -1.4845 -0.2062 -0.6468
   44CHL1   C20 3232   5.215   4.491   7.756 -0.2274  0.7096 -0.7448
   44CHL1   H20 3233   5.164   4.588   7.739 -0.3475  0.5767 -1.1681
   44CHL1   C21 3234   5.365   4.501   7.747 -0.8377  0.2194 -0.5138
   44CHL1  H21A 3235   5.414   4.546   7.658  1.5382  0.2415  0.7322
   44CHL1  H21B 3236   5.408   4.402   7.771 -2.9960 -0.1388  2.4198
   44CHL1  H21C 3237   5.406   4.573   7.821  0.1794  0.2688 -1.1122
   44CHL1   C22 3238   5.173   4.436   7.894 -0.4249 -0.0163  0.0709
   44CHL1  H22A 3239   5.069   4.398   7.884  0.0659 -0.8635 -2.4349
   44CHL1  H22B 3240   5.233   4.346   7.922 -1.2134  0.4664  3.9291
   44CHL1   C23 3241   5.182   4.535   8.015 -0.2754  0.7892 -0.0407
   44CHL1  H23A 3242   5.291   4.536   8.035  0.3822 -0.6597 -2.9962
   44CHL1  H23B 3243   5.141   4.635   7.988  0.1019  0.6964 -0.9888
   44CHL1   C24 3244   5.094   4.476   8.130 -0.0383  0.5822  0.1931
   44CHL1  H24A 3245   4.989   4.497   8.103 -0.5252 -0.3166  1.3031
   44CHL1  H24B 3246   5.114   4.366   8.133  0.9820  0.7094 -1.1784
   44CHL1   C25 3247   5.117   4.526   8.276 -0.2879  0.0481 -0.4026
   44CHL1   H25 3248   5.111   4.637   8.275 -0.7130  0.0221 -0.9399
   44CHL1   C26 3249   5.003   4.484   8.373 -0.3547  0.5287 -0.5214
   44CHL1  H26A 3250   4.912   4.537   8.338 -1.4588  0.5265  2.1044
   44CHL1  H26B 3251   4.991   4.373   8.373  3.4430 -0.0234  1.2717
   44CHL1  H26C 3252   5.026   4.515   8.477 -0.2439  1.2021 -0.7455
   44CHL1   C27 3253   5.250   4.472   8.327  0.1462  0.6603 -0.1359
   44CHL1  H27A 3254   5.262   4.366   8.360  1.2134  1.3589  1.9244
   44CHL1  H27B 3255   5.334   4.486   8.256  2.2722 -2.6999  1.4515
   44CHL1  H27C 3256   5.276   4.535   8.415 -0.4843 -0.0820  0.6046
   45CHL1    C3 3257   1.357   4.214   6.724  0.3570 -0.2992  0.1387
   45CHL1    H3 3258   1.362   4.104   6.709  2.0351 -0.5049  1.8127
   45CHL1    O3 3259   1.363   4.272   6.594  0.2702 -0.7835 -0.1275
   45CHL1   H3' 3260   1.373   4.206   6.525 -2.3285  1.2630 -2.7275
   45CHL1    C4 3261   1.218   4.249   6.792  0.1214 -0.2242 -0.7421
   45CHL1   H4A 3262   1.194   4.354   6.766 -2.5321 -0.1866  1.4190
   45CHL1   H4B 3263   1.146   4.188   6.732 -0.4745 -0.2769  0.0177
   45CHL1    C5 3264   1.218   4.211   6.939 -0.0631 -0.1602  0.3509
   45CHL1    C6 3265   1.123   4.128   6.978  0.5258 -0.0662 -0.2733
   45CHL1    H6 3266   1.040   4.103   6.910  2.3330  0.2282 -2.7433
   45CHL1    C7 3267   1.109   4.084   7.121 -0.0757  0.0282  0.4345
   45CHL1   H7A 3268   1.002   4.091   7.151 -0.8472  1.1303 -2.2640
   45CHL1   H7B 3269   1.138   3.977   7.130  4.1795  0.8191 -1.4271
   45CHL1    C8 3270   1.203   4.159   7.216  0.0416 -0.2471  0.6285
   45CHL1    H8 3271   1.153   4.255   7.241  1.7127  1.1631 -1.1568
   45CHL1   C14 3272   1.201   4.068   7.346 -1.1291 -1.0041 -0.6685
   45CHL1   H14 3273   1.261   3.981   7.313 -0.6075 -0.9107  0.0088
   45CHL1   C15 3274   1.071   4.029   7.414  0.5747 -0.5496 -0.1573
   45CHL1  H15A 3275   0.998   4.113   7.409  1.1059  0.0209  1.2887
   45CHL1  H15B 3276   1.022   3.934   7.384 -0.7749 -0.0900  0.5035
   45CHL1   C16 3277   1.105   4.007   7.559 -0.7169 -0.3568 -0.4775
   45CHL1  H16A 3278   1.055   4.086   7.619 -1.8176  0.0287 -1.8345
   45CHL1  H16B 3279   1.093   3.901   7.590  1.5672 -1.5996 -3.2703
   45CHL1   C17 3280   1.262   4.029   7.562  0.1639  0.6485  0.9841
   45CHL1   H17 3281   1.304   3.933   7.525 -2.3252 -0.3957  0.7102
   45CHL1   C13 3282   1.297   4.135   7.458  0.2437  0.3681 -0.1497
   45CHL1   C18 3283   1.255   4.273   7.509  0.7280 -0.5492 -0.9675
   45CHL1  H18A 3284   1.316   4.311   7.594 -1.2189  0.2270  0.1499
   45CHL1  H18B 3285   1.267   4.355   7.435 -0.2535 -1.8812 -2.6664
   45CHL1  H18C 3286   1.151   4.270   7.549  0.2390  0.1241 -2.1263
   45CHL1   C12 3287   1.437   4.141   7.402 -0.6741  0.1947  0.3638
   45CHL1  H12A 3288   1.518   4.183   7.465  0.6395  1.0581 -1.7786
   45CHL1  H12B 3289   1.464   4.035   7.383 -0.2714  0.4412 -0.4839
   45CHL1   C11 3290   1.447   4.217   7.269 -0.1156 -0.6630  0.0501
   45CHL1  H11A 3291   1.427   4.326   7.284  0.6423 -0.3569 -1.0243
   45CHL1  H11B 3292   1.547   4.221   7.220  0.5942  0.5191  1.5063
   45CHL1    C9 3293   1.340   4.169   7.163  0.0013 -0.0967  0.7985
   45CHL1    H9 3294   1.364   4.066   7.128 -0.4989  0.6860 -2.1387
   45CHL1   C10 3295   1.341   4.246   7.028  0.4474  0.0980 -0.4171
   45CHL1   C19 3296   1.333   4.399   7.050 -0.0320 -0.1436  0.2873
   45CHL1  H19A 3297   1.241   4.421   7.108 -0.3506  1.3643 -0.7125
   45CHL1  H19B 3298   1.415   4.437   7.114 -1.1200 -1.1321  2.3679
   45CHL1  H19C 3299   1.320   4.460   6.957  1.1985  1.3358  1.0454
   45CHL1    C1 3300   1.470   4.209   6.951 -0.1241 -0.5216  0.0646
   45CHL1   H1A 3301   1.559   4.256   6.998 -0.0102 -0.6245 -0.0465
   45CHL1   H1B 3302   1.472   4.098   6.944  0.1825 -0.3941 -2.9803
   45CHL1    C2 3303   1.472   4.271   6.807  0.4349  0.5369  0.0231
   45CHL1   H2A 3304   1.568   4.244   6.758  0.5847  0.5524  0.3053
   45CHL1   H2B 3305   1.469   4.382   6.813  1.4218  0.5334  1.0522
   45CHL1   C20 3306   1.314   4.051   7.704  0.0560  0.2114 -0.4876
   45CHL1   H20 3307   1.291   4.156   7.733 -0.4703 -0.5145  1.9998
   45CHL1   C21 3308   1.465   4.024   7.708  0.4304 -0.3717  0.3038
   45CHL1  H21A 3309   1.504   4.009   7.811  0.1066  0.0948  0.4954
   45CHL1  H21B 3310   1.530   4.109   7.676 -0.9346 -0.3657 -2.8409
   45CHL1  H21C 3311   1.491   3.934   7.649 -1.3450  0.2863 -1.5793
   45CHL1   C22 3312   1.242   3.967   7.814 -0.5756  0.4066  0.9132
   45CHL1  H22A 3313   1.140   3.926   7.793  0.0033 -0.3221 -0.6647
   45CHL1  H22B 3314   1.299   3.873   7.829 -3.1565 -1.3045  0.6684
   45CHL1   C23 3315   1.252   4.018   7.957  1.0306  0.5173  0.3742
   45CHL1  H23A 3316   1.357   4.053   7.963  1.0748  0.5710 -0.6085
   45CHL1  H23B 3317   1.180   4.100   7.978 -1.5251 -2.2381  3.6975
   45CHL1   C24 3318   1.225   3.923   8.077  0.1181  0.9672 -0.2726
   45CHL1  H24A 3319   1.124   3.879   8.061 -0.4022  2.1898 -0.4945
   45CHL1  H24B 3320   1.300   3.841   8.077  0.8202  1.3429  4.3917
   45CHL1   C25 3321   1.238   3.987   8.216 -0.9452 -0.5450 -0.0796
   45CHL1   H25 3322   1.189   4.086   8.227 -1.4283 -0.7244 -0.5686
   45CHL1   C26 3323   1.197   3.892   8.336  1.0077 -0.1143  0.5056
   45CHL1  H26A 3324   1.265   3.805   8.333 -0.4541 -1.3476  1.4419
   45CHL1  H26B 3325   1.209   3.949   8.431  2.7940  2.1370 -0.9715
   45CHL1  H26C 3326   1.088   3.868   8.338  0.9067  0.3042  2.0173
   45CHL1   C27 3327   1.386   4.029   8.243 -0.1767 -0.6479  0.1422
   45CHL1  H27A 3328   1.426   4.110   8.179  0.8136  0.5112  2.1387
   45CHL1  H27B 3329   1.391   4.064   8.348 -1.5065  0.7912 -0.2439
   45CHL1  H27C 3330   1.458   3.946   8.225 -0.1734 -0.0472 -3.3375
   46CHL1    C3 3331   6.474   5.076   7.075 -0.0864  0.6349  0.0849
   46CHL1    H3 3332   6.477   5.186   7.094  0.3447  1.1246 -2.5077
   46CHL1    O3 3333   6.488   5.055   6.934  0.5411 -0.3797  0.4453
   46CHL1   H3' 3334   6.575   5.084   6.904 -0.2770 -0.9237 -2.8099
   46CHL1    C4 3335   6.598   5.024   7.151  0.7958 -1.3306 -0.3802
   46CHL1   H4A 3336   6.610   4.916   7.132  0.4925 -1.2347 -1.1372
   46CHL1   H4B 3337   6.684   5.081   7.110 -1.5172  2.2375 -0.7568
   46CHL1    C5 3338   6.587   5.046   7.299  0.0067  0.4387 -0.2674
   46CHL1    C6 3339   6.680   5.109   7.364 -0.5163 -0.0706  0.4396
   46CHL1    H6 3340   6.770   5.130   7.304 -1.0320 -1.3427 -0.8501
   46CHL1    C7 3341   6.690   5.128   7.513 -0.1087 -0.8967  0.4938
   46CHL1   H7A 3342   6.787   5.084   7.543 -0.4438 -0.5347  2.2132
   46CHL1   H7B 3343   6.678   5.237   7.531 -0.0674 -0.4766 -1.7832
   46CHL1    C8 3344   6.583   5.049   7.593  0.1194 -0.6464  0.0675
   46CHL1    H8 3345   6.624   4.946   7.601 -0.9716 -1.0890  0.0805
   46CHL1   C14 3346   6.556   5.097   7.735 -0.2994 -0.4543 -0.2747
   46CHL1   H14 3347   6.516   5.200   7.723  0.4388  0.0246  1.0615
   46CHL1   C15 3348   6.687   5.126   7.819 -0.1918 -0.0386 -0.7432
   46CHL1  H15A 3349   6.755   5.045   7.783 -1.3465  0.1701 -3.7220
   46CHL1  H15B 3350   6.734   5.225   7.797  1.0660 -0.4466  0.0006
   46CHL1   C16 3351   6.630   5.109   7.959  0.6945 -0.0596 -0.6571
   46CHL1  H16A 3352   6.653   5.012   8.007 -2.0015  0.0292  1.0425
   46CHL1  H16B 3353   6.654   5.195   8.025 -1.7822 -0.9715  1.6304
   46CHL1   C17 3354   6.471   5.093   7.947 -0.0702 -0.4991 -0.2922
   46CHL1   H17 3355   6.430   5.197   7.944 -1.5200 -1.0468 -0.3495
   46CHL1   C13 3356   6.457   5.017   7.818  0.3329  0.3666 -0.2404
   46CHL1   C18 3357   6.504   4.872   7.838  0.1597 -0.7642 -0.0158
   46CHL1  H18A 3358   6.423   4.827   7.899  1.4239 -2.2626  0.6305
   46CHL1  H18B 3359   6.507   4.819   7.740 -0.8167 -1.2339  0.2019
   46CHL1  H18C 3360   6.604   4.867   7.887 -0.8591 -0.0526  2.2352
   46CHL1   C12 3361   6.322   5.030   7.746 -0.0093 -0.8073 -0.4762
   46CHL1  H12A 3362   6.248   4.967   7.801  1.8382 -2.3619  0.3499
   46CHL1  H12B 3363   6.298   5.138   7.749 -0.7978 -1.0018  0.6782
   46CHL1   C11 3364   6.336   4.983   7.595  0.0114  0.7623 -0.3406
   46CHL1  H11A 3365   6.343   4.872   7.598 -0.7838  0.7360  1.7146
   46CHL1  H11B 3366   6.234   5.005   7.556 -0.6676  2.4101  2.1776
   46CHL1    C9 3367   6.449   5.054   7.514 -0.4039 -0.4771  0.8820
   46CHL1    H9 3368   6.419   5.161   7.509  1.1960  0.0609  1.8736
   46CHL1   C10 3369   6.467   4.995   7.367 -1.0033  0.5982 -0.1462
   46CHL1   C19 3370   6.478   4.843   7.382  0.4607  0.9344  0.2051
   46CHL1  H19A 3371   6.540   4.813   7.469 -0.6488  0.1191  0.7401
   46CHL1  H19B 3372   6.376   4.813   7.415  0.1258  2.6986  0.8912
   46CHL1  H19C 3373   6.502   4.794   7.285  1.9405  0.0342  0.9961
   46CHL1    C1 3374   6.339   5.034   7.286  0.4251  0.2210 -0.3769
   46CHL1   H1A 3375   6.248   4.989   7.331  0.9941  0.6269  1.2579
   46CHL1   H1B 3376   6.349   5.144   7.299 -0.3277  0.1509  1.0814
   46CHL1    C2 3377   6.344   5.023   7.132  0.2200 -0.2266  0.5989
   46CHL1   H2A 3378   6.256   5.079   7.093  0.5707  1.1426  1.6874
   46CHL1   H2B 3379   6.332   4.914   7.114 -0.8667  0.3609 -2.8574
   46CHL1   C20 3380   6.398   5.034   8.075 -0.1755  0.1697 -0.7858
   46CHL1   H20 3381   6.431   4.929   8.090 -2.2255 -0.2298  1.6889
   46CHL1   C21 3382   6.248   5.041   8.052 -0.3306 -0.9406 -0.1622
   46CHL1  H21A 3383   6.188   5.075   8.138  2.1454  0.5328  1.1132
   46CHL1  H21B 3384   6.204   4.941   8.028 -1.7096 -2.1921  5.9517
   46CHL1  H21C 3385   6.223   5.112   7.971 -2.1935 -2.0990 -0.6660
   46CHL1   C22 3386   6.429   5.103   8.212  0.1003 -0.0061 -0.3397
   46CHL1  H22A 3387   6.534   5.139   8.225  0.9117 -2.8253  2.0080
   46CHL1  H22B 3388   6.364   5.193   8.216 -0.8297 -0.6247 -1.0043
   46CHL1   C23 3389   6.406   5.008   8.333 -0.0954 -0.1331 -0.6998
   46CHL1  H23A 3390   6.312   4.952   8.316 -0.1094 -0.3042 -0.0703
   46CHL1  H23B 3391   6.497   4.947   8.353  0.9648  1.6039  0.0606
   46CHL1   C24 3392   6.387   5.083   8.465  0.1339 -0.0550 -0.7455
   46CHL1  H24A 3393   6.487   5.128   8.486  0.1223 -0.2090 -0.3469
   46CHL1  H24B 3394   6.327   5.174   8.444  0.0711  0.0204 -0.2594
   46CHL1   C25 3395   6.350   5.007   8.592  0.2088 -0.0145 -0.6643
   46CHL1   H25 3396   6.430   4.946   8.637 -0.5556 -1.2549 -0.9234
   46CHL1   C26 3397   6.281   5.110   8.685 -0.8245  0.1219  0.6249
   46CHL1  H26A 3398   6.282   5.076   8.790  2.2580  0.6975  0.8794
   46CHL1  H26B 3399   6.329   5.210   8.673 -2.0212  0.5397 -1.1534
   46CHL1  H26C 3400   6.177   5.122   8.647 -0.0432 -1.7456 -2.4935
   46CHL1   C27 3401   6.249   4.890   8.569  0.0496 -0.1885  0.2575
   46CHL1  H27A 3402   6.163   4.899   8.499 -0.9685  0.2112  1.5232
   46CHL1  H27B 3403   6.310   4.810   8.520  1.0279 -0.5063  1.9206
   46CHL1  H27C 3404   6.219   4.849   8.668 -2.5335 -0.3971 -0.5468
   47CHL1    C3 3405   5.251   2.710   6.908  0.7827  0.2823  0.0388
   47CHL1    H3 3406   5.212   2.814   6.917 -1.1117 -0.5551  2.4266
   47CHL1    O3 3407   5.263   2.672   6.770  0.4268  0.5988 -0.2333
   47CHL1   H3' 3408   5.245   2.578   6.768 -1.7499  0.9637 -0.5505
   47CHL1    C4 3409   5.387   2.689   6.980 -0.0044  0.1070  0.0509
   47CHL1   H4A 3410   5.429   2.587   6.968 -1.0681 -0.6349  2.0448
   47CHL1   H4B 3411   5.450   2.765   6.930 -1.7897  2.3707  1.0389
   47CHL1    C5 3412   5.375   2.698   7.125  0.2227  0.5306 -0.3619
   47CHL1    C6 3413   5.453   2.776   7.205  0.3248 -0.4927  0.3450
   47CHL1    H6 3414   5.533   2.844   7.171 -1.4231  1.9919  0.9583
   47CHL1    C7 3415   5.460   2.769   7.356  0.2219 -0.6912  0.8687
   47CHL1   H7A 3416   5.565   2.759   7.391  0.5181  0.1973  0.2968
   47CHL1   H7B 3417   5.421   2.864   7.398  1.1076 -0.3443  0.9263
   47CHL1    C8 3418   5.376   2.659   7.414 -0.8465 -0.2055  0.0555
   47CHL1    H8 3419   5.444   2.571   7.419 -0.1203  0.1570 -2.1791
   47CHL1   C14 3420   5.337   2.701   7.559  0.1790  0.6471 -1.0237
   47CHL1   H14 3421   5.265   2.785   7.544  0.3105  0.7288 -1.1951
   47CHL1   C15 3422   5.448   2.763   7.650  0.4458  0.1615 -0.5024
   47CHL1  H15A 3423   5.548   2.720   7.629  0.9737 -0.1676  2.2806
   47CHL1  H15B 3424   5.446   2.873   7.637  0.5904  0.5735  2.2413
   47CHL1   C16 3425   5.401   2.727   7.792 -0.4220  0.5294 -0.4892
   47CHL1  H16A 3426   5.459   2.639   7.827  2.9885  2.8218  0.1109
   47CHL1  H16B 3427   5.420   2.804   7.870  2.8840 -0.5905 -0.0407
   47CHL1   C17 3428   5.259   2.664   7.785  0.2123 -0.0021  0.9105
   47CHL1   H17 3429   5.186   2.747   7.777 -1.4949 -1.4581  0.7910
   47CHL1   C13 3430   5.259   2.596   7.648 -0.4469  0.3883  0.2452
   47CHL1   C18 3431   5.342   2.464   7.652 -0.4008  0.4072  0.0138
   47CHL1  H18A 3432   5.351   2.428   7.548  1.2201  0.1313  0.2222
   47CHL1  H18B 3433   5.446   2.475   7.691 -0.3600  0.5931 -0.1504
   47CHL1  H18C 3434   5.289   2.382   7.705  1.1609  0.2024  1.3377
   47CHL1   C12 3435   5.126   2.577   7.568  0.4278 -0.2699 -0.3068
   47CHL1  H12A 3436   5.061   2.497   7.608  1.1025 -0.6448  0.0668
   47CHL1  H12B 3437   5.070   2.673   7.563  0.9428 -0.0438 -2.9719
   47CHL1   C11 3438   5.149   2.534   7.416 -0.1939 -0.1334  0.4098
   47CHL1  H11A 3439   5.187   2.429   7.413  0.5340 -0.0038  2.7794
   47CHL1  H11B 3440   5.044   2.545   7.382 -0.3646 -0.4255  0.8315
   47CHL1    C9 3441   5.240   2.635   7.342  0.4017 -0.1045 -0.3431
   47CHL1    H9 3442   5.193   2.735   7.345  0.3645 -0.0189 -2.5061
   47CHL1   C10 3443   5.264   2.611   7.193  0.5303 -0.3236  0.1190
   47CHL1   C19 3444   5.305   2.464   7.175 -0.8029 -0.7800  0.9183
   47CHL1  H19A 3445   5.213   2.403   7.186 -1.5766 -0.1173 -1.3876
   47CHL1  H19B 3446   5.343   2.439   7.074 -0.4970 -0.1823  0.8782
   47CHL1  H19C 3447   5.386   2.445   7.248  0.9756 -0.8465 -0.9922
   47CHL1    C1 3448   5.129   2.654   7.126 -0.5182  0.4743  0.1362
   47CHL1   H1A 3449   5.055   2.581   7.163 -0.0754 -1.2843 -2.1901
   47CHL1   H1B 3450   5.112   2.762   7.150 -0.5817  0.1774  1.4913
   47CHL1    C2 3451   5.142   2.629   6.971 -0.4522 -0.4094 -0.3768
   47CHL1   H2A 3452   5.045   2.664   6.928 -0.4193  1.1602  0.7487
   47CHL1   H2B 3453   5.149   2.518   6.963 -1.7949 -0.7225  1.8903
   47CHL1   C20 3454   5.209   2.585   7.910  0.5341  0.0894  0.4308
   47CHL1   H20 3455   5.266   2.490   7.913 -0.0212 -0.3301 -1.3641
   47CHL1   C21 3456   5.053   2.546   7.900  0.1004 -0.6254 -0.4544
   47CHL1  H21A 3457   5.035   2.482   7.811  0.5857  0.3485 -1.2806
   47CHL1  H21B 3458   4.991   2.636   7.878 -0.3813 -0.1553  2.4443
   47CHL1  H21C 3459   5.019   2.508   7.999  1.7088 -2.8708 -0.6914
   47CHL1   C22 3460   5.235   2.661   8.045  0.3636  0.2470 -0.4400
   47CHL1  H22A 3461   5.339   2.699   8.033  0.6004 -0.3135 -0.2292
   47CHL1  H22B 3462   5.167   2.745   8.070 -1.8383 -0.2422 -4.0174
   47CHL1   C23 3463   5.232   2.572   8.173  0.0748  0.3865 -0.4717
   47CHL1  H23A 3464   5.129   2.546   8.204  0.1794  1.5946  0.9766
   47CHL1  H23B 3465   5.296   2.481   8.165 -1.3455 -1.3669  4.4900
   47CHL1   C24 3466   5.298   2.634   8.301 -0.5101 -0.6229 -0.2384
   47CHL1  H24A 3467   5.290   2.745   8.301 -1.8479 -0.6963  0.9852
   47CHL1  H24B 3468   5.231   2.621   8.388  0.4130  0.8163  0.7314
   47CHL1   C25 3469   5.451   2.602   8.329 -0.2855  0.1648 -0.7843
   47CHL1   H25 3470   5.465   2.492   8.326  1.3093  0.3538 -2.4443
   47CHL1   C26 3471   5.536   2.659   8.215 -0.2106 -0.0388  0.0090
   47CHL1  H26A 3472   5.504   2.765   8.208  0.5446  0.2321  0.5523
   47CHL1  H26B 3473   5.643   2.649   8.244 -0.1409  1.0166  0.1198
   47CHL1  H26C 3474   5.516   2.609   8.117 -0.0317  1.8684 -1.0539
   47CHL1   C27 3475   5.499   2.655   8.467  0.4364  0.0971 -0.2996
   47CHL1  H27A 3476   5.430   2.607   8.541 -0.0662  0.0024 -0.8260
   47CHL1  H27B 3477   5.598   2.613   8.498  0.9144  0.9116 -0.6939
   47CHL1  H27C 3478   5.496   2.765   8.481  0.7410  0.0396  0.2861
   48CHL1    C3 3479   3.411   1.910   6.551  0.4361  0.2026 -0.2368
   48CHL1    H3 3480   3.474   2.000   6.561  0.8990 -0.1525  0.0710
   48CHL1    O3 3481   3.382   1.874   6.417  0.3091 -0.3228 -0.1852
   48CHL1   H3' 3482   3.344   1.786   6.417  1.8547 -1.0828  1.5532
   48CHL1    C4 3483   3.478   1.794   6.624  0.7358 -0.1722  0.2104
   48CHL1   H4A 3484   3.434   1.693   6.617 -1.1052  0.5308  0.9758
   48CHL1   H4B 3485   3.573   1.776   6.569  0.1921 -1.4136 -0.3720
   48CHL1    C5 3486   3.490   1.810   6.771  0.4207 -0.3605 -0.7383
   48CHL1    C6 3487   3.604   1.795   6.840 -0.1737  0.3322 -0.0628
   48CHL1    H6 3488   3.691   1.770   6.777 -0.6153  2.6007 -1.7247
   48CHL1    C7 3489   3.617   1.812   6.989 -0.6259  0.0938  0.6890
   48CHL1   H7A 3490   3.687   1.740   7.036  3.0424  2.6684 -0.3534
   48CHL1   H7B 3491   3.663   1.912   7.006 -2.8668  1.1250  1.1233
   48CHL1    C8 3492   3.485   1.814   7.063 -0.0527  0.5959 -0.1105
   48CHL1    H8 3493   3.440   1.713   7.071 -1.5305  1.3444  1.8058
   48CHL1   C14 3494   3.505   1.865   7.208  0.3655 -0.3587 -0.7252
   48CHL1   H14 3495   3.532   1.972   7.191  1.1396 -0.3162  0.6446
   48CHL1   C15 3496   3.625   1.813   7.290  0.8071 -0.2230 -0.1082
   48CHL1  H15A 3497   3.634   1.704   7.310  1.5676  0.1874  1.9955
   48CHL1  H15B 3498   3.723   1.852   7.255  1.7345 -2.7802 -0.5334
   48CHL1   C16 3499   3.587   1.861   7.432 -0.3348 -0.7179 -0.3338
   48CHL1  H16A 3500   3.596   1.768   7.493  0.1420  0.0305  0.7645
   48CHL1  H16B 3501   3.668   1.927   7.470  0.3349 -1.7164  0.0172
   48CHL1   C17 3502   3.440   1.921   7.426 -0.7660  0.0282 -0.1804
   48CHL1   H17 3503   3.454   2.030   7.411 -2.2066  0.2920  0.2885
   48CHL1   C13 3504   3.381   1.860   7.298  0.2235 -0.3441  0.0663
   48CHL1   C18 3505   3.332   1.715   7.321  0.1180 -0.0785  0.7026
   48CHL1  H18A 3506   3.307   1.664   7.226  2.3434 -0.1480  0.0899
   48CHL1  H18B 3507   3.413   1.660   7.373 -0.4988 -3.1817 -1.3893
   48CHL1  H18C 3508   3.238   1.730   7.379 -0.3265  1.8408 -0.4214
   48CHL1   C12 3509   3.275   1.945   7.235  0.4580 -0.6325  0.2081
   48CHL1  H12A 3510   3.182   1.954   7.295  0.3394 -1.3134  0.1388
   48CHL1  H12B 3511   3.319   2.047   7.226 -0.8262 -0.1301 -0.7164
   48CHL1   C11 3512   3.251   1.916   7.079 -0.0732  0.2603  0.2399
   48CHL1  H11A 3513   3.201   1.817   7.080 -1.0831  0.7429 -0.3141
   48CHL1  H11B 3514   3.183   1.993   7.036 -0.9791  0.2569  1.6010
   48CHL1    C9 3515   3.375   1.895   6.991 -0.1000  0.3195  0.4943
   48CHL1    H9 3516   3.425   1.994   6.985 -0.1151  0.3209  0.3873
   48CHL1   C10 3517   3.356   1.855   6.845 -0.3202  0.6018  0.8213
   48CHL1   C19 3518   3.267   1.722   6.842  0.1853  0.1954 -0.1309
   48CHL1  H19A 3519   3.231   1.710   6.737 -2.8292  1.4808  0.6594
   48CHL1  H19B 3520   3.321   1.633   6.880 -0.0216 -1.5460 -3.5076
   48CHL1  H19C 3521   3.176   1.738   6.903 -0.8875  1.1645 -1.9047
   48CHL1    C1 3522   3.297   1.980   6.771 -0.5147  0.3301  0.1308
   48CHL1   H1A 3523   3.199   2.006   6.815 -0.7548 -1.4269  0.7029
   48CHL1   H1B 3524   3.353   2.074   6.789 -1.4381  0.4300  2.9243
   48CHL1    C2 3525   3.281   1.955   6.613  0.3606 -0.5548 -0.1028
   48CHL1   H2A 3526   3.243   2.053   6.576 -1.9124 -1.4618 -0.3637
   48CHL1   H2B 3527   3.201   1.878   6.601  1.8205 -2.4678  1.6475
   48CHL1   C20 3528   3.364   1.905   7.561 -0.1545 -0.0283  0.4508
   48CHL1   H20 3529   3.336   1.800   7.580  0.1342 -0.6322 -2.0866
   48CHL1   C21 3530   3.232   1.985   7.558  0.3897 -0.1985  0.1550
   48CHL1  H21A 3531   3.236   2.086   7.512 -1.8066 -0.8882 -1.7481
   48CHL1  H21B 3532   3.179   1.996   7.655  2.0505 -0.7532  1.1683
   48CHL1  H21C 3533   3.151   1.932   7.503 -1.8732  1.0065  2.1030
   48CHL1   C22 3534   3.444   1.967   7.679  0.2347 -0.5031 -0.6538
   48CHL1  H22A 3535   3.543   1.917   7.686  0.5047  0.1525  0.3033
   48CHL1  H22B 3536   3.466   2.075   7.666 -2.2245  0.3133  1.1264
   48CHL1   C23 3537   3.383   1.946   7.823 -0.4290  0.0547 -0.6148
   48CHL1  H23A 3538   3.273   1.958   7.826 -0.8126 -1.6973 -3.7202
   48CHL1  H23B 3539   3.401   1.839   7.849 -2.0476  0.1943  1.3992
   48CHL1   C24 3540   3.450   2.028   7.933 -0.6943  0.0408 -0.1225
   48CHL1  H24A 3541   3.558   2.001   7.938 -0.9980 -1.1819  0.0376
   48CHL1  H24B 3542   3.451   2.135   7.901  0.5327  0.1328  0.1706
   48CHL1   C25 3543   3.382   2.020   8.070 -0.2872  0.0212  0.0479
   48CHL1   H25 3544   3.278   2.053   8.049 -0.3902  1.4165  2.4640
   48CHL1   C26 3545   3.384   1.878   8.135 -1.1347  0.2060  0.1521
   48CHL1  H26A 3546   3.354   1.881   8.241 -2.6975  0.2826 -0.2737
   48CHL1  H26B 3547   3.309   1.814   8.084  2.0885 -1.7361 -2.6779
   48CHL1  H26C 3548   3.477   1.825   8.104 -1.5708  0.2303 -1.2955
   48CHL1   C27 3549   3.428   2.137   8.166 -0.3235  0.1598 -0.4734
   48CHL1  H27A 3550   3.405   2.237   8.123 -1.3319  0.2522  0.2586
   48CHL1  H27B 3551   3.385   2.137   8.268 -0.0683 -2.6469 -0.3067
   48CHL1  H27C 3552   3.538   2.136   8.179 -0.4004  0.8890  0.3509
   49CHL1    C3 3553   3.738   2.337   6.825  0.1378 -0.1374 -0.5105
   49CHL1    H3 3554   3.845   2.355   6.845  0.7630 -2.9157 -0.9152
   49CHL1    O3 3555   3.717   2.322   6.683  0.0357  0.5356  0.3149
   49CHL1   H3' 3556   3.787   2.263   6.655 -1.1023 -1.8463  2.1610
   49CHL1    C4 3557   3.716   2.207   6.903 -0.2270 -0.8904  0.6116
   49CHL1   H4A 3558   3.621   2.161   6.868 -0.7806  0.9197 -0.4360
   49CHL1   H4B 3559   3.786   2.132   6.860  0.3548  0.0526 -0.1371
   49CHL1    C5 3560   3.729   2.227   7.052  0.1334  0.7590  0.2358
   49CHL1    C6 3561   3.814   2.157   7.128 -0.0106  0.5198  0.0214
   49CHL1    H6 3562   3.870   2.070   7.092 -0.5662 -0.7090  1.9927
   49CHL1    C7 3563   3.824   2.174   7.276 -0.2510  0.0247  0.0148
   49CHL1   H7A 3564   3.814   2.076   7.328  0.3163  0.3931  0.8444
   49CHL1   H7B 3565   3.924   2.219   7.293  1.9059 -2.4276 -4.5462
   49CHL1    C8 3566   3.715   2.255   7.339  0.0779  0.1957 -0.7064
   49CHL1    H8 3567   3.620   2.201   7.355  0.9311 -0.6797  1.8749
   49CHL1   C14 3568   3.760   2.302   7.480 -0.4468  0.3948 -0.2465
   49CHL1   H14 3569   3.853   2.362   7.468  0.9081 -1.7877 -1.1624
   49CHL1   C15 3570   3.801   2.191   7.588  0.7751 -0.5281  0.0289
   49CHL1  H15A 3571   3.722   2.113   7.588  1.0346 -0.8193 -1.4744
   49CHL1  H15B 3572   3.899   2.142   7.567  0.3491 -1.7326  0.7890
   49CHL1   C16 3573   3.794   2.264   7.725 -0.6938 -0.0312  0.0170
   49CHL1  H16A 3574   3.737   2.199   7.794  2.8353 -1.7076  1.6269
   49CHL1  H16B 3575   3.891   2.282   7.776 -1.2834  3.1358  0.2019
   49CHL1   C17 3576   3.739   2.403   7.694  0.7290 -0.4145  0.3504
   49CHL1   H17 3577   3.829   2.469   7.693  0.6418 -0.2843 -1.6340
   49CHL1   C13 3578   3.667   2.396   7.557  0.2291  0.0675  0.0020
   49CHL1   C18 3579   3.534   2.333   7.585  0.7238  0.4973  0.1463
   49CHL1  H18A 3580   3.519   2.265   7.672 -1.4335  1.4801  0.6299
   49CHL1  H18B 3581   3.463   2.418   7.603  0.5224  0.0813  1.4321
   49CHL1  H18C 3582   3.486   2.281   7.500  0.2862  0.9005  0.1396
   49CHL1   C12 3583   3.660   2.525   7.465  0.0951  0.2925  0.4174
   49CHL1  H12A 3584   3.595   2.602   7.512  0.2349  0.8991 -0.3699
   49CHL1  H12B 3585   3.765   2.560   7.463 -0.2305  1.2807 -0.3526
   49CHL1   C11 3586   3.608   2.494   7.328  0.0585  0.3400 -0.2212
   49CHL1  H11A 3587   3.501   2.465   7.325  0.3332 -0.7490 -0.2673
   49CHL1  H11B 3588   3.612   2.586   7.266 -0.7400  1.0076  0.7033
   49CHL1    C9 3589   3.691   2.379   7.257  0.0023  0.4263 -0.6277
   49CHL1    H9 3590   3.787   2.435   7.254  0.3329 -0.1613 -1.3171
   49CHL1   C10 3591   3.645   2.337   7.113 -0.4521 -0.2034 -0.4297
   49CHL1   C19 3592   3.493   2.301   7.104  0.2735  0.7886 -0.0487
   49CHL1  H19A 3593   3.455   2.273   7.003 -0.5227  0.5894  0.3032
   49CHL1  H19B 3594   3.468   2.215   7.170  0.9102  1.4908  1.1264
   49CHL1  H19C 3595   3.431   2.388   7.132 -0.7514  0.4015 -1.0385
   49CHL1    C1 3596   3.670   2.467   7.027 -0.4624  0.3200 -0.0443
   49CHL1   H1A 3597   3.594   2.544   7.053 -0.4665  0.0980  0.6146
   49CHL1   H1B 3598   3.773   2.500   7.051  0.1716 -1.3122 -0.3525
   49CHL1    C2 3599   3.652   2.454   6.879  0.4177 -0.8414 -0.2982
   49CHL1   H2A 3600   3.676   2.545   6.820 -2.6013  0.0015 -0.4232
   49CHL1   H2B 3601   3.551   2.420   6.847  0.1429  0.7599 -1.2418
   49CHL1   C20 3602   3.664   2.458   7.813 -0.3084 -0.4117 -0.2228
   49CHL1   H20 3603   3.576   2.392   7.831 -0.5981  0.1391  0.4308
   49CHL1   C21 3604   3.621   2.608   7.793  0.0553  0.3949  0.1067
   49CHL1  H21A 3605   3.717   2.663   7.781  0.8853 -1.3853 -1.9631
   49CHL1  H21B 3606   3.587   2.642   7.894  2.6411 -0.7335  1.4454
   49CHL1  H21C 3607   3.549   2.619   7.709 -1.0160 -0.4785  0.8751
   49CHL1   C22 3608   3.743   2.450   7.945  0.5355 -0.3392 -0.5174
   49CHL1  H22A 3609   3.778   2.345   7.954  0.8910 -0.3152 -1.4919
   49CHL1  H22B 3610   3.830   2.519   7.940 -0.7246  1.3360 -0.2745
   49CHL1   C23 3611   3.674   2.483   8.074 -0.0468 -0.4036 -0.1903
   49CHL1  H23A 3612   3.677   2.593   8.091  1.3036 -0.5017  0.3855
   49CHL1  H23B 3613   3.567   2.456   8.070 -0.1387 -0.1373  0.4557
   49CHL1   C24 3614   3.729   2.406   8.189  0.7420 -0.3156  0.0651
   49CHL1  H24A 3615   3.736   2.295   8.189  4.6669 -0.2433 -0.8743
   49CHL1  H24B 3616   3.837   2.433   8.193  0.7527  0.2253 -2.2215
   49CHL1   C25 3617   3.672   2.445   8.330 -0.0672  0.1253 -0.4959
   49CHL1   H25 3618   3.644   2.552   8.324  1.0773  0.4815  0.2621
   49CHL1   C26 3619   3.552   2.360   8.377  0.6159  0.3807  0.2770
   49CHL1  H26A 3620   3.579   2.254   8.395  1.7548  0.5340 -0.4470
   49CHL1  H26B 3621   3.523   2.400   8.476  0.3019 -1.5815  1.0349
   49CHL1  H26C 3622   3.465   2.375   8.309  0.7208  0.1268  0.0828
   49CHL1   C27 3623   3.776   2.429   8.437  0.2759 -0.1765  0.3023
   49CHL1  H27A 3624   3.746   2.475   8.534  0.4000 -0.2113  0.3583
   49CHL1  H27B 3625   3.799   2.323   8.458  0.1980  0.0577  1.6572
   49CHL1  H27C 3626   3.874   2.476   8.412 -0.3468  3.0500  3.0734
   50CHL1    C3 3627   4.376   2.418   6.714  0.0337  0.5025 -0.7203
   50CHL1    H3 3628   4.452   2.499   6.716 -0.3960  0.9174 -0.9504
   50CHL1    O3 3629   4.359   2.386   6.576 -0.6850 -0.1877  0.3986
   50CHL1   H3' 3630   4.448   2.403   6.545 -0.5220 -3.2211 -1.1287
   50CHL1    C4 3631   4.420   2.284   6.785 -0.3591 -0.5159  0.3853
   50CHL1   H4A 3632   4.343   2.210   6.754 -0.0760  0.1737 -2.2304
   50CHL1   H4B 3633   4.521   2.254   6.748  0.6122  2.1869  0.5896
   50CHL1    C5 3634   4.425   2.300   6.939 -0.4570  0.3754  0.1328
   50CHL1    C6 3635   4.547   2.294   7.005  0.2606  0.4920  0.3190
   50CHL1    H6 3636   4.641   2.277   6.951  1.2819  0.9948  1.8682
   50CHL1    C7 3637   4.551   2.308   7.155  0.1640  0.2490 -0.3874
   50CHL1   H7A 3638   4.596   2.219   7.205 -1.3882  0.9268  2.4571
   50CHL1   H7B 3639   4.598   2.406   7.177  0.2346  0.5308 -1.7370
   50CHL1    C8 3640   4.409   2.299   7.229  0.0203 -0.4719  0.5697
   50CHL1    H8 3641   4.355   2.202   7.227 -4.7597  1.8918  0.7189
   50CHL1   C14 3642   4.411   2.355   7.369  0.3270 -0.4306  0.0482
   50CHL1   H14 3643   4.433   2.463   7.358 -2.1099  0.2530  1.2437
   50CHL1   C15 3644   4.514   2.285   7.457 -0.2154 -0.0452  0.1164
   50CHL1  H15A 3645   4.518   2.175   7.442  3.1705  0.0951 -0.8619
   50CHL1  H15B 3646   4.623   2.297   7.438 -0.1217 -2.5733 -1.4000
   50CHL1   C16 3647   4.474   2.305   7.600  0.7226  0.2179  0.6002
   50CHL1  H16A 3648   4.439   2.208   7.640 -1.7333  0.4380 -0.8442
   50CHL1  H16B 3649   4.563   2.346   7.653  0.9535  0.8390 -0.2429
   50CHL1   C17 3650   4.339   2.389   7.587 -0.8948 -0.2763  0.4923
   50CHL1   H17 3651   4.382   2.491   7.590  2.6202 -1.3709 -3.4405
   50CHL1   C13 3652   4.279   2.361   7.444 -0.1419 -0.8564  0.6875
   50CHL1   C18 3653   4.217   2.217   7.445  0.7185  0.0665 -0.6823
   50CHL1  H18A 3654   4.185   2.187   7.342  1.4481 -0.6069 -0.7264
   50CHL1  H18B 3655   4.290   2.141   7.479  0.1763 -1.1672 -2.1015
   50CHL1  H18C 3656   4.123   2.207   7.504  1.2530 -0.1073  0.1455
   50CHL1   C12 3657   4.192   2.464   7.377  0.2244 -0.5248  0.3660
   50CHL1  H12A 3658   4.088   2.476   7.416 -0.1531  1.3583 -1.0932
   50CHL1  H12B 3659   4.242   2.563   7.386 -0.2266 -0.1939 -0.6684
   50CHL1   C11 3660   4.180   2.426   7.228 -0.1075  0.0737 -0.0701
   50CHL1  H11A 3661   4.104   2.345   7.228  1.4521 -1.4564  0.1294
   50CHL1  H11B 3662   4.134   2.510   7.172  1.3244 -0.2889 -1.8734
   50CHL1    C9 3663   4.312   2.386   7.152 -0.2855 -0.1601 -0.2640
   50CHL1    H9 3664   4.366   2.483   7.151 -0.4582  0.0310  2.5556
   50CHL1   C10 3665   4.298   2.338   7.008  0.4159  0.1157 -0.0466
   50CHL1   C19 3666   4.204   2.211   6.999 -0.2494  0.0902  0.0922
   50CHL1  H19A 3667   4.239   2.130   7.067  2.4778  1.3415  0.2854
   50CHL1  H19B 3668   4.095   2.229   7.009  0.0465  1.2264  1.6078
   50CHL1  H19C 3669   4.206   2.162   6.899 -2.8748  0.2252 -0.0972
   50CHL1    C1 3670   4.242   2.463   6.926  0.2829 -0.1747  0.0669
   50CHL1   H1A 3671   4.139   2.490   6.957 -0.4463 -2.0735 -0.5241
   50CHL1   H1B 3672   4.318   2.543   6.938 -0.6561  0.6506  0.5925
   50CHL1    C2 3673   4.235   2.452   6.772  0.4109 -0.8489  0.2431
   50CHL1   H2A 3674   4.208   2.552   6.731 -1.8978 -0.9060  1.5001
   50CHL1   H2B 3675   4.171   2.370   6.732  1.4620 -1.1036 -0.9918
   50CHL1   C20 3676   4.237   2.370   7.704 -0.2853  0.3961  0.0750
   50CHL1   H20 3677   4.194   2.267   7.705  3.0222 -1.1186  0.8457
   50CHL1   C21 3678   4.124   2.471   7.699 -0.0778 -0.0653 -0.1733
   50CHL1  H21A 3679   4.166   2.569   7.668 -0.8202  0.9537  1.8801
   50CHL1  H21B 3680   4.051   2.487   7.781 -0.7606 -2.2452 -0.2932
   50CHL1  H21C 3681   4.049   2.441   7.622 -0.1200 -0.9295  0.1947
   50CHL1   C22 3682   4.322   2.383   7.838  0.2813  0.4754 -0.2897
   50CHL1  H22A 3683   4.379   2.288   7.845  1.3771  0.9997 -1.7559
   50CHL1  H22B 3684   4.382   2.476   7.841  1.9355 -0.5665  0.8964
   50CHL1   C23 3685   4.235   2.387   7.967  0.0824  0.6451 -0.2961
   50CHL1  H23A 3686   4.197   2.492   7.974 -0.2617  0.5121 -0.1350
   50CHL1  H23B 3687   4.151   2.315   7.958  1.6018 -1.5196  1.4772
   50CHL1   C24 3688   4.327   2.346   8.086  0.2378  0.7862  0.2938
   50CHL1  H24A 3689   4.378   2.248   8.089 -0.3189  0.5057  3.3428
   50CHL1  H24B 3690   4.410   2.420   8.083 -0.6671  1.8143 -0.0137
   50CHL1   C25 3691   4.237   2.367   8.213 -0.4423  0.6176  0.5483
   50CHL1   H25 3692   4.167   2.453   8.197 -0.1153  0.8458  0.3236
   50CHL1   C26 3693   4.165   2.235   8.240 -0.0674 -0.7171  0.0911
   50CHL1  H26A 3694   4.101   2.213   8.153 -1.6923  2.2378  0.4065
   50CHL1  H26B 3695   4.241   2.154   8.243 -0.6248 -1.2408  0.4028
   50CHL1  H26C 3696   4.116   2.227   8.340 -0.3207 -0.5393 -0.0169
   50CHL1   C27 3697   4.327   2.414   8.331  0.0334  0.3287  0.4174
   50CHL1  H27A 3698   4.395   2.332   8.362  0.2308 -0.4051 -1.8018
   50CHL1  H27B 3699   4.383   2.503   8.296 -0.7051  0.2034 -1.2111
   50CHL1  H27C 3700   4.262   2.454   8.411  1.3965  0.4613  1.4958
   51CHL1    C3 3701   1.513   2.866   6.983  0.5064 -0.2996  0.7950
   51CHL1    H3 3702   1.498   2.971   7.015 -0.2631 -0.3390  0.5978
   51CHL1    O3 3703   1.558   2.865   6.841  0.7893 -0.3441 -0.1046
   51CHL1   H3' 3704   1.575   2.771   6.829  0.3797 -0.5604  0.8494
   51CHL1    C4 3705   1.627   2.800   7.065  0.5845  0.2754 -0.5034
   51CHL1   H4A 3706   1.640   2.693   7.035  0.7202 -0.5324  2.2124
   51CHL1   H4B 3707   1.720   2.857   7.046 -0.0516  0.9609 -1.7145
   51CHL1    C5 3708   1.590   2.807   7.209 -0.6145  0.9577 -0.9680
   51CHL1    C6 3709   1.667   2.863   7.300 -0.1025  0.3611 -0.2139
   51CHL1    H6 3710   1.762   2.892   7.253 -1.4779  1.5708 -2.4401
   51CHL1    C7 3711   1.635   2.886   7.440  0.0847 -0.6954 -0.0206
   51CHL1   H7A 3712   1.722   2.868   7.507 -0.9854 -2.9791  0.8844
   51CHL1   H7B 3713   1.610   2.992   7.463  1.0843 -0.7803  1.6274
   51CHL1    C8 3714   1.538   2.774   7.486 -0.1021  0.5054 -0.2471
   51CHL1    H8 3715   1.594   2.678   7.479 -2.2091 -0.7788 -0.2044
   51CHL1   C14 3716   1.494   2.807   7.623 -0.0842 -0.0765 -0.5250
   51CHL1   H14 3717   1.455   2.911   7.611 -0.2444 -0.2001 -1.1005
   51CHL1   C15 3718   1.602   2.823   7.734  0.5814 -0.3580  0.9441
   51CHL1  H15A 3719   1.680   2.746   7.715  0.9768  0.4180 -0.7720
   51CHL1  H15B 3720   1.643   2.926   7.722 -2.4569  1.2322  2.8436
   51CHL1   C16 3721   1.524   2.820   7.862 -0.2590  0.2437  0.6795
   51CHL1  H16A 3722   1.556   2.727   7.916 -0.4762 -1.3928 -1.8370
   51CHL1  H16B 3723   1.550   2.909   7.923 -0.5569  0.4800  0.4550
   51CHL1   C17 3724   1.368   2.806   7.824  0.8480 -0.2636  0.5511
   51CHL1   H17 3725   1.335   2.910   7.805 -0.1321 -0.8155 -0.9283
   51CHL1   C13 3726   1.373   2.733   7.687 -0.1750 -0.1797  0.6204
   51CHL1   C18 3727   1.399   2.589   7.701  0.4360  0.3314 -0.2388
   51CHL1  H18A 3728   1.441   2.554   7.605 -0.8526  3.8455 -2.2835
   51CHL1  H18B 3729   1.460   2.561   7.789  0.4446 -0.8752 -0.6165
   51CHL1  H18C 3730   1.299   2.544   7.716  0.2382  1.3539  1.8797
   51CHL1   C12 3731   1.253   2.757   7.591  0.0985  0.4387  0.2466
   51CHL1  H12A 3732   1.172   2.695   7.635 -0.2126  0.5715 -0.1355
   51CHL1  H12B 3733   1.229   2.864   7.611  0.5915  0.4310  0.9060
   51CHL1   C11 3734   1.284   2.720   7.442 -0.3613  0.4268  1.0284
   51CHL1  H11A 3735   1.280   2.610   7.428 -0.0211  0.7056 -1.8563
   51CHL1  H11B 3736   1.201   2.744   7.372 -0.3861 -0.7821  0.6152
   51CHL1    C9 3737   1.419   2.780   7.395  0.6863  0.1819  0.5117
   51CHL1    H9 3738   1.390   2.886   7.384 -1.8116 -0.4262  0.7147
   51CHL1   C10 3739   1.448   2.748   7.243 -0.5980  0.2958  0.3519
   51CHL1   C19 3740   1.447   2.586   7.227 -0.3327 -0.2307  0.0956
   51CHL1  H19A 3741   1.503   2.556   7.136  0.2534  1.4093 -0.1143
   51CHL1  H19B 3742   1.504   2.554   7.317  1.8293  2.0681 -0.3503
   51CHL1  H19C 3743   1.345   2.541   7.221 -0.0912 -0.9288  0.9480
   51CHL1    C1 3744   1.342   2.811   7.146 -0.2578  0.4018 -0.5170
   51CHL1   H1A 3745   1.242   2.765   7.154  0.8262 -2.1500 -0.5987
   51CHL1   H1B 3746   1.334   2.918   7.174  0.8277  0.3197  0.1938
   51CHL1    C2 3747   1.379   2.798   6.999 -0.4154  0.7709 -0.0957
   51CHL1   H2A 3748   1.296   2.846   6.942  0.0631  2.2425  0.4179
   51CHL1   H2B 3749   1.378   2.692   6.965 -4.8464  1.0492 -1.4943
   51CHL1   C20 3750   1.289   2.743   7.935  0.4023 -0.4242 -0.3789
   51CHL1   H20 3751   1.305   2.634   7.944  0.6212 -0.2283  2.6794
   51CHL1   C21 3752   1.139   2.780   7.911 -0.1265 -0.8702  0.1815
   51CHL1  H21A 3753   1.098   2.760   7.809 -0.7481 -0.8365  0.4213
   51CHL1  H21B 3754   1.128   2.886   7.940  1.8396 -1.4278  3.5280
   51CHL1  H21C 3755   1.073   2.735   7.988  0.2289  0.5830  1.3623
   51CHL1   C22 3756   1.325   2.793   8.073 -0.0697 -0.7672 -0.3250
   51CHL1  H22A 3757   1.430   2.766   8.098  0.1345 -0.3632 -0.7379
   51CHL1  H22B 3758   1.312   2.902   8.062 -0.2850 -0.9114 -1.6606
   51CHL1   C23 3759   1.235   2.736   8.182  0.4117  0.4568 -0.5323
   51CHL1  H23A 3760   1.131   2.775   8.174 -0.9571 -2.2859  2.0204
   51CHL1  H23B 3761   1.211   2.628   8.178 -0.1061  0.4941  0.9748
   51CHL1   C24 3762   1.293   2.759   8.325 -0.4011 -0.7456 -0.4813
   51CHL1  H24A 3763   1.401   2.736   8.332 -0.2064 -0.3649 -2.0083
   51CHL1  H24B 3764   1.267   2.863   8.355  0.9322 -0.6518  0.4078
   51CHL1   C25 3765   1.230   2.680   8.445 -0.1991 -0.9037 -0.0678
   51CHL1   H25 3766   1.120   2.690   8.460  0.0617  0.6993  1.0037
   51CHL1   C26 3767   1.246   2.528   8.423  0.0528 -0.6222 -0.0691
   51CHL1  H26A 3768   1.242   2.486   8.320 -1.7950 -1.0660  0.1488
   51CHL1  H26B 3769   1.350   2.499   8.451 -0.6907 -0.8583  2.7515
   51CHL1  H26C 3770   1.187   2.468   8.496 -1.2677  1.4872  0.6894
   51CHL1   C27 3771   1.294   2.726   8.578 -0.3817 -0.2665 -0.5669
   51CHL1  H27A 3772   1.404   2.710   8.582 -0.3656  0.0858  1.0820
   51CHL1  H27B 3773   1.268   2.832   8.599 -1.3923 -0.4041 -1.0876
   51CHL1  H27C 3774   1.248   2.662   8.656  1.3158  0.1342  0.8166
   52CHL1    C3 3775   4.699   2.800   6.977  0.3633  0.4688 -0.2254
   52CHL1    H3 3776   4.808   2.821   6.990  0.3926  0.2201 -0.0741
   52CHL1    O3 3777   4.680   2.772   6.836  1.2056  0.1467  0.0356
   52CHL1   H3' 3778   4.587   2.784   6.816  1.7405  0.7647 -2.5421
   52CHL1    C4 3779   4.656   2.674   7.050  0.2355  0.6376  0.2347
   52CHL1   H4A 3780   4.561   2.639   7.004  1.0930 -1.2765 -0.1654
   52CHL1   H4B 3781   4.727   2.597   7.014 -3.6626 -3.1969 -0.0854
   52CHL1    C5 3782   4.661   2.686   7.201  0.0019 -0.1624  0.4301
   52CHL1    C6 3783   4.739   2.613   7.275 -0.0011  0.6188 -0.2182
   52CHL1    H6 3784   4.800   2.538   7.222  0.7305  0.9311  0.1693
   52CHL1    C7 3785   4.740   2.611   7.428  0.1283 -0.0232 -0.1645
   52CHL1   H7A 3786   4.713   2.514   7.476 -1.8417  0.6742  0.2443
   52CHL1   H7B 3787   4.838   2.645   7.466  0.2112  0.2284 -0.5976
   52CHL1    C8 3788   4.628   2.698   7.486  0.3882  0.0965 -0.1641
   52CHL1    H8 3789   4.535   2.637   7.483  1.4446 -1.5914  0.2404
   52CHL1   C14 3790   4.649   2.737   7.632 -0.0670 -0.4077 -1.0027
   52CHL1   H14 3791   4.743   2.796   7.640 -0.7053  0.6035 -0.7313
   52CHL1   C15 3792   4.682   2.623   7.731  0.3576 -0.6257 -0.0498
   52CHL1  H15A 3793   4.609   2.542   7.713  1.4523 -1.0893 -2.9300
   52CHL1  H15B 3794   4.785   2.584   7.718  0.6680  0.1504  0.0433
   52CHL1   C16 3795   4.660   2.696   7.868 -0.9550  0.1001 -1.1554
   52CHL1  H16A 3796   4.590   2.642   7.936  0.6702  1.2907  1.6650
   52CHL1  H16B 3797   4.759   2.701   7.919 -0.2646 -0.8067 -2.3638
   52CHL1   C17 3798   4.599   2.839   7.847  0.8750  1.2683 -0.4950
   52CHL1   H17 3799   4.685   2.909   7.838  1.7780  0.2280 -0.0991
   52CHL1   C13 3800   4.543   2.832   7.702 -0.1157  0.1751  0.1688
   52CHL1   C18 3801   4.405   2.761   7.699  0.3538 -0.0944 -0.4205
   52CHL1  H18A 3802   4.327   2.817   7.754  0.2660 -1.2967  0.7477
   52CHL1  H18B 3803   4.377   2.730   7.596  0.7539 -1.5498 -0.1234
   52CHL1  H18C 3804   4.410   2.669   7.762 -0.0094  1.1290  1.4806
   52CHL1   C12 3805   4.539   2.961   7.619  0.1568 -0.3667 -0.3571
   52CHL1  H12A 3806   4.455   3.026   7.653  0.4890 -0.6477  1.0766
   52CHL1  H12B 3807   4.640   3.003   7.634  0.1994 -0.4441 -0.4300
   52CHL1   C11 3808   4.505   2.932   7.472  0.2435  0.1936 -0.7742
   52CHL1  H11A 3809   4.397   2.903   7.473  0.5632 -1.0474  0.2251
   52CHL1  H11B 3810   4.516   3.029   7.420 -0.3974  0.9136  0.3633
   52CHL1    C9 3811   4.605   2.829   7.403 -0.6908 -0.3046 -0.6375
   52CHL1    H9 3812   4.700   2.885   7.404 -1.9454  1.9702 -2.0834
   52CHL1   C10 3813   4.573   2.800   7.257 -0.2430 -0.3707 -0.2880
   52CHL1   C19 3814   4.428   2.758   7.246  0.8847 -0.2970 -0.1511
   52CHL1  H19A 3815   4.392   2.755   7.141 -2.0179 -1.8195  0.7615
   52CHL1  H19B 3816   4.388   2.666   7.295  0.5719  0.7009  1.5291
   52CHL1  H19C 3817   4.365   2.837   7.290  0.0605 -1.2141  0.3567
   52CHL1    C1 3818   4.604   2.923   7.173 -0.1494 -0.4438 -0.1270
   52CHL1   H1A 3819   4.536   3.007   7.201  0.1497 -0.2110 -0.0887
   52CHL1   H1B 3820   4.701   2.972   7.198 -0.6003  1.1354 -1.2917
   52CHL1    C2 3821   4.604   2.913   7.024  0.1875 -0.3753  0.3422
   52CHL1   H2A 3822   4.616   3.013   6.977 -0.1164 -0.1149  0.8192
   52CHL1   H2B 3823   4.502   2.894   6.983  0.2546  0.4631 -0.2642
   52CHL1   C20 3824   4.503   2.883   7.965 -0.1529  0.3492 -0.2279
   52CHL1   H20 3825   4.422   2.807   7.960  1.0002 -0.9133 -0.1431
   52CHL1   C21 3826   4.447   3.020   7.930  0.3363 -0.0294 -0.6888
   52CHL1  H21A 3827   4.385   3.057   8.015  0.0582  0.1811 -0.9827
   52CHL1  H21B 3828   4.385   3.013   7.838 -1.9364 -1.6555  0.8580
   52CHL1  H21C 3829   4.524   3.097   7.910  0.0363  0.3376 -0.4614
   52CHL1   C22 3830   4.570   2.880   8.107  0.4474 -0.3456  1.3361
   52CHL1  H22A 3831   4.641   2.796   8.124  0.4884 -0.4560  0.6276
   52CHL1  H22B 3832   4.622   2.978   8.113 -0.1465  0.4749 -3.2783
   52CHL1   C23 3833   4.474   2.880   8.213  0.4447 -0.0496 -0.3689
   52CHL1  H23A 3834   4.393   2.956   8.219 -0.3358 -0.9318  0.6227
   52CHL1  H23B 3835   4.423   2.782   8.200  0.7403 -0.3329  0.5367
   52CHL1   C24 3836   4.557   2.878   8.338 -0.7668 -0.3780 -0.8998
   52CHL1  H24A 3837   4.634   2.799   8.336  1.1859  1.4291 -0.8452
   52CHL1  H24B 3838   4.613   2.974   8.334 -1.5525  0.0624 -2.1955
   52CHL1   C25 3839   4.494   2.870   8.474  0.2660  0.4002  0.2461
   52CHL1   H25 3840   4.452   2.767   8.479  3.1661 -0.9263 -0.2707
   52CHL1   C26 3841   4.604   2.878   8.584  0.1260 -0.2690  0.4572
   52CHL1  H26A 3842   4.581   2.893   8.691 -0.6598  1.3146  0.1020
   52CHL1  H26B 3843   4.682   2.800   8.575  2.0191  1.6330 -0.5403
   52CHL1  H26C 3844   4.665   2.969   8.565  1.7822 -0.5302  3.8479
   52CHL1   C27 3845   4.396   2.981   8.499 -0.2131 -0.1474 -0.4147
   52CHL1  H27A 3846   4.315   2.970   8.424 -0.4355 -1.5330 -0.0029
   52CHL1  H27B 3847   4.359   2.969   8.603  1.3665 -0.9141  0.0894
   52CHL1  H27C 3848   4.456   3.073   8.485 -0.2107 -0.2156 -0.8732
   53CHL1    C3 3849   5.824   5.726   7.127 -0.3307 -0.0929  0.2851
   53CHL1    H3 3850   5.814   5.835   7.148  0.6373 -0.3304  2.2154
   53CHL1    O3 3851   5.859   5.688   6.996  0.2633 -0.6525  0.0347
   53CHL1   H3' 3852   5.896   5.600   6.998  0.4666 -0.6043 -0.9399
   53CHL1    C4 3853   5.946   5.674   7.210  0.0505 -0.6545  0.4501
   53CHL1   H4A 3854   5.946   5.565   7.190  0.4959 -0.8094  1.2388
   53CHL1   H4B 3855   6.034   5.720   7.160  0.3279 -0.7171  0.8721
   53CHL1    C5 3856   5.917   5.727   7.349 -0.1049  0.3672  0.4184
   53CHL1    C6 3857   6.003   5.813   7.406  0.7443  0.3300  0.2261
   53CHL1    H6 3858   6.093   5.852   7.355 -0.6994  1.2218 -1.7939
   53CHL1    C7 3859   5.976   5.860   7.546 -1.0198  0.2621  0.8276
   53CHL1   H7A 3860   6.068   5.857   7.608 -1.2988  1.1020  1.3150
   53CHL1   H7B 3861   5.951   5.969   7.553  1.5631  1.0500 -0.8193
   53CHL1    C8 3862   5.882   5.767   7.632  0.0771 -0.0471  0.8653
   53CHL1    H8 3863   5.938   5.673   7.649  0.6945 -0.1466 -1.4085
   53CHL1   C14 3864   5.838   5.833   7.756 -0.3569 -0.0889  0.2927
   53CHL1   H14 3865   5.792   5.929   7.727 -1.0978 -0.0891  1.4066
   53CHL1   C15 3866   5.945   5.870   7.853 -0.1697 -0.8477  0.3021
   53CHL1  H15A 3867   5.996   5.774   7.874 -2.0493 -1.9155  0.2332
   53CHL1  H15B 3868   6.023   5.945   7.830 -2.6884  1.6398 -0.8379
   53CHL1   C16 3869   5.851   5.909   7.972  0.0249 -0.1398  0.0112
   53CHL1  H16A 3870   5.906   5.887   8.066  0.1782  1.3108  0.2942
   53CHL1  H16B 3871   5.825   6.017   7.979  0.3604 -0.0774  0.3243
   53CHL1   C17 3872   5.713   5.840   7.952  0.4828 -0.2603 -0.2563
   53CHL1   H17 3873   5.640   5.915   7.914 -0.0624 -0.7420 -0.1665
   53CHL1   C13 3874   5.738   5.751   7.828  0.0091  0.2364 -0.1899
   53CHL1   C18 3875   5.792   5.609   7.875  0.0177  0.3558 -0.4934
   53CHL1  H18A 3876   5.816   5.547   7.787  0.4219 -2.5561  1.5257
   53CHL1  H18B 3877   5.889   5.615   7.929 -1.0101 -2.2011  1.9216
   53CHL1  H18C 3878   5.731   5.550   7.947  0.6167  0.4677  0.1254
   53CHL1   C12 3879   5.611   5.742   7.750 -0.0316 -0.0202 -0.7432
   53CHL1  H12A 3880   5.524   5.689   7.793  0.2870 -0.2454 -0.3645
   53CHL1  H12B 3881   5.579   5.846   7.728 -1.5136 -0.0311  1.1124
   53CHL1   C11 3882   5.643   5.673   7.628 -0.4336  0.0364 -0.1203
   53CHL1  H11A 3883   5.678   5.571   7.652  0.7818  0.4527 -0.0334
   53CHL1  H11B 3884   5.545   5.681   7.575 -1.1530  1.3138  1.3216
   53CHL1    C9 3885   5.755   5.739   7.547 -0.6291 -0.2905  0.1853
   53CHL1    H9 3886   5.716   5.842   7.533  1.8412  0.4319 -2.1757
   53CHL1   C10 3887   5.782   5.676   7.406 -0.3255  0.5414  0.4880
   53CHL1   C19 3888   5.812   5.528   7.432  0.2932  0.2568  0.2738
   53CHL1  H19A 3889   5.842   5.455   7.353 -1.2695 -0.1350 -0.0098
   53CHL1  H19B 3890   5.875   5.506   7.521 -2.1330 -1.3866  1.7110
   53CHL1  H19C 3891   5.713   5.483   7.455 -0.0575  0.5629 -0.5857
   53CHL1    C1 3892   5.663   5.688   7.313  0.0185 -0.1575  0.1002
   53CHL1   H1A 3893   5.574   5.630   7.347 -0.9799  1.1024 -0.3131
   53CHL1   H1B 3894   5.632   5.794   7.325  1.9127  0.5439 -0.8216
   53CHL1    C2 3895   5.695   5.654   7.165 -0.9045  0.1657  0.1042
   53CHL1   H2A 3896   5.610   5.675   7.097  0.0901  0.1266 -1.1860
   53CHL1   H2B 3897   5.711   5.545   7.146 -3.0887 -0.2918  0.6050
   53CHL1   C20 3898   5.672   5.774   8.083 -0.2437  0.3539  0.1271
   53CHL1   H20 3899   5.738   5.693   8.120 -3.9893 -2.5760  1.0876
   53CHL1   C21 3900   5.534   5.692   8.064  0.4172  0.0924  0.4983
   53CHL1  H21A 3901   5.542   5.603   7.998 -0.9230  0.2181  0.1332
   53CHL1  H21B 3902   5.461   5.761   8.017  3.1047  1.1029 -2.6412
   53CHL1  H21C 3903   5.509   5.662   8.168 -0.3347  0.9236  0.5656
   53CHL1   C22 3904   5.656   5.870   8.205  0.3060  0.4679 -0.2504
   53CHL1  H22A 3905   5.620   5.811   8.292  2.3338 -3.4994 -1.8341
   53CHL1  H22B 3906   5.758   5.901   8.238  0.1147  0.5113  0.3034
   53CHL1   C23 3907   5.576   5.996   8.177  0.0018 -0.1502  0.2745
   53CHL1  H23A 3908   5.628   6.058   8.101  0.7831 -0.6182  0.4164
   53CHL1  H23B 3909   5.471   5.989   8.141  0.2885  3.0154 -1.5588
   53CHL1   C24 3910   5.552   6.085   8.303 -0.5718  0.6761 -0.0981
   53CHL1  H24A 3911   5.486   6.035   8.378  1.6915 -0.7264  1.0499
   53CHL1  H24B 3912   5.651   6.106   8.347 -0.4022 -1.7050  0.7763
   53CHL1   C25 3913   5.493   6.217   8.269  0.0354 -0.3220  0.7054
   53CHL1   H25 3914   5.406   6.206   8.200  0.2117  0.9051  0.2464
   53CHL1   C26 3915   5.442   6.294   8.391  0.5074  0.4114 -0.4176
   53CHL1  H26A 3916   5.533   6.309   8.454 -1.6124  3.0374  2.3082
   53CHL1  H26B 3917   5.408   6.397   8.370 -0.1086 -0.0071 -1.5521
   53CHL1  H26C 3918   5.367   6.240   8.453 -0.6648  0.7977 -1.4665
   53CHL1   C27 3919   5.593   6.304   8.199  0.6032  0.5061  0.1610
   53CHL1  H27A 3920   5.585   6.295   8.088  0.6521 -1.3999  0.2846
   53CHL1  H27B 3921   5.572   6.413   8.203  0.2259  0.4896 -1.0491
   53CHL1  H27C 3922   5.694   6.278   8.239 -0.0464 -1.2059  0.7646
   54CHL1    C3 3923   1.672   0.505   6.730 -0.1016  0.3996  0.3177
   54CHL1    H3 3924   1.590   0.439   6.764 -0.4672  1.0656  0.7524
   54CHL1    O3 3925   1.696   0.487   6.588 -0.2610 -0.3728 -0.6742
   54CHL1   H3' 3926   1.708   0.393   6.571 -0.8726 -0.7168  0.6379
   54CHL1    C4 3927   1.630   0.650   6.762 -0.0037 -0.8253  0.1992
   54CHL1   H4A 3928   1.708   0.721   6.728 -1.1284  1.7564  2.6361
   54CHL1   H4B 3929   1.538   0.668   6.703 -0.5480 -0.1470  1.2314
   54CHL1    C5 3930   1.622   0.659   6.918 -0.2731 -0.6812  0.1484
   54CHL1    C6 3931   1.506   0.695   6.970  0.1788  0.0883 -0.3965
   54CHL1    H6 3932   1.427   0.721   6.898  1.0247  0.4346 -1.2133
   54CHL1    C7 3933   1.494   0.725   7.117 -1.0544  0.6355 -0.3913
   54CHL1   H7A 3934   1.428   0.808   7.149 -3.8112 -1.5729  0.0056
   54CHL1   H7B 3935   1.443   0.641   7.168 -1.9484  1.5388  0.2432
   54CHL1    C8 3936   1.632   0.738   7.189  0.0372  0.0540  0.0391
   54CHL1    H8 3937   1.687   0.823   7.143 -0.0598 -1.3692 -3.0012
   54CHL1   C14 3938   1.616   0.734   7.337 -0.3213 -0.1045  0.3569
   54CHL1   H14 3939   1.582   0.637   7.377  0.6808 -0.6061  0.0307
   54CHL1   C15 3940   1.510   0.830   7.391  0.5493  0.2294 -0.0476
   54CHL1  H15A 3941   1.541   0.930   7.355  2.4645 -0.7468 -1.2640
   54CHL1  H15B 3942   1.404   0.804   7.369  0.5327 -0.1244  0.4337
   54CHL1   C16 3943   1.533   0.823   7.546 -0.3483 -0.4890 -0.6291
   54CHL1  H16A 3944   1.525   0.931   7.573  0.2077 -0.4545 -0.5916
   54CHL1  H16B 3945   1.458   0.760   7.598 -2.4975 -0.0047 -2.9281
   54CHL1   C17 3946   1.669   0.760   7.566 -1.2135 -0.4023 -0.4248
   54CHL1   H17 3947   1.658   0.653   7.596  0.6483 -0.2060  1.1952
   54CHL1   C13 3948   1.740   0.760   7.430  0.4333 -0.1446 -0.3373
   54CHL1   C18 3949   1.809   0.895   7.408  0.1787  0.3177 -0.2742
   54CHL1  H18A 3950   1.908   0.893   7.459 -0.0022  0.9216  0.1080
   54CHL1  H18B 3951   1.835   0.903   7.301 -0.9243 -0.9355 -0.6604
   54CHL1  H18C 3952   1.747   0.983   7.436 -1.5006  0.1066 -3.0355
   54CHL1   C12 3953   1.836   0.642   7.393 -0.4431 -0.3885 -0.0901
   54CHL1  H12A 3954   1.929   0.665   7.449 -0.0309  1.8660 -1.5590
   54CHL1  H12B 3955   1.792   0.546   7.427 -1.4653 -0.9150 -2.6550
   54CHL1   C11 3956   1.855   0.636   7.240 -0.0299  0.2098 -0.7678
   54CHL1  H11A 3957   1.930   0.717   7.222  2.2948 -1.5957  0.2780
   54CHL1  H11B 3958   1.915   0.546   7.217 -1.3098 -0.4716 -1.5028
   54CHL1    C9 3959   1.726   0.625   7.145  0.2615  0.4551  0.1627
   54CHL1    H9 3960   1.675   0.531   7.177  1.1185 -0.4650 -1.0829
   54CHL1   C10 3961   1.751   0.619   6.995  0.0083 -0.0973  0.6404
   54CHL1   C19 3962   1.861   0.718   6.959  0.5820 -0.0327  0.2233
   54CHL1  H19A 3963   1.882   0.711   6.850 -1.1418 -1.3347 -0.0667
   54CHL1  H19B 3964   1.829   0.821   6.983  1.4943  0.4821 -0.6941
   54CHL1  H19C 3965   1.959   0.696   7.006 -0.1072  0.2224  1.8512
   54CHL1    C1 3966   1.786   0.476   6.951  0.3847 -0.9048  0.2008
   54CHL1   H1A 3967   1.868   0.420   7.001  0.9700  0.1804  0.4877
   54CHL1   H1B 3968   1.696   0.420   6.986  0.6786 -2.6990 -1.6962
   54CHL1    C2 3969   1.794   0.451   6.800  0.5783 -0.0468 -0.1894
   54CHL1   H2A 3970   1.811   0.341   6.789  2.0514 -0.0179  1.4248
   54CHL1   H2B 3971   1.882   0.508   6.763  1.6593  0.3273  2.7119
   54CHL1   C20 3972   1.746   0.825   7.685  0.8182 -0.2454  0.4102
   54CHL1   H20 3973   1.761   0.929   7.650 -1.6734  0.4103  1.1148
   54CHL1   C21 3974   1.880   0.742   7.712 -0.4385  0.5981  0.2572
   54CHL1  H21A 3975   1.867   0.639   7.673  0.6021  0.0972  1.1619
   54CHL1  H21B 3976   1.872   0.718   7.820  0.7946 -0.5363  0.1181
   54CHL1  H21C 3977   1.976   0.793   7.689 -0.6206  1.2615  0.9288
   54CHL1   C22 3978   1.663   0.830   7.815 -0.6600 -0.5460  0.9091
   54CHL1  H22A 3979   1.556   0.856   7.797  0.0501  1.2406 -1.1537
   54CHL1  H22B 3980   1.652   0.726   7.853 -0.0749 -0.7262  0.5985
   54CHL1   C23 3981   1.726   0.914   7.930 -0.1004 -1.0243 -0.0576
   54CHL1  H23A 3982   1.836   0.906   7.933 -0.0145  0.2324  0.4975
   54CHL1  H23B 3983   1.704   1.022   7.916 -0.8078 -0.8347  2.1355
   54CHL1   C24 3984   1.665   0.877   8.066 -0.3847 -0.4353 -0.0005
   54CHL1  H24A 3985   1.555   0.885   8.063 -0.3557 -0.1763 -0.4275
   54CHL1  H24B 3986   1.692   0.775   8.102 -1.8919 -0.0236  2.5596
   54CHL1   C25 3987   1.713   0.966   8.180 -0.8739  0.6482 -0.4265
   54CHL1   H25 3988   1.668   1.067   8.188 -1.4301  0.2887  1.2948
   54CHL1   C26 3989   1.674   0.899   8.315  0.4267  0.7589 -0.3684
   54CHL1  H26A 3990   1.736   0.951   8.391  0.8570 -0.0943 -0.1213
   54CHL1  H26B 3991   1.564   0.906   8.329  0.1563 -0.7314 -1.4621
   54CHL1  H26C 3992   1.683   0.789   8.303 -2.3116  0.2172  1.4599
   54CHL1   C27 3993   1.864   0.998   8.172 -0.0501  0.5054  0.6865
   54CHL1  H27A 3994   1.921   0.905   8.154  0.8682  0.8912  1.4974
   54CHL1  H27B 3995   1.882   1.078   8.097  0.2917  2.1226  2.4062
   54CHL1  H27C 3996   1.900   1.039   8.269  0.6381 -0.5316  0.8804
   55CHL1    C3 3997   2.113   6.504   7.227 -0.2471  0.2804 -0.2157
   55CHL1    H3 3998   2.085   6.612   7.223  1.1480  0.6283 -1.3313
   55CHL1    O3 3999   2.120   6.470   7.090 -0.2628  0.0590  0.0580
   55CHL1   H3' 4000   2.141   6.377   7.087  1.2124  0.3680 -0.0512
   55CHL1    C4 4001   2.251   6.486   7.287  0.3562 -0.4592 -0.1325
   55CHL1   H4A 4002   2.285   6.380   7.278 -0.4069 -0.6914 -0.4211
   55CHL1   H4B 4003   2.322   6.543   7.224 -0.1927 -0.9322 -1.2101
   55CHL1    C5 4004   2.257   6.532   7.433 -0.0996  0.0865  0.4547
   55CHL1    C6 4005   2.342   6.627   7.483  0.3786 -0.4067 -0.2713
   55CHL1    H6 4006   2.407   6.686   7.418 -0.4512  2.5126  1.3847
   55CHL1    C7 4007   2.347   6.665   7.630  0.4001 -0.0801 -0.9218
   55CHL1   H7A 4008   2.452   6.676   7.664  0.0336  0.1530  0.1981
   55CHL1   H7B 4009   2.302   6.765   7.649  1.4757  0.4802 -1.2972
   55CHL1    C8 4010   2.274   6.561   7.723 -0.0163  0.7071  0.8221
   55CHL1    H8 4011   2.342   6.480   7.758 -1.3330  0.0825  2.0198
   55CHL1   C14 4012   2.245   6.623   7.858 -0.0738 -0.4606  0.0802
   55CHL1   H14 4013   2.163   6.694   7.833 -0.1433 -0.9967 -1.3361
   55CHL1   C15 4014   2.347   6.706   7.938  0.0663  0.6291  0.5607
   55CHL1  H15A 4015   2.448   6.660   7.934 -0.4736 -0.5355 -2.8475
   55CHL1  H15B 4016   2.376   6.804   7.896  0.9294 -0.3563 -1.2925
   55CHL1   C16 4017   2.292   6.706   8.077  0.0687 -0.0551  0.0183
   55CHL1  H16A 4018   2.360   6.671   8.158 -1.4494 -0.4038  1.1961
   55CHL1  H16B 4019   2.278   6.813   8.103 -2.1728  0.2064 -1.9129
   55CHL1   C17 4020   2.155   6.624   8.081  0.4121 -0.5664 -0.7003
   55CHL1   H17 4021   2.088   6.704   8.044  2.8579  0.9361 -2.1166
   55CHL1   C13 4022   2.180   6.530   7.964 -0.1299 -0.1599  0.7130
   55CHL1   C18 4023   2.276   6.421   8.005  0.1055 -0.1113  0.7917
   55CHL1  H18A 4024   2.374   6.455   8.044  0.9088  1.8715 -2.4891
   55CHL1  H18B 4025   2.226   6.354   8.078 -0.5607  0.7265  1.1251
   55CHL1  H18C 4026   2.313   6.357   7.922  1.1273 -0.0988  1.2285
   55CHL1   C12 4027   2.047   6.470   7.904  0.6647 -0.3884  0.1943
   55CHL1  H12A 4028   2.008   6.384   7.962 -2.9611 -0.0420 -1.4430
   55CHL1  H12B 4029   1.965   6.545   7.908  0.1635 -0.7915 -1.4080
   55CHL1   C11 4030   2.051   6.430   7.756  0.0830  0.1025 -0.6072
   55CHL1  H11A 4031   2.090   6.328   7.774  0.8365  0.5091  0.1235
   55CHL1  H11B 4032   1.950   6.430   7.708  0.5006 -0.6975 -1.5191
   55CHL1    C9 4033   2.141   6.513   7.660  0.2582 -0.2612  0.1726
   55CHL1    H9 4034   2.086   6.609   7.647 -0.6295 -0.9677 -1.7239
   55CHL1   C10 4035   2.157   6.452   7.515  0.2151 -0.4550  0.3814
   55CHL1   C19 4036   2.217   6.314   7.542  0.3793 -0.7256 -0.1119
   55CHL1  H19A 4037   2.256   6.273   7.446 -0.2057  0.7630 -1.0162
   55CHL1  H19B 4038   2.298   6.314   7.618  1.0025  2.2388 -0.6527
   55CHL1  H19C 4039   2.142   6.237   7.572 -0.3357  0.0391  0.0746
   55CHL1    C1 4040   2.018   6.443   7.451  1.1453  0.0284 -0.1332
   55CHL1   H1A 4041   1.954   6.359   7.488  0.2008 -0.0637 -1.8797
   55CHL1   H1B 4042   1.970   6.541   7.471 -0.1595 -0.4770 -0.6788
   55CHL1    C2 4043   2.004   6.423   7.296 -0.2637  0.2992  0.1645
   55CHL1   H2A 4044   1.904   6.461   7.266  0.3115  1.8451  0.1263
   55CHL1   H2B 4045   2.020   6.315   7.277  0.6948  0.3936  0.3966
   55CHL1   C20 4046   2.115   6.571   8.222  1.0234 -0.5971  0.4044
   55CHL1   H20 4047   2.197   6.504   8.258  1.2384 -0.2855  0.4924
   55CHL1   C21 4048   1.992   6.482   8.223 -0.0628  0.2485  0.7811
   55CHL1  H21A 4049   2.010   6.382   8.178  2.8046  1.1850 -0.3471
   55CHL1  H21B 4050   1.909   6.530   8.166 -0.8699  0.1316  1.8262
   55CHL1  H21C 4051   1.955   6.454   8.324 -3.7235  1.9992  0.1035
   55CHL1   C22 4052   2.089   6.690   8.323 -0.2731  0.6741  0.0808
   55CHL1  H22A 4053   2.172   6.762   8.307  0.6061 -0.4657 -0.6232
   55CHL1  H22B 4054   1.987   6.724   8.295 -1.2352 -1.2701  1.0541
   55CHL1   C23 4055   2.069   6.651   8.472 -0.3739 -0.2047  0.4556
   55CHL1  H23A 4056   2.029   6.738   8.528  0.6851  0.0177  0.8854
   55CHL1  H23B 4057   1.997   6.567   8.479 -1.0120  0.3573  0.7815
   55CHL1   C24 4058   2.204   6.616   8.529  0.8102 -0.1246 -0.0644
   55CHL1  H24A 4059   2.241   6.522   8.482  2.4441 -0.4161  1.6628
   55CHL1  H24B 4060   2.270   6.702   8.504  4.2757 -2.2745  1.0087
   55CHL1   C25 4061   2.190   6.586   8.681 -0.8627  0.1220 -0.5376
   55CHL1   H25 4062   2.115   6.654   8.726 -1.3200  0.2315 -1.4241
   55CHL1   C26 4063   2.131   6.448   8.698  0.5052  0.2859 -0.7250
   55CHL1  H26A 4064   2.127   6.421   8.806 -0.7428 -2.5726 -1.4082
   55CHL1  H26B 4065   2.027   6.448   8.658  0.6855  1.9187 -1.2577
   55CHL1  H26C 4066   2.194   6.372   8.648  0.9819  1.3209 -1.7252
   55CHL1   C27 4067   2.324   6.608   8.756  0.6233 -0.0550  0.3541
   55CHL1  H27A 4068   2.397   6.539   8.709  0.1632 -1.0759  1.1031
   55CHL1  H27B 4069   2.357   6.714   8.748  1.0480 -0.0941  1.4836
   55CHL1  H27C 4070   2.310   6.570   8.859 -1.4051  0.5590  0.3631
   56CHL1    C3 4071   0.625   2.176   6.839 -0.3981 -0.1411 -1.2241
   56CHL1    H3 4072   0.632   2.069   6.867 -2.0343  0.2649  1.0142
   56CHL1    O3 4073   0.650   2.193   6.699 -0.4491  0.0961 -0.3326
   56CHL1   H3' 4074   0.583   2.136   6.660  0.2745 -0.2199 -1.1228
   56CHL1    C4 4075   0.480   2.218   6.874 -0.6970 -0.4998 -0.5437
   56CHL1   H4A 4076   0.466   2.325   6.847  2.6679  0.2075  0.0723
   56CHL1   H4B 4077   0.403   2.149   6.834 -1.8046 -0.7494  1.8505
   56CHL1    C5 4078   0.460   2.209   7.025 -0.0398  0.2418  0.3795
   56CHL1    C6 4079   0.370   2.127   7.080  0.3551  0.0012  0.5501
   56CHL1    H6 4080   0.301   2.068   7.018  1.8473 -1.0760 -0.1512
   56CHL1    C7 4081   0.339   2.117   7.226 -0.0712 -0.3082  0.2057
   56CHL1   H7A 4082   0.229   2.120   7.242 -0.5313  1.2978 -2.6477
   56CHL1   H7B 4083   0.374   2.021   7.269 -1.8898 -1.3639 -0.5511
   56CHL1    C8 4084   0.405   2.241   7.315  0.5817 -0.1957 -0.1511
   56CHL1    H8 4085   0.347   2.332   7.290 -2.2110 -1.2325  2.0070
   56CHL1   C14 4086   0.399   2.213   7.461 -1.6144 -0.3177  1.0587
   56CHL1   H14 4087   0.468   2.126   7.460  0.5559  1.3083  0.5626
   56CHL1   C15 4088   0.264   2.161   7.519  0.4228  0.3462  0.0682
   56CHL1  H15A 4089   0.186   2.219   7.464 -0.5236 -1.6074 -0.7486
   56CHL1  H15B 4090   0.253   2.052   7.500 -0.4428  0.8344 -2.7094
   56CHL1   C16 4091   0.274   2.195   7.668 -0.0776 -0.0775  0.0854
   56CHL1  H16A 4092   0.213   2.283   7.697  1.1915  1.1042 -0.7279
   56CHL1  H16B 4093   0.249   2.106   7.730 -3.0906  0.6605  0.0953
   56CHL1   C17 4094   0.420   2.249   7.690  0.2078 -0.3171  0.0827
   56CHL1   H17 4095   0.488   2.163   7.706  2.0475  0.8784 -0.9891
   56CHL1   C13 4096   0.460   2.315   7.549  0.8423  0.1629 -0.9997
   56CHL1   C18 4097   0.383   2.443   7.543  0.2689 -0.0815 -0.6670
   56CHL1  H18A 4098   0.443   2.530   7.576 -1.4413  1.2815 -1.0604
   56CHL1  H18B 4099   0.358   2.467   7.437  1.4454 -4.0152 -2.0294
   56CHL1  H18C 4100   0.289   2.441   7.601  0.4415 -0.7766 -0.4017
   56CHL1   C12 4101   0.609   2.325   7.509 -0.3683  0.3709 -0.8301
   56CHL1  H12A 4102   0.645   2.414   7.565 -0.0723  0.3548 -0.9881
   56CHL1  H12B 4103   0.663   2.231   7.534 -1.5149 -0.2599 -0.6803
   56CHL1   C11 4104   0.619   2.366   7.359 -0.1787 -0.0075 -0.2625
   56CHL1  H11A 4105   0.572   2.466   7.360 -1.7339 -0.6971  1.9485
   56CHL1  H11B 4106   0.727   2.375   7.335  0.4037 -3.1407  0.6338
   56CHL1    C9 4107   0.546   2.266   7.265 -0.1430  0.0732 -0.3426
   56CHL1    H9 4108   0.598   2.171   7.288  0.2717  0.7133  1.5161
   56CHL1   C10 4109   0.548   2.289   7.110 -0.0986 -0.2973 -0.9643
   56CHL1   C19 4110   0.532   2.440   7.096 -0.2766 -0.7078 -0.2085
   56CHL1  H19A 4111   0.429   2.468   7.127  0.0508 -0.7353  0.9472
   56CHL1  H19B 4112   0.599   2.505   7.156 -1.5153  0.4831 -0.0485
   56CHL1  H19C 4113   0.545   2.474   6.991 -0.7356  0.1463 -0.0032
   56CHL1    C1 4114   0.697   2.245   7.072 -0.2587 -0.1703 -0.3716
   56CHL1   H1A 4115   0.772   2.305   7.127 -0.1659  0.1739 -0.8615
   56CHL1   H1B 4116   0.717   2.137   7.085 -1.7607 -0.3276  0.8267
   56CHL1    C2 4117   0.721   2.270   6.922 -0.2615  0.1921  0.3048
   56CHL1   H2A 4118   0.822   2.242   6.886  0.0610 -0.5611  1.7330
   56CHL1   H2B 4119   0.703   2.372   6.880  1.8657 -0.4006 -2.3402
   56CHL1   C20 4120   0.438   2.317   7.823  0.3285 -0.0332 -0.9706
   56CHL1   H20 4121   0.371   2.405   7.822  0.9306  0.4547  0.2279
   56CHL1   C21 4122   0.585   2.363   7.840 -0.5158  0.0711  0.0385
   56CHL1  H21A 4123   0.580   2.402   7.944  1.0542  0.4947 -0.0139
   56CHL1  H21B 4124   0.616   2.443   7.769  1.6979 -0.4304  0.3529
   56CHL1  H21C 4125   0.648   2.271   7.834  0.2772  0.5834  0.3034
   56CHL1   C22 4126   0.394   2.240   7.951 -0.1073 -0.3361 -0.6507
   56CHL1  H22A 4127   0.305   2.175   7.939 -0.8708  0.4899  0.4016
   56CHL1  H22B 4128   0.477   2.170   7.974  0.3998  0.5919  0.4415
   56CHL1   C23 4129   0.370   2.327   8.077  0.0489 -0.0350  0.3210
   56CHL1  H23A 4130   0.441   2.412   8.090 -1.2489  1.5132 -2.0083
   56CHL1  H23B 4131   0.278   2.384   8.054  0.5025 -0.1187 -1.9433
   56CHL1   C24 4132   0.352   2.242   8.203  0.0342  0.1842  0.0628
   56CHL1  H24A 4133   0.317   2.309   8.285 -1.6236  2.8424 -2.5748
   56CHL1  H24B 4134   0.275   2.167   8.173  0.8864 -0.1693 -1.3442
   56CHL1   C25 4135   0.479   2.174   8.258 -0.7025 -0.7458 -0.1499
   56CHL1   H25 4136   0.511   2.096   8.185 -0.4016 -0.6924 -0.0741
   56CHL1   C26 4137   0.593   2.282   8.295 -0.5574 -0.2865 -0.0968
   56CHL1  H26A 4138   0.678   2.241   8.353  1.1513  1.2582 -1.4288
   56CHL1  H26B 4139   0.554   2.359   8.366  0.7109  0.0882  0.2246
   56CHL1  H26C 4140   0.632   2.337   8.207 -0.1514  1.4105  1.0715
   56CHL1   C27 4141   0.427   2.100   8.386 -0.2317  0.5435 -0.5351
   56CHL1  H27A 4142   0.406   2.176   8.464 -1.3735 -0.0792 -0.2065
   56CHL1  H27B 4143   0.338   2.041   8.354  1.9661 -2.6098 -1.3378
   56CHL1  H27C 4144   0.512   2.038   8.423 -0.6554  0.2249 -0.0817
   57SAPC     N 4145   6.219   4.539  10.939 -0.1695 -0.0330 -0.1701
   57SAPC   C12 4146   6.265   4.395  10.912 -0.0467 -0.0420  0.6253
   57SAPC  H12A 4147   6.179   4.333  10.891  0.7120 -0.6265 -0.8639
   57SAPC  H12B 4148   6.292   4.343  11.003 -1.6815 -1.2465  0.4625
   57SAPC   C13 4149   6.117   4.540  11.052  0.1586 -0.6142 -0.0568
   57SAPC  H13A 4150   6.017   4.515  11.018  0.1491 -0.3293 -0.2416
   57SAPC  H13B 4151   6.148   4.475  11.133  0.7263 -0.2806 -0.0018
   57SAPC  H13C 4152   6.100   4.644  11.075  3.0753  0.1639 -1.0321
   57SAPC   C14 4153   6.334   4.625  10.990  0.0255 -0.0349 -0.2693
   57SAPC  H14A 4154   6.356   4.587  11.089  0.7555 -0.2174 -0.4923
   57SAPC  H14B 4155   6.420   4.613  10.926  1.0892  0.5184  1.0106
   57SAPC  H14C 4156   6.295   4.725  10.992  1.7723  0.6728  1.0606
   57SAPC   C15 4157   6.170   4.590  10.816 -0.4910  0.7402  0.0328
   57SAPC  H15A 4158   6.240   4.581  10.735  1.7750  1.7544  1.7739
   57SAPC  H15B 4159   6.076   4.544  10.789 -0.4491  1.9595 -2.4931
   57SAPC  H15C 4160   6.149   4.696  10.821 -0.2193  0.8114 -0.3097
   57SAPC   C11 4161   6.374   4.367  10.808  0.3103  0.4372 -0.4578
   57SAPC  H11A 4162   6.331   4.389  10.708 -1.1446  0.1241  0.0703
   57SAPC  H11B 4163   6.382   4.256  10.798  1.4257  0.6185 -1.7294
   57SAPC     P 4164   6.603   4.467  10.728 -0.2229  0.0180 -0.1348
   57SAPC   O13 4165   6.614   4.611  10.707  0.2371 -0.6950 -0.1114
   57SAPC   O14 4166   6.732   4.392  10.749 -0.3554 -0.4124 -0.3042
   57SAPC   O12 4167   6.494   4.429  10.836  0.2329 -0.7042 -0.3343
   57SAPC   O11 4168   6.539   4.414  10.593 -0.0851  0.1294  0.5058
   57SAPC    C1 4169   6.583   4.285  10.551  0.5790  0.2065  0.1483
   57SAPC    HA 4170   6.694   4.291  10.545  0.6345 -0.2323  0.6423
   57SAPC    HB 4171   6.552   4.202  10.618 -0.9305 -1.1491 -2.0965
   57SAPC    C2 4172   6.522   4.251  10.410  0.6623  0.1847  0.4469
   57SAPC    HS 4173   6.603   4.199  10.355 -1.1013  0.0865 -2.2579
   57SAPC   O21 4174   6.462   4.366  10.347 -0.1541  0.5616  0.2786
   57SAPC   C21 4175   6.554   4.440  10.287  0.2612 -0.1689  0.4003
   57SAPC   O22 4176   6.675   4.420  10.276  0.7580  0.0752  0.0500
   57SAPC   C22 4177   6.479   4.551  10.204 -0.3838  0.8341  0.1368
   57SAPC   H2R 4178   6.396   4.587  10.268  0.2117 -0.0032  1.4229
   57SAPC   H2S 4179   6.547   4.636  10.184  0.4842 -0.0999 -1.1187
   57SAPC    C3 4180   6.407   4.144  10.434  0.0244 -0.1489 -0.3880
   57SAPC    HX 4181   6.329   4.187  10.501  1.0389 -0.4183  1.0094
   57SAPC    HY 4182   6.441   4.060  10.497  0.9895  2.3226  2.6214
   57SAPC   O31 4183   6.341   4.092  10.313  0.0747 -0.1596 -0.7583
   57SAPC   C31 4184   6.246   4.161  10.263  0.3786 -0.2308  0.3348
   57SAPC   O32 4185   6.197   4.265  10.312 -0.7011  0.7504  0.2016
   57SAPC   C32 4186   6.189   4.085  10.138 -0.2917  0.6034  0.9492
   57SAPC   H2X 4187   6.088   4.044  10.159  0.0947  1.0674  4.3671
   57SAPC   H2Y 4188   6.262   4.002  10.123  0.7718  1.3362  1.9417
   57SAPC   C23 4189   6.418   4.482  10.078  0.1923  0.4864 -0.5482
   57SAPC   H3R 4190   6.309   4.470  10.092  0.3496  0.9781  1.3297
   57SAPC   H3S 4191   6.449   4.378  10.053 -1.6490 -0.5425  1.1268
   57SAPC   C24 4192   6.449   4.575   9.959  0.1043 -0.6189 -0.2958
   57SAPC   H4R 4193   6.429   4.680   9.990  0.0636 -0.5995 -0.3879
   57SAPC   H4S 4194   6.374   4.540   9.885  0.2671 -1.6754  0.0236
   57SAPC   C25 4195   6.589   4.553   9.912 -0.2092 -0.8028  0.1295
   57SAPC   H5R 4196   6.661   4.543   9.994 -1.7721  0.2639  1.6999
   57SAPC   C26 4197   6.633   4.547   9.784 -1.0707 -0.2312  0.5080
   57SAPC   H6R 4198   6.740   4.529   9.766 -0.3280  2.8551  1.3810
   57SAPC   C27 4199   6.549   4.544   9.659 -0.4413 -0.2360 -0.1119
   57SAPC   H7R 4200   6.447   4.511   9.687 -0.9317  2.2449  1.3144
   57SAPC   H7S 4201   6.598   4.466   9.597 -1.5430 -0.7675 -0.3300
   57SAPC   C28 4202   6.543   4.677   9.593  0.3210 -0.0085  0.1323
   57SAPC   H8R 4203   6.528   4.757   9.667 -1.2946 -1.8996  2.0068
   57SAPC   C29 4204   6.540   4.714   9.466  0.4743  0.0414 -0.0511
   57SAPC   H9R 4205   6.516   4.817   9.436 -2.0363 -0.3563  0.3437
   57SAPC  C210 4206   6.550   4.614   9.351 -0.0727 -0.1599  0.0952
   57SAPC  H10R 4207   6.446   4.593   9.317  0.1820  0.2248 -0.9636
   57SAPC  H10S 4208   6.586   4.515   9.387  0.4722 -0.5865 -1.5205
   57SAPC  C211 4209   6.628   4.688   9.238 -0.1304 -0.0382 -0.0869
   57SAPC  H11R 4210   6.737   4.674   9.247  0.1415  1.3624 -0.9805
   57SAPC  C212 4211   6.577   4.782   9.160 -0.1039 -0.6402 -0.5983
   57SAPC  H12R 4212   6.653   4.828   9.096  1.4130 -3.0429 -0.6459
   57SAPC  C213 4213   6.443   4.843   9.155  0.4244 -0.1835  0.2047
   57SAPC  H13R 4214   6.452   4.940   9.209  1.8048  0.9531 -1.8934
   57SAPC  H13S 4215   6.369   4.787   9.216  0.7839 -0.3716  0.4748
   57SAPC  C214 4216   6.384   4.873   9.020 -1.0337  0.4398 -0.4633
   57SAPC  H14R 4217   6.466   4.895   8.950 -0.6006 -1.9644 -0.8330
   57SAPC  C215 4218   6.259   4.867   8.980 -0.1537  0.4534  0.5983
   57SAPC  H15R 4219   6.243   4.899   8.876  1.2135  0.7349  0.4534
   57SAPC  C216 4220   6.131   4.840   9.055  0.4007 -0.3175  0.0412
   57SAPC  H16R 4221   6.128   4.909   9.142  0.5140  0.9219 -0.9160
   57SAPC  H16S 4222   6.124   4.744   9.111 -0.8460 -0.8513 -0.9843
   57SAPC  C217 4223   5.999   4.871   8.976  0.6972 -0.2487  0.3999
   57SAPC  H17R 4224   5.991   4.810   8.884 -1.1376 -1.0851  1.0691
   57SAPC  H17S 4225   5.988   4.976   8.944  1.4635 -0.4170 -0.4515
   57SAPC  C218 4226   5.870   4.833   9.046  0.2030  0.5326 -0.4304
   57SAPC  H18R 4227   5.879   4.728   9.081 -0.8233 -0.4212 -2.7980
   57SAPC  H18S 4228   5.788   4.835   8.972 -0.1228 -0.6668 -0.1247
   57SAPC  C219 4229   5.836   4.914   9.180 -0.7312  0.3375  0.3711
   57SAPC  H19R 4230   5.926   4.896   9.242 -1.0712 -1.2552  0.4612
   57SAPC  H19S 4231   5.749   4.854   9.213 -1.1172 -0.0703 -1.2652
   57SAPC  C220 4232   5.813   5.059   9.162 -0.5851 -0.2494 -0.4083
   57SAPC  H20R 4233   5.902   5.125   9.158 -2.1505  2.0075 -0.3071
   57SAPC  H20S 4234   5.764   5.108   9.249  1.9329 -0.3081  1.1455
   57SAPC  H20T 4235   5.741   5.073   9.079  0.1954 -0.1049 -1.0748
   57SAPC   C33 4236   6.178   4.173  10.006 -0.2209 -0.6731  1.0950
   57SAPC   H3X 4237   6.281   4.207   9.984 -1.5696  2.3941 -1.0755
   57SAPC   H3Y 4238   6.127   4.269  10.029 -1.2462 -1.0663  0.5495
   57SAPC   C34 4239   6.124   4.102   9.886 -0.0245  0.0391 -0.1094
   57SAPC   H4X 4240   6.016   4.123   9.871 -0.0736  0.7148  1.0573
   57SAPC   H4Y 4241   6.141   3.993   9.900 -0.6982  0.0835  1.2116
   57SAPC   C35 4242   6.174   4.161   9.757 -0.4762  0.0709  0.9777
   57SAPC   H5X 4243   6.283   4.173   9.775 -0.1618 -2.3160  0.9935
   57SAPC   H5Y 4244   6.134   4.262   9.735  1.3307  0.4244 -1.0444
   57SAPC   C36 4245   6.146   4.064   9.643 -0.5603 -0.2162 -0.5470
   57SAPC   H6X 4246   6.211   3.975   9.658  0.8378  0.8747  0.1767
   57SAPC   H6Y 4247   6.175   4.111   9.546  1.5465 -1.0651 -0.3837
   57SAPC   C37 4248   5.996   4.021   9.622 -0.9870 -0.0908  0.0946
   57SAPC   H7X 4249   5.917   4.097   9.641 -0.4634  1.3247 -2.7834
   57SAPC   H7Y 4250   5.969   3.937   9.689 -3.4560 -0.1702 -0.8639
   57SAPC   C38 4251   5.959   3.990   9.472  0.0665 -0.0067  0.0221
   57SAPC   H8X 4252   5.957   4.084   9.413 -0.5691  0.6040  0.9879
   57SAPC   H8Y 4253   5.857   3.948   9.481  0.0080  0.1491  0.0883
   57SAPC   C39 4254   6.067   3.895   9.398  0.1463  0.0382 -0.1189
   57SAPC   H9X 4255   6.122   3.842   9.478 -0.7605  1.0266  1.2127
   57SAPC   H9Y 4256   6.150   3.954   9.352  2.8310 -2.2428  1.5166
   57SAPC  C310 4257   6.002   3.793   9.308  0.0896  0.1459  0.2840
   57SAPC  H10X 4258   5.955   3.833   9.215  1.2073 -2.3728 -1.4652
   57SAPC  H10Y 4259   5.914   3.751   9.361  1.4786 -0.6261  2.0867
   57SAPC  C311 4260   6.088   3.673   9.273 -0.3169 -0.6920  0.4230
   57SAPC  H11X 4261   6.101   3.613   9.366  0.7875 -1.4710 -0.2046
   57SAPC  H11Y 4262   6.191   3.695   9.236  0.7520 -1.2827  2.8195
   57SAPC  C312 4263   6.024   3.581   9.172  0.0167  0.3207 -0.1889
   57SAPC  H12X 4264   5.917   3.560   9.195  0.4076 -2.2208 -0.4825
   57SAPC  H12Y 4265   6.079   3.485   9.180 -0.0836  0.3608  1.5012
   57SAPC  C313 4266   6.046   3.629   9.027 -0.2167  0.0013 -0.0153
   57SAPC  H13X 4267   6.154   3.642   9.009 -0.1349 -2.1748 -1.5417
   57SAPC  H13Y 4268   5.985   3.719   9.002 -0.2196 -0.5196 -2.1019
   57SAPC  C314 4269   6.025   3.525   8.921 -0.9009 -0.4418  0.1406
   57SAPC  H14X 4270   5.917   3.498   8.924 -0.1944 -3.4962  0.9581
   57SAPC  H14Y 4271   6.098   3.443   8.938  0.2749  0.1917 -1.5222
   57SAPC  C315 4272   6.060   3.563   8.778 -0.0143  0.3528  0.5436
   57SAPC  H15X 4273   6.156   3.618   8.792  0.2247 -0.3170  1.6054
   57SAPC  H15Y 4274   5.990   3.633   8.727 -0.6439  1.0309  2.2658
   57SAPC  C316 4275   6.088   3.449   8.681  0.3809  0.3426 -0.6240
   57SAPC  H16X 4276   5.990   3.406   8.649 -0.5418  2.2734 -0.5130
   57SAPC  H16Y 4277   6.136   3.365   8.735 -1.8980  0.7693  2.3389
   57SAPC  C317 4278   6.156   3.499   8.550  0.9123  0.1085  0.0702
   57SAPC  H17X 4279   6.261   3.527   8.576  1.3866 -1.3909 -0.1121
   57SAPC  H17Y 4280   6.115   3.593   8.508 -0.7484 -0.1601  1.0119
   57SAPC  C318 4281   6.149   3.405   8.426 -0.1033 -0.1471 -0.0063
   57SAPC  H18X 4282   6.156   3.457   8.328  1.2731 -2.2106 -1.0994
   57SAPC  H18Y 4283   6.062   3.336   8.424 -0.2231 -0.1420  2.2603
   57SAPC  H18Z 4284   6.242   3.344   8.432  2.2695  3.2425  0.8782
   58SAPC     N 4285   3.702   6.646  11.065 -0.7797  0.6117  0.1150
   58SAPC   C12 4286   3.756   6.647  10.920  0.0086  0.1547  0.3343
   58SAPC  H12A 4287   3.864   6.657  10.924 -0.0657  1.4164 -0.4270
   58SAPC  H12B 4288   3.710   6.731  10.871 -0.9607  0.0203  0.9877
   58SAPC   C13 4289   3.779   6.536  11.142  0.3102 -0.0891  0.2388
   58SAPC  H13A 4290   3.781   6.449  11.079 -0.3486  0.7399 -0.9816
   58SAPC  H13B 4291   3.877   6.572  11.170  2.0121 -2.4381 -2.1565
   58SAPC  H13C 4292   3.727   6.505  11.232 -1.6725  0.6522 -0.5852
   58SAPC   C14 4293   3.725   6.784  11.132 -0.1615 -0.5083  0.3219
   58SAPC  H14A 4294   3.672   6.780  11.226  0.4826  2.3749  0.8962
   58SAPC  H14B 4295   3.830   6.806  11.137  0.4561 -2.4298 -1.9564
   58SAPC  H14C 4296   3.677   6.857  11.069  0.6509  0.9090  1.2787
   58SAPC   C15 4297   3.557   6.602  11.064  0.2238 -0.5556 -0.4246
   58SAPC  H15A 4298   3.544   6.523  10.991  0.1260 -0.6384 -0.3181
   58SAPC  H15B 4299   3.525   6.563  11.159  0.2992 -4.6352 -1.8633
   58SAPC  H15C 4300   3.491   6.680  11.030  1.8958  1.4589  0.7371
   58SAPC   C11 4301   3.725   6.533  10.825 -0.1427 -0.8464  0.3486
   58SAPC  H11A 4302   3.747   6.551  10.717  0.1668 -0.1740  0.5166
   58SAPC  H11B 4303   3.616   6.516  10.821 -0.3477  0.0188 -4.5389
   58SAPC     P 4304   3.937   6.376  10.830  0.0113 -0.1162  0.1138
   58SAPC   O13 4305   4.000   6.372  10.965 -0.0570 -0.0965  0.2636
   58SAPC   O14 4306   3.945   6.253  10.743  0.0955  0.2320  0.5104
   58SAPC   O12 4307   3.785   6.413  10.860 -0.4549 -0.2444  0.1727
   58SAPC   O11 4308   4.007   6.496  10.746  0.5581 -0.2738  0.1115
   58SAPC    C1 4309   3.980   6.518  10.609 -0.1030 -0.5248 -0.1770
   58SAPC    HA 4310   3.891   6.462  10.574  0.1934 -1.3582  0.3923
   58SAPC    HB 4311   3.963   6.627  10.597 -0.4296 -0.6903 -1.3928
   58SAPC    C2 4312   4.103   6.484  10.525 -0.4343 -0.3636 -0.2543
   58SAPC    HS 4313   4.196   6.523  10.573 -0.9296 -0.1232  0.5308
   58SAPC   O21 4314   4.085   6.529  10.391  0.6436  0.3146 -0.4273
   58SAPC   C21 4315   4.144   6.634  10.362 -0.2127  0.3577 -0.9662
   58SAPC   O22 4316   4.224   6.700  10.424  0.2144 -0.0480  0.3572
   58SAPC   C22 4317   4.093   6.675  10.226 -0.1850 -0.1615  0.2553
   58SAPC   H2R 4318   4.111   6.588  10.159 -0.1174  2.2313 -3.1184
   58SAPC   H2S 4319   3.984   6.697  10.231  0.0457  0.9147  0.7056
   58SAPC    C3 4320   4.114   6.324  10.513 -0.3254 -0.1871  0.0170
   58SAPC    HX 4321   4.015   6.287  10.479 -0.0863 -1.6882  0.8688
   58SAPC    HY 4322   4.125   6.277  10.613 -0.2299  0.0186  0.1043
   58SAPC   O31 4323   4.213   6.278  10.426 -0.1465 -0.0661  0.1322
   58SAPC   C31 4324   4.333   6.301  10.471  0.3933 -0.0677 -0.5044
   58SAPC   O32 4325   4.357   6.339  10.586 -0.2617 -0.3025 -0.1079
   58SAPC   C32 4326   4.442   6.265  10.373  0.0755  0.6315 -0.1172
   58SAPC   H2X 4327   4.395   6.215  10.285  2.0076  1.8058 -1.9217
   58SAPC   H2Y 4328   4.514   6.204  10.431  1.1867  0.2331 -1.8503
   58SAPC   C23 4329   4.176   6.792  10.177 -0.4879 -0.2335 -0.0485
   58SAPC   H3R 4330   4.280   6.751  10.177 -0.7881 -1.0867  1.3888
   58SAPC   H3S 4331   4.165   6.877  10.247 -1.2115 -0.3850  0.0290
   58SAPC   C24 4332   4.141   6.849  10.040  0.2821 -0.3840  0.5163
   58SAPC   H4R 4333   4.166   6.771   9.965  0.3485 -1.3064  1.4721
   58SAPC   H4S 4334   4.211   6.933  10.022  1.4353 -1.2689  0.7209
   58SAPC   C25 4335   4.002   6.903  10.031  0.5669 -0.4401 -0.0347
   58SAPC   H5R 4336   3.970   6.954  10.123  2.0389 -0.6241  0.6077
   58SAPC   C26 4337   3.927   6.895   9.924  0.7352  0.2473  0.0804
   58SAPC   H6R 4338   3.823   6.933   9.920  0.0986 -1.3835  0.5124
   58SAPC   C27 4339   3.963   6.829   9.794  0.1948  0.0529  0.3131
   58SAPC   H7R 4340   3.864   6.826   9.743 -0.7744  0.6224  2.0655
   58SAPC   H7S 4341   3.992   6.722   9.790 -0.5994 -0.1721  0.3322
   58SAPC   C28 4342   4.062   6.908   9.715 -0.2850 -0.0090 -0.6822
   58SAPC   H8R 4343   4.136   6.964   9.774 -2.7937  3.2521 -0.3752
   58SAPC   C29 4344   4.065   6.922   9.581 -0.3841  0.2281  0.5954
   58SAPC   H9R 4345   4.143   6.978   9.528 -0.7664 -1.1886 -1.5730
   58SAPC  C210 4346   3.963   6.860   9.487  0.2275 -0.6992 -0.5798
   58SAPC  H10R 4347   3.873   6.918   9.518 -0.3974 -0.8202 -2.0944
   58SAPC  H10S 4348   3.938   6.757   9.522 -0.2521 -0.1064  0.9275
   58SAPC  C211 4349   3.989   6.870   9.340  0.0425  0.0579 -0.4785
   58SAPC  H11R 4350   3.920   6.939   9.289 -0.0700 -0.1735 -0.6388
   58SAPC  C212 4351   4.090   6.800   9.280 -0.2895  0.1907 -0.0375
   58SAPC  H12R 4352   4.103   6.804   9.171  2.3178 -0.9156  0.1512
   58SAPC  C213 4353   4.199   6.708   9.334 -0.0315 -0.0887 -0.9921
   58SAPC  H13R 4354   4.170   6.666   9.433  0.3702 -1.1468 -1.3041
   58SAPC  H13S 4355   4.295   6.763   9.345 -0.1867 -0.2983  2.6258
   58SAPC  C214 4356   4.235   6.588   9.249 -0.0094  0.1918 -0.1873
   58SAPC  H14R 4357   4.193   6.492   9.282  0.1617  0.5131  1.0049
   58SAPC  C215 4358   4.301   6.590   9.134 -0.2820  0.1315 -0.2488
   58SAPC  H15R 4359   4.328   6.492   9.091  0.3362 -0.7141  1.9392
   58SAPC  C216 4360   4.339   6.719   9.064 -0.3496  0.9090  0.3398
   58SAPC  H16R 4361   4.449   6.719   9.076 -0.6206  1.0839  3.5435
   58SAPC  H16S 4362   4.298   6.811   9.111 -1.5153  0.6912 -0.2066
   58SAPC  C217 4363   4.308   6.712   8.912 -0.0110  0.5590 -0.7611
   58SAPC  H17R 4364   4.345   6.616   8.870  1.1539  0.3950  0.5786
   58SAPC  H17S 4365   4.359   6.803   8.872  0.5578  1.3528  1.6098
   58SAPC  C218 4366   4.164   6.726   8.889 -0.0813 -0.0553 -0.0603
   58SAPC  H18R 4367   4.123   6.815   8.941  0.6159  0.6835 -0.7355
   58SAPC  H18S 4368   4.113   6.633   8.922  2.0925 -1.5509 -0.6273
   58SAPC  C219 4369   4.136   6.763   8.744  0.0349  0.6258  0.1753
   58SAPC  H19R 4370   4.171   6.864   8.713 -1.5122  0.3062 -3.1196
   58SAPC  H19S 4371   4.027   6.782   8.730  0.0727 -0.5025 -2.1436
   58SAPC  C220 4372   4.160   6.643   8.651  0.1006  0.2470  0.0313
   58SAPC  H20R 4373   4.137   6.546   8.701  0.1073 -1.1924 -2.5536
   58SAPC  H20S 4374   4.270   6.635   8.635 -0.0593  0.4206 -1.2202
   58SAPC  H20T 4375   4.105   6.655   8.556  0.3856  0.2865 -0.1304
   58SAPC   C33 4376   4.502   6.400  10.326  0.2966 -0.2308  0.2368
   58SAPC   H3X 4377   4.601   6.371  10.285 -0.5339  0.5977 -2.5524
   58SAPC   H3Y 4378   4.510   6.475  10.408  1.3141 -0.5433  0.4343
   58SAPC   C34 4379   4.422   6.454  10.205 -0.4732 -0.2768  0.2633
   58SAPC   H4X 4380   4.445   6.563  10.200  2.3019 -0.7523  1.0989
   58SAPC   H4Y 4381   4.312   6.448  10.219 -0.5800  0.8206 -0.0035
   58SAPC   C35 4382   4.470   6.417  10.069  0.0921 -0.8024  0.0117
   58SAPC   H5X 4383   4.513   6.314  10.071  0.8446 -0.5646 -1.9737
   58SAPC   H5Y 4384   4.562   6.476  10.050 -0.4321 -0.2458 -0.8251
   58SAPC   C36 4385   4.364   6.434   9.958 -1.2603 -0.0046  0.4573
   58SAPC   H6X 4386   4.419   6.432   9.861  0.1556  2.6914  1.0896
   58SAPC   H6Y 4387   4.325   6.538   9.961 -1.9073 -0.1288 -1.8061
   58SAPC   C37 4388   4.246   6.335   9.962  0.0785  0.2359  0.6182
   58SAPC   H7X 4389   4.208   6.339  10.066  0.3017  0.9499  0.6768
   58SAPC   H7Y 4390   4.280   6.231   9.940 -1.2905 -0.4477  1.6259
   58SAPC   C38 4391   4.143   6.374   9.854  0.0439 -0.1539  0.8827
   58SAPC   H8X 4392   4.093   6.472   9.866 -2.3653 -0.9227 -1.5355
   58SAPC   H8Y 4393   4.061   6.299   9.855  0.5827 -0.7484  1.4715
   58SAPC   C39 4394   4.203   6.363   9.717 -0.2903  0.0905  0.5753
   58SAPC   H9X 4395   4.287   6.293   9.735  1.6568  1.7582 -1.5731
   58SAPC   H9Y 4396   4.248   6.459   9.683  1.9121 -0.9713  0.3200
   58SAPC  C310 4397   4.103   6.314   9.607  0.4063  0.5395  0.5384
   58SAPC  H10X 4398   4.039   6.395   9.566 -0.0347 -0.5139 -0.9131
   58SAPC  H10Y 4399   4.033   6.241   9.654 -0.7432  0.7780 -0.7343
   58SAPC  C311 4400   4.176   6.240   9.496  0.3686 -0.3841 -0.3427
   58SAPC  H11X 4401   4.227   6.150   9.536  0.7511  0.8737  2.1999
   58SAPC  H11Y 4402   4.261   6.305   9.466  0.3873  0.3953  1.2558
   58SAPC  C312 4403   4.086   6.208   9.371  0.2509 -0.0959  0.2498
   58SAPC  H12X 4404   4.027   6.297   9.341 -1.4126 -2.0944 -3.0079
   58SAPC  H12Y 4405   4.021   6.123   9.401 -0.0330 -0.0144 -0.1310
   58SAPC  C313 4406   4.168   6.166   9.248 -0.3872 -0.1236 -0.6661
   58SAPC  H13X 4407   4.210   6.067   9.273 -1.7630 -0.8615 -1.1730
   58SAPC  H13Y 4408   4.245   6.244   9.228 -0.2148 -0.2554 -0.5248
   58SAPC  C314 4409   4.090   6.146   9.122 -0.3735 -0.1517 -0.1476
   58SAPC  H14X 4410   3.999   6.087   9.146 -1.0902  0.7592 -0.5811
   58SAPC  H14Y 4411   4.161   6.082   9.067  1.0244  0.9372  0.3218
   58SAPC  C315 4412   4.060   6.273   9.037 -0.3295  0.2936  0.3023
   58SAPC  H15X 4413   4.155   6.325   9.014 -0.7177  0.4348 -1.0717
   58SAPC  H15Y 4414   4.007   6.345   9.104  0.3864  1.4332 -0.3323
   58SAPC  C316 4415   3.999   6.245   8.906  0.0926  0.1435  0.3351
   58SAPC  H16X 4416   4.069   6.187   8.842 -1.8435 -1.4122 -0.4860
   58SAPC  H16Y 4417   3.988   6.338   8.846  0.3645 -0.6818 -1.0500
   58SAPC  C317 4418   3.865   6.174   8.929 -0.2894  0.2117 -0.4568
   58SAPC  H17X 4419   3.799   6.214   9.008 -0.2459 -2.4344  1.0242
   58SAPC  H17Y 4420   3.894   6.068   8.948  1.3455  0.5392 -0.9786
   58SAPC  C318 4421   3.785   6.179   8.799  0.5249  0.0405 -0.8617
   58SAPC  H18X 4422   3.694   6.115   8.799 -0.1768  1.0082 -0.0446
   58SAPC  H18Y 4423   3.857   6.143   8.723  0.7781  0.7754 -0.9759
   58SAPC  H18Z 4424   3.759   6.284   8.773  1.5134  0.7059  0.7331
   59SAPC     N 4425   5.701   5.272  10.993 -0.6797  0.2618 -0.0966
   59SAPC   C12 4426   5.665   5.123  11.022 -0.4325  0.7122 -0.3230
   59SAPC  H12A 4427   5.664   5.071  10.928 -0.7049  1.2943 -0.6505
   59SAPC  H12B 4428   5.560   5.129  11.047 -0.0591  0.2494  1.5111
   59SAPC   C13 4429   5.719   5.345  11.119 -0.4676 -0.2367 -0.5091
   59SAPC  H13A 4430   5.745   5.449  11.102  0.8106 -0.5108 -0.3110
   59SAPC  H13B 4431   5.632   5.335  11.181 -0.1677 -1.5385 -0.2825
   59SAPC  H13C 4432   5.803   5.303  11.171 -0.1417 -1.6306 -2.1008
   59SAPC   C14 4433   5.829   5.265  10.928 -0.0656  0.6917 -0.0484
   59SAPC  H14A 4434   5.853   5.367  10.900 -1.7906  1.2728  0.4621
   59SAPC  H14B 4435   5.913   5.237  10.989  1.6803  0.5347 -2.3562
   59SAPC  H14C 4436   5.830   5.202  10.840 -0.9499  0.2323  0.2653
   59SAPC   C15 4437   5.605   5.334  10.905 -0.1669  0.4022  0.1720
   59SAPC  H15A 4438   5.597   5.441  10.918  0.2195  0.6514 -1.3981
   59SAPC  H15B 4439   5.610   5.305  10.801  0.5758 -1.9520  0.8059
   59SAPC  H15C 4440   5.504   5.300  10.924 -0.0024  0.5872  1.4370
   59SAPC   C11 4441   5.743   5.045  11.130 -0.1007  0.9115  0.1669
   59SAPC  H11A 4442   5.683   4.956  11.156 -0.2813  1.5601  2.1410
   59SAPC  H11B 4443   5.749   5.103  11.224  1.6566  0.1524  0.5613
   59SAPC     P 4444   5.919   4.888  11.004 -0.1858  0.4380  0.0055
   59SAPC   O13 4445   6.006   4.819  11.102  0.0833  0.0034 -0.0169
   59SAPC   O14 4446   5.801   4.806  10.960 -0.4744  0.2415  0.3834
   59SAPC   O12 4447   5.873   5.026  11.076 -0.1266  0.2464 -0.0273
   59SAPC   O11 4448   5.993   4.944  10.874  0.5880  0.1952 -0.3906
   59SAPC    C1 4449   6.134   4.979  10.865  0.2615  0.1673  0.6847
   59SAPC    HA 4450   6.166   5.047  10.947  1.8907  0.9006 -0.5021
   59SAPC    HB 4451   6.199   4.889  10.867  0.4888  0.2850 -0.6708
   59SAPC    C2 4452   6.154   5.036  10.725 -0.0237 -0.1663  0.0206
   59SAPC    HS 4453   6.084   5.122  10.712 -1.0521 -0.9342  0.2989
   59SAPC   O21 4454   6.131   4.932  10.625  0.4129  0.0034  0.2584
   59SAPC   C21 4455   6.007   4.917  10.584 -0.4005  0.4474 -0.0367
   59SAPC   O22 4456   5.916   4.998  10.600 -0.2630  0.2293 -0.0936
   59SAPC   C22 4457   5.987   4.790  10.501  0.4335  0.4189 -0.4907
   59SAPC   H2R 4458   6.078   4.743  10.458  0.3318  0.1317 -0.3905
   59SAPC   H2S 4459   5.945   4.721  10.577  0.2386  2.8750  1.7956
   59SAPC    C3 4460   6.288   5.106  10.709  0.0671  0.2550  0.0720
   59SAPC    HX 4461   6.371   5.047  10.754  0.6658  1.2645  0.3047
   59SAPC    HY 4462   6.288   5.191  10.780  1.4987 -1.1551  1.8978
   59SAPC   O31 4463   6.337   5.136  10.569  0.4460 -0.4060  0.1459
   59SAPC   C31 4464   6.461   5.100  10.541  0.4407  0.3855 -0.6789
   59SAPC   O32 4465   6.526   5.016  10.605 -0.0209 -0.4131 -0.4233
   59SAPC   C32 4466   6.507   5.179  10.416  0.0246  0.7214  0.3220
   59SAPC   H2X 4467   6.477   5.282  10.446  0.9486  1.1302 -0.1086
   59SAPC   H2Y 4468   6.446   5.140  10.333  1.9526 -0.4313 -0.6230
   59SAPC   C23 4469   5.880   4.804  10.390  0.2285  0.8871  0.0245
   59SAPC   H3R 4470   5.784   4.848  10.424  0.4931  0.5246  1.2752
   59SAPC   H3S 4471   5.862   4.706  10.341 -1.2698  1.7746 -1.3221
   59SAPC   C24 4472   5.938   4.895  10.278 -0.3334  0.1660 -0.3224
   59SAPC   H4R 4473   5.943   5.000  10.313  0.5049 -0.2283  0.7889
   59SAPC   H4S 4474   5.876   4.885  10.186  1.2717  0.4059 -1.4813
   59SAPC   C25 4475   6.074   4.865  10.229  0.0701 -0.8042  0.4240
   59SAPC   H5R 4476   6.168   4.904  10.270  0.4467 -0.6876 -0.5109
   59SAPC   C26 4477   6.092   4.787  10.119 -0.0437 -0.1249 -0.3281
   59SAPC   H6R 4478   6.191   4.776  10.073  0.0718  3.0835 -1.1175
   59SAPC   C27 4479   5.985   4.716  10.039 -0.3127 -0.0491 -0.6337
   59SAPC   H7R 4480   5.988   4.778   9.947  2.7860  2.2551  0.8309
   59SAPC   H7S 4481   5.885   4.721  10.088  0.0295  2.6186 -0.0701
   59SAPC   C28 4482   6.020   4.578  10.005  0.5767 -0.2804 -0.0268
   59SAPC   H8R 4483   6.023   4.507  10.088  1.0463 -1.6740 -1.1967
   59SAPC   C29 4484   6.041   4.523   9.880  0.1967 -0.2833 -0.3687
   59SAPC   H9R 4485   6.069   4.418   9.867  1.2215 -0.1789  0.7363
   59SAPC  C210 4486   6.041   4.589   9.747 -0.0575  0.1497  0.1669
   59SAPC  H10R 4487   6.147   4.582   9.717 -0.3562 -0.3830 -0.8230
   59SAPC  H10S 4488   6.006   4.694   9.753  0.5622  0.2673  2.4669
   59SAPC  C211 4489   5.949   4.519   9.639  0.1167  0.2893 -0.0599
   59SAPC  H11R 4490   5.870   4.457   9.682  0.3171  0.8766  1.2013
   59SAPC  C212 4491   5.971   4.508   9.506 -0.3319  0.6101 -0.0080
   59SAPC  H12R 4492   5.899   4.448   9.448 -0.5170 -0.5355  1.3533
   59SAPC  C213 4493   6.090   4.566   9.436 -0.7232  0.1092 -0.4882
   59SAPC  H13R 4494   6.129   4.662   9.477 -0.2743 -0.2500 -0.0642
   59SAPC  H13S 4495   6.066   4.593   9.331  0.1452  5.4309  0.3537
   59SAPC  C214 4496   6.208   4.471   9.436  0.5926  0.3789 -0.1455
   59SAPC  H14R 4497   6.268   4.473   9.529 -1.4958  1.9796  1.2656
   59SAPC  C215 4498   6.241   4.385   9.336 -0.3988 -0.2399 -0.3860
   59SAPC  H15R 4499   6.324   4.317   9.360  0.6120  0.6784 -1.1767
   59SAPC  C216 4500   6.170   4.360   9.211 -0.2586 -0.0961 -0.0739
   59SAPC  H16R 4501   6.076   4.418   9.214  0.2881  0.7624  1.3673
   59SAPC  H16S 4502   6.145   4.252   9.204 -0.6330 -0.0167  0.0437
   59SAPC  C217 4503   6.241   4.397   9.079  0.6361 -0.5657 -0.4204
   59SAPC  H17R 4504   6.248   4.508   9.075  3.5869 -0.7100 -1.0661
   59SAPC  H17S 4505   6.187   4.354   8.992 -0.7965  2.6457 -1.2384
   59SAPC  C218 4506   6.384   4.343   9.063  0.3697  0.2793  0.1096
   59SAPC  H18R 4507   6.384   4.232   9.072 -2.0071  0.0999 -1.2898
   59SAPC  H18S 4508   6.445   4.392   9.142  1.1299 -0.8284  0.2272
   59SAPC  C219 4509   6.440   4.384   8.930 -0.4075  0.1502 -0.0406
   59SAPC  H19R 4510   6.425   4.491   8.908  0.2320  0.0393 -1.0831
   59SAPC  H19S 4511   6.383   4.327   8.853 -0.6220  2.6011 -1.7894
   59SAPC  C220 4512   6.590   4.355   8.919 -0.7679 -0.3245 -0.6059
   59SAPC  H20R 4513   6.635   4.404   8.831 -1.0623  1.5302  0.2372
   59SAPC  H20S 4514   6.612   4.247   8.901 -0.6304 -0.1385 -1.6082
   59SAPC  H20T 4515   6.644   4.387   9.011 -1.2200  1.2609 -0.8760
   59SAPC   C33 4516   6.656   5.174  10.400 -1.0279  1.1532  0.2122
   59SAPC   H3X 4517   6.713   5.197  10.492 -2.4668  1.0463  1.1507
   59SAPC   H3Y 4518   6.689   5.240  10.317  1.0530 -0.0213  0.0272
   59SAPC   C34 4519   6.711   5.034  10.364 -0.2467 -0.5101  0.8096
   59SAPC   H4X 4520   6.705   4.962  10.449  1.3455 -1.6942 -0.0327
   59SAPC   H4Y 4521   6.821   5.039  10.352 -0.1764 -2.7659  0.1797
   59SAPC   C35 4522   6.649   4.963  10.240  0.4707  0.5524 -0.0026
   59SAPC   H5X 4523   6.539   4.958  10.253  0.6160 -0.5658  0.9912
   59SAPC   H5Y 4524   6.706   4.870  10.217  1.5781  0.5187  2.5552
   59SAPC   C36 4525   6.666   5.055  10.118  0.4343 -0.3755  0.7114
   59SAPC   H6X 4526   6.772   5.085  10.102 -0.3071  2.4022  0.5176
   59SAPC   H6Y 4527   6.603   5.145  10.136  1.2471  0.3270  0.1321
   59SAPC   C37 4528   6.618   4.982   9.991 -0.1505  0.2290  0.2696
   59SAPC   H7X 4529   6.508   4.985  10.002 -0.0056  1.1957  1.9474
   59SAPC   H7Y 4530   6.667   4.882   9.985 -1.9112 -0.6462  0.1040
   59SAPC   C38 4531   6.663   5.073   9.866  0.2405  0.3862 -0.7013
   59SAPC   H8X 4532   6.764   5.119   9.871 -0.5027  2.1020 -0.7565
   59SAPC   H8Y 4533   6.594   5.160   9.875 -0.5516 -0.4290  2.4021
   59SAPC   C39 4534   6.639   5.004   9.734  0.2998  0.4789  0.1242
   59SAPC   H9X 4535   6.536   4.963   9.728 -0.4091  2.0782  0.8048
   59SAPC   H9Y 4536   6.704   4.914   9.741 -0.2024  0.1302  0.2962
   59SAPC  C310 4537   6.671   5.089   9.608  0.4250  0.3559  0.0249
   59SAPC  H10X 4538   6.728   5.176   9.648  3.4990 -1.3475 -0.3663
   59SAPC  H10Y 4539   6.574   5.132   9.573 -0.3501  1.3452  3.0987
   59SAPC  C311 4540   6.756   5.021   9.491  0.0940  0.7705 -0.2482
   59SAPC  H11X 4541   6.694   4.937   9.454  2.4035 -2.3468  2.4305
   59SAPC  H11Y 4542   6.844   4.971   9.535 -2.7666 -1.4837  3.4412
   59SAPC  C312 4543   6.799   5.114   9.370 -0.6118 -0.0027  0.1072
   59SAPC  H12X 4544   6.868   5.045   9.317  0.1206  0.7868  0.0118
   59SAPC  H12Y 4545   6.861   5.201   9.403 -1.9295  1.7897 -1.8587
   59SAPC  C313 4546   6.680   5.163   9.294 -0.9592 -0.1605  0.0687
   59SAPC  H13X 4547   6.627   5.236   9.359  0.3332  2.2403 -1.4401
   59SAPC  H13Y 4548   6.613   5.077   9.271 -1.0327  0.1541 -0.9069
   59SAPC  C314 4549   6.727   5.227   9.159  0.2196  0.1539 -0.0871
   59SAPC  H14X 4550   6.759   5.135   9.105 -0.6797 -2.0014  2.8088
   59SAPC  H14Y 4551   6.812   5.299   9.163 -0.0342  0.6402 -2.1153
   59SAPC  C315 4552   6.609   5.311   9.107 -0.4162 -0.4139  0.6471
   59SAPC  H15X 4553   6.608   5.404   9.167  1.5302  1.1214 -1.5233
   59SAPC  H15Y 4554   6.517   5.251   9.127 -0.7213 -0.1141  0.1525
   59SAPC  C316 4555   6.624   5.357   8.958 -0.3551 -0.3137 -0.2189
   59SAPC  H16X 4556   6.718   5.416   8.951  0.2378 -1.1066  0.7592
   59SAPC  H16Y 4557   6.543   5.431   8.940  1.4473  2.0683  0.8465
   59SAPC  C317 4558   6.610   5.243   8.860  0.6123  0.0613 -0.1726
   59SAPC  H17X 4559   6.501   5.222   8.861  0.1600  2.2548  1.5924
   59SAPC  H17Y 4560   6.662   5.150   8.892 -0.9796 -0.6696  0.3838
   59SAPC  C318 4561   6.654   5.291   8.720 -0.2438 -0.4813 -0.3816
   59SAPC  H18X 4562   6.765   5.298   8.718 -0.2014 -0.9276  0.2360
   59SAPC  H18Y 4563   6.604   5.389   8.702 -2.7951 -1.8771 -1.4635
   59SAPC  H18Z 4564   6.629   5.216   8.642 -0.6964 -0.8405  0.1014
   60SAPC     N 4565   6.080   2.101  10.772  0.3267  0.6314  0.1640
   60SAPC   C12 4566   5.978   2.069  10.880  0.2554  0.2124 -0.1314
   60SAPC  H12A 4567   5.899   2.012  10.833 -1.1927  1.5782  0.5603
   60SAPC  H12B 4568   5.923   2.158  10.906 -1.4467 -0.4877 -1.0917
   60SAPC   C13 4569   6.007   2.160  10.649  0.0885  0.6728  0.5425
   60SAPC  H13A 4570   5.920   2.100  10.624 -0.7855  2.2166 -0.2592
   60SAPC  H13B 4571   5.985   2.264  10.667  0.7248  1.2304 -1.6407
   60SAPC  H13C 4572   6.076   2.164  10.566  0.3720 -2.0046  0.5695
   60SAPC   C14 4573   6.181   2.198  10.828  0.5645 -0.0703 -0.5829
   60SAPC  H14A 4574   6.258   2.136  10.872  1.3629  2.3891  1.7421
   60SAPC  H14B 4575   6.223   2.247  10.741 -1.0121  1.9977 -0.2672
   60SAPC  H14C 4576   6.122   2.266  10.887 -0.1338 -0.2234 -1.0958
   60SAPC   C15 4577   6.159   1.978  10.732  0.0407  0.2892 -0.4283
   60SAPC  H15A 4578   6.188   1.935  10.827  1.1067  0.6113 -0.5913
   60SAPC  H15B 4579   6.097   1.911  10.674  1.0720 -0.5217 -0.6465
   60SAPC  H15C 4580   6.249   2.010  10.680 -0.0086  1.9054  0.4379
   60SAPC   C11 4581   6.018   1.989  11.008 -0.5098 -0.4797 -0.3253
   60SAPC  H11A 4582   6.096   2.048  11.061 -1.2901 -0.6037  1.0157
   60SAPC  H11B 4583   6.053   1.887  10.980  2.4148  0.0363  1.0101
   60SAPC     P 4584   5.784   1.892  11.063  0.4054 -0.1631  0.1418
   60SAPC   O13 4585   5.808   1.767  11.138 -0.4782  0.0152  0.0585
   60SAPC   O14 4586   5.662   1.970  11.103  0.2568 -0.2394  0.4622
   60SAPC   O12 4587   5.904   1.987  11.089 -0.0084  0.1420 -0.0359
   60SAPC   O11 4588   5.786   1.864  10.902  0.1973 -0.1235 -0.0160
   60SAPC    C1 4589   5.704   1.773  10.832  0.3204  0.7850  0.0198
   60SAPC    HA 4590   5.751   1.674  10.849  1.9602  1.6818  1.0058
   60SAPC    HB 4591   5.597   1.768  10.861 -0.5786  0.3211 -3.0578
   60SAPC    C2 4592   5.696   1.799  10.681  0.4757  0.3198  1.0136
   60SAPC    HS 4593   5.617   1.734  10.639 -0.4156  1.5937  0.6529
   60SAPC   O21 4594   5.828   1.776  10.635 -0.2180  0.1787  0.1481
   60SAPC   C21 4595   5.858   1.654  10.581 -0.4028 -0.1093  0.2276
   60SAPC   O22 4596   5.785   1.567  10.553  0.2913  0.4653  0.7253
   60SAPC   C22 4597   6.014   1.644  10.574  0.3849 -0.0655  0.1732
   60SAPC   H2R 4598   6.051   1.661  10.677 -1.6960  1.3657  0.7391
   60SAPC   H2S 4599   6.055   1.548  10.534  0.9557  0.0553  0.4587
   60SAPC    C3 4600   5.637   1.939  10.651  0.4667  0.1069  0.5672
   60SAPC    HX 4601   5.702   2.024  10.681 -0.4716  0.5016  1.5885
   60SAPC    HY 4602   5.543   1.952  10.710  0.2823  2.1023 -0.0785
   60SAPC   O31 4603   5.605   1.949  10.511 -0.1571 -0.2075 -0.0830
   60SAPC   C31 4604   5.711   1.983  10.431  0.9003 -0.0122  0.2739
   60SAPC   O32 4605   5.821   2.017  10.478  0.5691 -0.2717  0.2539
   60SAPC   C32 4606   5.681   1.950  10.292 -0.4620 -0.2792  0.0695
   60SAPC   H2X 4607   5.609   2.022  10.246  0.0608 -0.5725 -1.2605
   60SAPC   H2Y 4608   5.639   1.847  10.295  1.2911 -1.0725 -0.9920
   60SAPC   C23 4609   6.067   1.759  10.473 -0.0569 -0.3306 -0.1171
   60SAPC   H3R 4610   6.032   1.859  10.507  0.6103 -0.0721 -0.1764
   60SAPC   H3S 4611   6.022   1.741  10.373 -0.4992  1.5464 -0.3001
   60SAPC   C24 4612   6.220   1.770  10.455 -0.3173 -0.4303 -0.2060
   60SAPC   H4R 4613   6.245   1.666  10.424 -2.5459 -1.0536 -0.0544
   60SAPC   H4S 4614   6.265   1.790  10.555  0.3602 -1.7764 -0.2161
   60SAPC   C25 4615   6.258   1.865  10.349  0.2460  0.2464 -0.4139
   60SAPC   H5R 4616   6.219   1.965  10.372 -2.6944 -1.0383  0.7277
   60SAPC   C26 4617   6.342   1.849  10.244  0.1022  0.1583 -0.0204
   60SAPC   H6R 4618   6.367   1.934  10.179  1.8996  0.1492  0.5984
   60SAPC   C27 4619   6.414   1.715  10.203 -0.3289  0.2506 -0.2310
   60SAPC   H7R 4620   6.400   1.697  10.094  0.0138 -3.4014  0.2156
   60SAPC   H7S 4621   6.359   1.627  10.242  0.3392  0.6955  1.7975
   60SAPC   C28 4622   6.560   1.723  10.244 -0.4617  0.4782  0.3311
   60SAPC   H8R 4623   6.568   1.774  10.341  0.5642 -0.7714  0.9276
   60SAPC   C29 4624   6.659   1.673  10.171 -0.5403 -1.0948  0.6477
   60SAPC   H9R 4625   6.765   1.682  10.197 -0.0571 -4.0942  0.1705
   60SAPC  C210 4626   6.648   1.585  10.049 -1.0270 -0.3451  0.1689
   60SAPC  H10R 4627   6.674   1.652   9.964  0.9369 -0.7808  0.3832
   60SAPC  H10S 4628   6.542   1.558  10.031 -0.6505 -1.4859 -0.4012
   60SAPC  C211 4629   6.737   1.464  10.054 -0.1973  0.9210  0.0537
   60SAPC  H11R 4630   6.757   1.431  10.157 -0.6828  2.0146  0.5115
   60SAPC  C212 4631   6.774   1.387   9.952  0.1801 -0.0755 -0.3178
   60SAPC  H12R 4632   6.818   1.290   9.976 -0.1691 -0.7412 -2.2043
   60SAPC  C213 4633   6.739   1.413   9.813 -0.4297 -0.0463  0.2423
   60SAPC  H13R 4634   6.820   1.468   9.761 -0.5300 -0.8858 -0.8330
   60SAPC  H13S 4635   6.655   1.485   9.812 -2.5892 -2.3983  0.8152
   60SAPC  C214 4636   6.701   1.293   9.733 -0.4415  1.0110  0.2101
   60SAPC  H14R 4637   6.713   1.197   9.785  1.5748 -0.1706 -2.2236
   60SAPC  C215 4638   6.659   1.296   9.611 -0.4238  0.1126 -0.4178
   60SAPC  H15R 4639   6.628   1.197   9.575  1.5106 -1.4574  1.8706
   60SAPC  C216 4640   6.650   1.414   9.529  1.2898  0.6200  0.0672
   60SAPC  H16R 4641   6.685   1.385   9.428 -1.8572 -0.0919 -0.9411
   60SAPC  H16S 4642   6.710   1.495   9.577  0.6723  0.3899  1.2770
   60SAPC  C217 4643   6.506   1.453   9.518  0.4647  0.1336 -1.0535
   60SAPC  H17R 4644   6.459   1.478   9.615  0.3446  2.0588 -1.5762
   60SAPC  H17S 4645   6.432   1.382   9.474 -1.6228  1.5142  0.0730
   60SAPC  C218 4646   6.489   1.581   9.429  0.9122  0.1721 -0.3569
   60SAPC  H18R 4647   6.536   1.671   9.474  1.9228 -0.5649  0.1015
   60SAPC  H18S 4648   6.381   1.599   9.413  1.5366  1.9818 -3.1729
   60SAPC  C219 4649   6.558   1.570   9.286 -0.8121 -0.6430  0.0283
   60SAPC  H19R 4650   6.668   1.562   9.290 -0.8053 -0.9743 -0.7942
   60SAPC  H19S 4651   6.538   1.665   9.233  0.4262 -0.4737 -0.1460
   60SAPC  C220 4652   6.504   1.467   9.192 -0.7095  0.1326 -0.6007
   60SAPC  H20R 4653   6.576   1.436   9.113  1.5152 -1.1623  1.7743
   60SAPC  H20S 4654   6.411   1.495   9.139 -0.1783  0.1912 -1.5427
   60SAPC  H20T 4655   6.488   1.373   9.248  0.1907 -0.5602 -1.4597
   60SAPC   C33 4656   5.811   1.958  10.216 -0.1920 -0.3031  0.7866
   60SAPC   H3X 4657   5.892   1.895  10.260 -1.4285 -1.8022  1.0183
   60SAPC   H3Y 4658   5.846   2.062  10.201 -1.1632 -0.4057 -3.2702
   60SAPC   C34 4659   5.788   1.911  10.072 -0.0567 -0.0313  1.2731
   60SAPC   H4X 4660   5.711   1.971  10.020  1.2887  0.0864 -0.6938
   60SAPC   H4Y 4661   5.741   1.811  10.078 -1.8165  0.5201 -1.4793
   60SAPC   C35 4662   5.915   1.900   9.982  0.2506 -0.1864  0.0944
   60SAPC   H5X 4663   5.981   1.819  10.018 -0.6077 -1.8072 -1.7764
   60SAPC   H5Y 4664   5.974   1.994   9.983 -1.0324  0.6632 -0.6339
   60SAPC   C36 4665   5.871   1.866   9.839 -0.2063  0.2784 -0.3546
   60SAPC   H6X 4666   5.809   1.949   9.798 -0.9555  0.6105  1.3675
   60SAPC   H6Y 4667   5.819   1.768   9.842  1.8816 -0.9218  3.1165
   60SAPC   C37 4668   5.996   1.863   9.748  0.6165  0.0507  0.6431
   60SAPC   H7X 4669   6.074   1.795   9.789 -0.4740 -0.8781  1.2282
   60SAPC   H7Y 4670   6.046   1.962   9.760  0.2253  0.4100 -0.5226
   60SAPC   C38 4671   5.962   1.850   9.593 -0.5291 -0.2268 -0.4133
   60SAPC   H8X 4672   5.921   1.948   9.562  1.2831  0.1769 -1.7910
   60SAPC   H8Y 4673   5.882   1.776   9.574 -0.1753 -0.2137 -2.1338
   60SAPC   C39 4674   6.085   1.799   9.505  0.3240 -0.5627 -1.2152
   60SAPC   H9X 4675   6.128   1.701   9.537 -2.0305 -0.5275  2.7541
   60SAPC   H9Y 4676   6.167   1.874   9.514 -0.5578  0.6416 -2.7779
   60SAPC  C310 4677   6.052   1.784   9.358  0.2935  0.3084 -0.7581
   60SAPC  H10X 4678   6.015   1.881   9.318  1.4048  0.3686 -1.7232
   60SAPC  H10Y 4679   5.967   1.717   9.334  0.0938  0.3870 -0.2739
   60SAPC  C311 4680   6.163   1.746   9.267 -0.4594  0.3026 -0.1372
   60SAPC  H11X 4681   6.206   1.646   9.290  3.7401  1.8089 -0.4575
   60SAPC  H11Y 4682   6.247   1.819   9.270  1.7344 -1.8948 -2.6013
   60SAPC  C312 4683   6.116   1.737   9.123  0.8238  0.3652 -0.4790
   60SAPC  H12X 4684   6.087   1.843   9.106  0.5990  0.9074  2.6988
   60SAPC  H12Y 4685   6.026   1.672   9.125  0.2889  1.1068  0.4217
   60SAPC  C313 4686   6.223   1.682   9.029 -0.1840 -0.7441  0.0069
   60SAPC  H13X 4687   6.256   1.589   9.080  1.4328  0.5845  1.5317
   60SAPC  H13Y 4688   6.309   1.752   9.029 -1.1489  0.5209 -1.6082
   60SAPC  C314 4689   6.173   1.651   8.892 -0.3436  0.5013  0.0565
   60SAPC  H14X 4690   6.259   1.639   8.822 -0.8569  0.1141 -0.5177
   60SAPC  H14Y 4691   6.111   1.733   8.849  1.1919  1.5227 -0.3100
   60SAPC  C315 4692   6.101   1.510   8.904 -0.2266 -0.3159  0.2749
   60SAPC  H15X 4693   6.046   1.512   9.001  0.6123  1.4281  0.7647
   60SAPC  H15Y 4694   6.188   1.441   8.916  0.6577  0.7184 -0.0078
   60SAPC  C316 4695   6.024   1.477   8.779  0.2618  1.3880  0.0171
   60SAPC  H16X 4696   6.003   1.367   8.780  1.8273  1.0521  2.0459
   60SAPC  H16Y 4697   6.079   1.494   8.683 -0.4541  1.2885 -0.4167
   60SAPC  C317 4698   5.884   1.542   8.787  0.1010 -0.3568  0.0795
   60SAPC  H17X 4699   5.900   1.652   8.785 -0.7714 -0.2305 -0.3522
   60SAPC  H17Y 4700   5.845   1.505   8.884  0.3391  0.9336  0.6889
   60SAPC  C318 4701   5.788   1.496   8.672  0.1236  0.2850  0.3608
   60SAPC  H18X 4702   5.789   1.385   8.677  0.2751  0.1919 -1.2367
   60SAPC  H18Y 4703   5.818   1.527   8.569  0.1648 -0.0747  0.2608
   60SAPC  H18Z 4704   5.680   1.516   8.684 -0.9062 -2.0235 -3.3220
   61SAPC     N 4705   1.138   6.087  11.084  0.3570  0.4194  0.5446
   61SAPC   C12 4706   1.037   6.190  11.054  0.7043 -1.0774  0.4056
   61SAPC  H12A 4707   1.056   6.281  11.108  1.1406  0.0272 -1.5028
   61SAPC  H12B 4708   0.940   6.157  11.088  0.7494 -0.0361  1.5914
   61SAPC   C13 4709   1.277   6.128  11.026  0.3959 -0.5007 -0.0580
   61SAPC  H13A 4710   1.327   6.208  11.077 -0.3705 -0.6080  0.8843
   61SAPC  H13B 4711   1.346   6.045  11.025  2.2658  0.9885  0.1708
   61SAPC  H13C 4712   1.260   6.167  10.927  0.8060 -1.1453 -0.3908
   61SAPC   C14 4713   1.146   6.064  11.232 -0.2265 -0.5314  0.0690
   61SAPC  H14A 4714   1.210   5.980  11.252 -0.2641 -0.9056 -1.3297
   61SAPC  H14B 4715   1.193   6.151  11.276 -2.6549  0.3675  1.1121
   61SAPC  H14C 4716   1.050   6.050  11.281 -0.8067 -0.3206 -0.9651
   61SAPC   C15 4717   1.101   5.960  11.015 -0.4452 -0.0848 -0.3015
   61SAPC  H15A 4718   1.011   5.916  11.056 -1.1121 -1.9558 -3.4463
   61SAPC  H15B 4719   1.093   5.974  10.908 -1.1651 -1.2286 -0.4166
   61SAPC  H15C 4720   1.180   5.893  11.042  2.3467  3.4350  1.1223
   61SAPC   C11 4721   1.020   6.228  10.902  0.4481  0.0577  0.2205
   61SAPC  H11A 4722   0.932   6.295  10.890  0.7418  0.3116 -0.5532
   61SAPC  H11B 4723   0.993   6.142  10.836 -0.9874  0.2477  0.5255
   61SAPC     P 4724   1.135   6.452  10.850  0.3988 -0.2966 -0.0986
   61SAPC   O13 4725   1.098   6.497  10.988  0.7972 -0.2670  0.5372
   61SAPC   O14 4726   1.255   6.508  10.796 -0.1704 -0.3525 -0.4930
   61SAPC   O12 4727   1.139   6.295  10.857 -0.4020  0.1118 -0.0095
   61SAPC   O11 4728   1.016   6.487  10.743 -0.7398 -0.1050  0.1406
   61SAPC    C1 4729   1.042   6.447  10.607 -0.2638 -0.0511 -0.0299
   61SAPC    HA 4730   1.069   6.533  10.542  2.1614 -0.6545  0.0860
   61SAPC    HB 4731   1.127   6.376  10.596  1.9499  1.7333  3.4789
   61SAPC    C2 4732   0.917   6.383  10.545  0.3565 -0.7520  0.7855
   61SAPC    HS 4733   0.902   6.282  10.589 -0.4636 -2.0694 -2.2282
   61SAPC   O21 4734   0.931   6.382  10.397 -0.4101  0.7141 -0.0193
   61SAPC   C21 4735   0.873   6.281  10.344  0.4361 -0.3552 -1.0311
   61SAPC   O22 4736   0.850   6.172  10.395 -0.0943  0.8873  0.4694
   61SAPC   C22 4737   0.849   6.314  10.196  0.2247  0.0640 -0.1534
   61SAPC   H2R 4738   0.859   6.423  10.180  1.2716  0.1565  0.9435
   61SAPC   H2S 4739   0.926   6.271  10.128 -0.5770 -1.8556  0.1075
   61SAPC    C3 4740   0.794   6.475  10.579 -0.2359 -0.7059 -0.5160
   61SAPC    HX 4741   0.819   6.578  10.543 -0.1875  0.0249  1.4855
   61SAPC    HY 4742   0.800   6.476  10.690  0.8587 -3.4476 -0.4866
   61SAPC   O31 4743   0.674   6.423  10.515  1.0141 -0.2027  0.4223
   61SAPC   C31 4744   0.568   6.433  10.599 -0.3515  0.8069  0.3712
   61SAPC   O32 4745   0.575   6.486  10.707 -0.2409  0.0307  0.4779
   61SAPC   C32 4746   0.433   6.382  10.533 -0.5176 -0.6996 -1.1002
   61SAPC   H2X 4747   0.360   6.408  10.613  1.7819 -2.3539  1.7213
   61SAPC   H2Y 4748   0.424   6.272  10.539 -1.3499 -0.6076 -0.3035
   61SAPC   C23 4749   0.702   6.280  10.164  0.3393 -0.1649 -0.0291
   61SAPC   H3R 4750   0.673   6.334  10.072  1.2909  1.0132  0.3383
   61SAPC   H3S 4751   0.637   6.319  10.246 -0.6053  0.9116 -1.2538
   61SAPC   C24 4752   0.661   6.131  10.134 -0.0416  0.4747 -0.5482
   61SAPC   H4R 4753   0.555   6.126  10.101 -0.4743  0.3854  0.7869
   61SAPC   H4S 4754   0.660   6.068  10.226 -1.1204 -0.8729 -1.4384
   61SAPC   C25 4755   0.756   6.067  10.028  0.3567  0.8606 -0.6875
   61SAPC   H5R 4756   0.813   5.985  10.074  0.4718  0.8190 -0.9067
   61SAPC   C26 4757   0.752   6.087   9.894 -0.9210  0.7114  0.1553
   61SAPC   H6R 4758   0.814   6.021   9.832  1.1021  2.4662  0.1898
   61SAPC   C27 4759   0.668   6.180   9.808 -0.3252 -0.0099  0.1236
   61SAPC   H7R 4760   0.612   6.252   9.872 -3.8329 -2.0061 -0.4519
   61SAPC   H7S 4761   0.591   6.122   9.754  0.5152 -0.7025 -0.3663
   61SAPC   C28 4762   0.743   6.256   9.706  0.1833  0.2799 -0.0871
   61SAPC   H8R 4763   0.825   6.311   9.756 -0.7633  2.1065 -0.4634
   61SAPC   C29 4764   0.737   6.252   9.571 -0.9600 -0.1858  0.5516
   61SAPC   H9R 4765   0.803   6.323   9.520 -1.0896 -2.0228 -2.3845
   61SAPC  C210 4766   0.653   6.167   9.473 -0.2346 -0.2168 -0.0089
   61SAPC  H10R 4767   0.654   6.212   9.371  2.6329  0.3947  0.2103
   61SAPC  H10S 4768   0.544   6.157   9.491 -0.4186 -2.5472 -1.8908
   61SAPC  C211 4769   0.677   6.015   9.465  0.1518  0.4653 -0.0038
   61SAPC  H11R 4770   0.660   5.958   9.558  1.0817 -3.0558 -1.8298
   61SAPC  C212 4771   0.719   5.945   9.360 -0.6055  0.4669  0.0472
   61SAPC  H12R 4772   0.738   5.837   9.353  0.0032  0.5934 -0.3819
   61SAPC  C213 4773   0.748   5.998   9.227 -0.1371  0.1153  0.3649
   61SAPC  H13R 4774   0.808   5.925   9.168 -2.9106  1.2232 -4.4089
   61SAPC  H13S 4775   0.803   6.094   9.235 -1.5697  1.2649 -2.2710
   61SAPC  C214 4776   0.616   6.020   9.152  0.3146 -0.2312 -0.5692
   61SAPC  H14R 4777   0.517   6.018   9.202  0.7705 -0.0114  0.3650
   61SAPC  C215 4778   0.618   6.035   9.019  0.4426 -0.5120 -0.4064
   61SAPC  H15R 4779   0.522   6.056   8.969 -0.0761 -2.0721 -0.1101
   61SAPC  C216 4780   0.739   6.048   8.934 -0.4617 -0.0213  0.4934
   61SAPC  H16R 4781   0.802   5.961   8.964 -2.6207 -1.3233  1.5352
   61SAPC  H16S 4782   0.792   6.141   8.963 -1.7856  0.8077  0.3712
   61SAPC  C217 4783   0.710   6.049   8.784 -0.3309  0.1651  0.2267
   61SAPC  H17R 4784   0.642   6.137   8.777  0.5834  1.0637  2.1954
   61SAPC  H17S 4785   0.654   5.958   8.752  0.3652  0.2653 -1.3744
   61SAPC  C218 4786   0.826   6.052   8.688 -0.1605  0.4394  0.3772
   61SAPC  H18R 4787   0.797   6.030   8.584 -0.0770  0.6837  0.3012
   61SAPC  H18S 4788   0.897   5.972   8.722  0.4768  1.1999  0.8867
   61SAPC  C219 4789   0.909   6.188   8.680  0.2202 -0.1892  0.6671
   61SAPC  H19R 4790   0.931   6.221   8.784 -1.0013  1.2305  0.5109
   61SAPC  H19S 4791   0.836   6.263   8.644 -1.0417 -0.7759  1.8911
   61SAPC  C220 4792   1.037   6.181   8.601 -0.3659  0.1280 -0.1647
   61SAPC  H20R 4793   1.098   6.273   8.613 -0.4614  0.0705  0.8391
   61SAPC  H20S 4794   1.018   6.156   8.494  1.0660 -2.7891  0.1781
   61SAPC  H20T 4795   1.096   6.099   8.646 -1.6939 -1.1852 -0.7549
   61SAPC   C33 4796   0.411   6.440  10.394  0.3548  0.3414 -0.4090
   61SAPC   H3X 4797   0.506   6.465  10.341 -0.1403  1.6264 -0.7245
   61SAPC   H3Y 4798   0.349   6.530  10.411  0.3241  0.7787 -2.5256
   61SAPC   C34 4799   0.330   6.341  10.312  0.1480 -0.1736  0.2951
   61SAPC   H4X 4800   0.227   6.325  10.351 -0.7519 -0.5867 -2.1021
   61SAPC   H4Y 4801   0.367   6.236  10.316 -1.5976 -0.9035 -1.3537
   61SAPC   C35 4802   0.332   6.388  10.167 -0.7957 -0.4992  0.2553
   61SAPC   H5X 4803   0.438   6.410  10.143 -0.6982  0.3071  1.3245
   61SAPC   H5Y 4804   0.266   6.476  10.153  0.0293  0.1950  0.6640
   61SAPC   C36 4805   0.267   6.289  10.071 -0.6786  0.4406 -0.4432
   61SAPC   H6X 4806   0.158   6.286  10.094 -0.5634  0.5997  0.1619
   61SAPC   H6Y 4807   0.311   6.191  10.097 -0.2554 -0.1194 -3.0858
   61SAPC   C37 4808   0.292   6.311   9.918  0.1608  0.1566 -0.1646
   61SAPC   H7X 4809   0.398   6.292   9.894  0.0290  0.3621 -0.9423
   61SAPC   H7Y 4810   0.271   6.420   9.905 -1.8266  0.0061  1.2538
   61SAPC   C38 4811   0.197   6.228   9.825  0.1187 -0.2185  0.5456
   61SAPC   H8X 4812   0.096   6.272   9.838  0.6144  0.4232  2.7034
   61SAPC   H8Y 4813   0.186   6.122   9.859 -3.4804  0.1454  0.9020
   61SAPC   C39 4814   0.223   6.236   9.675  0.0985  0.9513  0.0207
   61SAPC   H9X 4815   0.167   6.163   9.613  0.1370  0.3884  0.6255
   61SAPC   H9Y 4816   0.329   6.214   9.650 -0.3602  0.6155 -1.7238
   61SAPC  C310 4817   0.193   6.373   9.615 -0.2018 -0.0762  0.8901
   61SAPC  H10X 4818   0.262   6.442   9.670 -0.3226  1.8901 -1.2662
   61SAPC  H10Y 4819   0.096   6.421   9.640 -0.7848 -0.7049 -0.1034
   61SAPC  C311 4820   0.209   6.376   9.464  1.2290 -0.5543 -0.0118
   61SAPC  H11X 4821   0.214   6.484   9.439 -0.1969 -0.3751  0.3633
   61SAPC  H11Y 4822   0.110   6.349   9.422 -1.1966  4.0703  1.9557
   61SAPC  C312 4823   0.328   6.300   9.405 -0.6247  0.5405 -0.4602
   61SAPC  H12X 4824   0.318   6.192   9.432  1.6412  0.7141  1.3584
   61SAPC  H12Y 4825   0.418   6.341   9.455 -0.1580 -0.4407 -0.4543
   61SAPC  C313 4826   0.345   6.310   9.254  0.2122 -0.8288 -0.7863
   61SAPC  H13X 4827   0.443   6.269   9.222  0.3207  0.6650 -2.5713
   61SAPC  H13Y 4828   0.354   6.418   9.226 -0.3990 -1.1684 -2.4563
   61SAPC  C314 4829   0.230   6.251   9.175 -0.6452 -0.0497  0.4068
   61SAPC  H14X 4830   0.131   6.299   9.185  0.3784  2.1558  0.6010
   61SAPC  H14Y 4831   0.236   6.148   9.216  0.4880 -0.5679 -0.9630
   61SAPC  C315 4832   0.273   6.229   9.027 -0.4148 -0.4593 -0.1251
   61SAPC  H15X 4833   0.375   6.187   9.012 -0.5814 -1.5026  1.4501
   61SAPC  H15Y 4834   0.268   6.328   8.976 -2.4737  1.0196  2.6645
   61SAPC  C316 4835   0.175   6.139   8.952 -0.1113 -0.6083 -0.4930
   61SAPC  H16X 4836   0.068   6.164   8.970  0.0676 -0.9458  1.2605
   61SAPC  H16Y 4837   0.183   6.030   8.971 -0.0353 -1.0283 -2.7368
   61SAPC  C317 4838   0.188   6.150   8.803  0.0731 -0.1097 -0.7257
   61SAPC  H17X 4839   0.175   6.251   8.760 -0.8016  1.9140  3.6888
   61SAPC  H17Y 4840   0.116   6.069   8.776  0.4314 -1.0365  0.9597
   61SAPC  C318 4841   0.321   6.106   8.746  0.6647  0.4971 -1.1497
   61SAPC  H18X 4842   0.388   6.194   8.757 -1.7399  2.1303  1.9973
   61SAPC  H18Y 4843   0.314   6.086   8.637 -0.6430  1.0175 -1.1842
   61SAPC  H18Z 4844   0.362   6.017   8.800  2.1760  1.3623 -0.8210
   62SAPC     N 4845   5.736   6.341  10.778  0.6341 -0.3479  0.3419
   62SAPC   C12 4846   5.848   6.275  10.700 -0.6517 -0.4476 -0.9839
   62SAPC  H12A 4847   5.813   6.258  10.599  0.6838  4.1021 -2.4400
   62SAPC  H12B 4848   5.878   6.183  10.748 -1.6053  0.4511  1.5354
   62SAPC   C13 4849   5.704   6.476  10.732 -0.0909 -0.5394 -0.6596
   62SAPC  H13A 4850   5.624   6.512  10.795 -0.5635 -1.1946 -0.8669
   62SAPC  H13B 4851   5.787   6.543  10.750 -0.9398 -0.0689  1.9379
   62SAPC  H13C 4852   5.664   6.478  10.631  1.7461  0.4558 -1.4161
   62SAPC   C14 4853   5.614   6.261  10.773  0.6183  0.1859 -0.5351
   62SAPC  H14A 4854   5.642   6.160  10.799  2.4359  0.9404  0.6092
   62SAPC  H14B 4855   5.551   6.287  10.857  4.6277  0.8905  2.5754
   62SAPC  H14C 4856   5.568   6.260  10.675 -0.5750 -0.6997  0.0075
   62SAPC   C15 4857   5.780   6.346  10.924 -0.5677 -0.0750 -0.2281
   62SAPC  H15A 4858   5.700   6.376  10.991 -0.9525 -1.5344  0.0046
   62SAPC  H15B 4859   5.813   6.247  10.952 -2.2378 -0.6979 -0.3174
   62SAPC  H15C 4860   5.864   6.413  10.933 -0.0040 -0.9517  1.3438
   62SAPC   C11 4861   5.970   6.369  10.683 -0.6474 -0.4455  0.8159
   62SAPC  H11A 4862   5.947   6.464  10.630 -2.7867 -0.7388  1.1031
   62SAPC  H11B 4863   6.038   6.319  10.611  0.3899 -0.5789  1.8710
   62SAPC     P 4864   6.186   6.416  10.830 -0.1105 -0.1816  0.2711
   62SAPC   O13 4865   6.199   6.562  10.789 -0.8634  0.0236  0.0122
   62SAPC   O14 4866   6.247   6.383  10.961 -0.4825  0.0347  0.2018
   62SAPC   O12 4867   6.035   6.383  10.810 -0.1434  0.0125 -0.6618
   62SAPC   O11 4868   6.260   6.336  10.723 -0.2702  0.1431  0.6197
   62SAPC    C1 4869   6.288   6.194  10.716 -0.5265  0.0898  0.4451
   62SAPC    HA 4870   6.340   6.159  10.808  2.9442  0.8058 -1.1003
   62SAPC    HB 4871   6.189   6.145  10.706 -1.7509  2.2659  1.0321
   62SAPC    C2 4872   6.373   6.154  10.591 -0.0237 -0.0796 -0.0993
   62SAPC    HS 4873   6.469   6.209  10.581 -0.1143 -0.0134 -0.6478
   62SAPC   O21 4874   6.301   6.168  10.464  0.2190 -0.2750 -0.2526
   62SAPC   C21 4875   6.299   6.291  10.419 -0.1587  0.4092 -0.1072
   62SAPC   O22 4876   6.379   6.379  10.444  0.1139  0.2763 -0.7337
   62SAPC   C22 4877   6.177   6.315  10.327  0.0516 -0.7494 -0.1888
   62SAPC   H2R 4878   6.092   6.255  10.367 -0.5523 -0.9281 -1.7009
   62SAPC   H2S 4879   6.158   6.424  10.333  0.2047 -0.7825  1.8809
   62SAPC    C3 4880   6.412   6.006  10.604 -0.6819  0.3247  0.3401
   62SAPC    HX 4881   6.322   5.943  10.590 -0.0557 -0.2770 -1.1160
   62SAPC    HY 4882   6.437   5.983  10.710 -1.9579  1.4195  0.9126
   62SAPC   O31 4883   6.493   5.945  10.502 -0.1564 -0.5074 -0.4802
   62SAPC   C31 4884   6.631   5.958  10.524  0.4300 -0.6856 -0.8593
   62SAPC   O32 4885   6.681   6.009  10.621 -0.0306 -0.5730 -0.8823
   62SAPC   C32 4886   6.694   5.900  10.402 -0.4829  0.0623 -0.0020
   62SAPC   H2X 4887   6.620   5.848  10.337  1.5731 -2.1327 -0.7335
   62SAPC   H2Y 4888   6.765   5.823  10.439  0.9380  0.2569 -2.1656
   62SAPC   C23 4889   6.195   6.254  10.188  0.0750 -0.1224 -0.2031
   62SAPC   H3R 4890   6.156   6.151  10.175 -1.4128  0.4061 -0.1565
   62SAPC   H3S 4891   6.303   6.256  10.161  0.3444  1.7108  0.8545
   62SAPC   C24 4892   6.135   6.348  10.079 -0.4339 -0.0786 -0.7174
   62SAPC   H4R 4893   6.180   6.308   9.985 -0.3155 -2.0934  0.1455
   62SAPC   H4S 4894   6.170   6.454  10.084 -1.4878  0.2442  0.1340
   62SAPC   C25 4895   5.984   6.341  10.081  0.4055  0.1145 -0.6024
   62SAPC   H5R 4896   5.949   6.389  10.173  0.1692 -0.4139 -0.4181
   62SAPC   C26 4897   5.903   6.289   9.985 -0.1193 -0.6483 -1.2448
   62SAPC   H6R 4898   5.796   6.288  10.008  0.3097  0.1776  1.0726
   62SAPC   C27 4899   5.947   6.221   9.853 -0.3538 -0.0843 -0.4785
   62SAPC   H7R 4900   6.054   6.195   9.870 -0.1277  1.6845  1.1801
   62SAPC   H7S 4901   5.932   6.289   9.766  0.2077 -0.9078 -1.2331
   62SAPC   C28 4902   5.853   6.103   9.836 -0.0146  0.2775 -0.0778
   62SAPC   H8R 4903   5.815   6.055   9.927 -2.0899 -0.8709 -1.4764
   62SAPC   C29 4904   5.828   6.040   9.718  0.0734 -0.0957 -0.2087
   62SAPC   H9R 4905   5.768   5.949   9.717  0.2856 -0.2592  0.8201
   62SAPC  C210 4906   5.897   6.085   9.592  0.1951  0.5333 -0.2179
   62SAPC  H10R 4907   6.005   6.086   9.619 -0.0286 -0.4401  0.8008
   62SAPC  H10S 4908   5.865   6.187   9.561 -2.6163  0.1584  1.1772
   62SAPC  C211 4909   5.892   5.989   9.473  0.5458  0.3969  0.0092
   62SAPC  H11R 4910   5.969   5.911   9.474  0.3228  0.1232  2.2596
   62SAPC  C212 4911   5.794   5.977   9.372 -0.0815 -0.1067  0.2366
   62SAPC  H12R 4912   5.801   5.879   9.322  1.1225  0.7807 -1.4084
   62SAPC  C213 4913   5.669   6.057   9.343  0.6275  0.4454 -0.5885
   62SAPC  H13R 4914   5.697   6.150   9.290  1.9131  1.1302  1.1804
   62SAPC  H13S 4915   5.640   6.102   9.440  0.8342  1.2474 -0.8927
   62SAPC  C214 4916   5.538   5.987   9.301  0.5061  0.4425  0.1520
   62SAPC  H14R 4917   5.492   5.907   9.360 -0.9373  0.9751 -0.2051
   62SAPC  C215 4918   5.477   6.017   9.183 -0.1285 -0.4233 -0.4978
   62SAPC  H15R 4919   5.387   5.962   9.152 -0.0819 -1.8246  1.6282
   62SAPC  C216 4920   5.543   6.117   9.091  0.0402 -0.3677 -0.0773
   62SAPC  H16R 4921   5.653   6.112   9.079 -0.0635  0.6943 -1.9023
   62SAPC  H16S 4922   5.519   6.219   9.128 -0.5663 -0.6709  0.3805
   62SAPC  C217 4923   5.486   6.104   8.944  0.6794  0.0049 -0.4411
   62SAPC  H17R 4924   5.377   6.103   8.967  1.1515 -0.0859  2.1206
   62SAPC  H17S 4925   5.502   6.004   8.899 -2.0189 -0.1391 -1.2508
   62SAPC  C218 4926   5.522   6.221   8.855 -0.3021  0.0225 -0.4036
   62SAPC  H18R 4927   5.490   6.324   8.880  0.1027  0.5732 -2.0529
   62SAPC  H18S 4928   5.483   6.213   8.751 -2.1577  1.8438  0.0789
   62SAPC  C219 4929   5.677   6.225   8.821  0.5792 -0.2359 -0.1650
   62SAPC  H19R 4930   5.736   6.198   8.911  0.8266  1.0629  0.0875
   62SAPC  H19S 4931   5.700   6.328   8.787 -0.0361  0.0601  0.2986
   62SAPC  C220 4932   5.722   6.130   8.711 -0.1851 -0.1037 -0.4885
   62SAPC  H20R 4933   5.672   6.142   8.613  0.1580 -0.3297 -0.6957
   62SAPC  H20S 4934   5.700   6.022   8.730  0.9425 -0.8096 -2.8171
   62SAPC  H20T 4935   5.833   6.142   8.709  0.0192 -1.6977 -0.8628
   62SAPC   C33 4936   6.778   6.005  10.332  0.2608 -0.2255 -0.8702
   62SAPC   H3X 4937   6.857   5.956  10.272 -1.5136 -1.1083 -2.6370
   62SAPC   H3Y 4938   6.833   6.062  10.409  1.3445  0.4062 -2.0837
   62SAPC   C34 4939   6.702   6.105  10.248 -0.2427  0.3734  0.2191
   62SAPC   H4X 4940   6.772   6.185  10.214 -0.8261  0.5810 -0.5095
   62SAPC   H4Y 4941   6.631   6.157  10.316 -2.4145 -0.5872 -1.2410
   62SAPC   C35 4942   6.638   6.045  10.126  0.3375  0.9705 -0.3100
   62SAPC   H5X 4943   6.565   6.109  10.073 -0.7444 -0.0875 -0.1226
   62SAPC   H5Y 4944   6.584   5.955  10.161  3.1532 -1.1212 -0.9909
   62SAPC   C36 4945   6.739   5.989  10.026  0.1919  0.5361  0.0281
   62SAPC   H6X 4946   6.793   5.907  10.078 -1.4890 -0.1847  0.6949
   62SAPC   H6Y 4947   6.800   6.076   9.995  0.6701  0.7740  1.5613
   62SAPC   C37 4948   6.674   5.934   9.898 -0.7573  0.0189  0.8777
   62SAPC   H7X 4949   6.598   5.857   9.921 -1.1563  0.2537  0.3627
   62SAPC   H7Y 4950   6.752   5.875   9.846 -0.3462  1.5351 -0.3165
   62SAPC   C38 4951   6.617   6.038   9.809 -0.0161  0.3491  0.4493
   62SAPC   H8X 4952   6.691   6.121   9.798  0.5789 -0.4542 -2.2337
   62SAPC   H8Y 4953   6.524   6.087   9.846 -1.3836 -1.5695 -0.3257
   62SAPC   C39 4954   6.589   5.983   9.672  0.4433 -0.0560  0.3320
   62SAPC   H9X 4955   6.519   5.897   9.673 -1.0283  1.1101  1.7417
   62SAPC   H9Y 4956   6.685   5.965   9.618 -0.6795  1.5926 -2.4321
   62SAPC  C310 4957   6.519   6.095   9.589  0.1829  0.4391  0.2071
   62SAPC  H10X 4958   6.577   6.188   9.571  0.6694 -0.2526 -2.1019
   62SAPC  H10Y 4959   6.424   6.111   9.646 -0.2932  0.2191 -0.5143
   62SAPC  C311 4960   6.491   6.051   9.441  0.0804 -0.1707 -0.2478
   62SAPC  H11X 4961   6.459   5.945   9.442  2.0957 -0.8291  0.3088
   62SAPC  H11Y 4962   6.583   6.059   9.379 -0.3564  1.2996 -0.7328
   62SAPC  C312 4963   6.394   6.149   9.372 -0.4632 -0.4307 -0.0118
   62SAPC  H12X 4964   6.431   6.254   9.377 -1.1137  0.0284 -2.9802
   62SAPC  H12Y 4965   6.310   6.148   9.445 -1.3989  0.6926 -1.0146
   62SAPC  C313 4966   6.347   6.100   9.234 -0.0856  0.0372  0.2993
   62SAPC  H13X 4967   6.419   6.091   9.150 -0.8300  2.3856 -0.6776
   62SAPC  H13Y 4968   6.279   6.174   9.186 -0.6442 -1.4364 -1.2343
   62SAPC  C314 4969   6.283   5.959   9.240  0.4897  0.2285  0.6813
   62SAPC  H14X 4970   6.219   5.957   9.331 -2.4184  2.3733 -1.1213
   62SAPC  H14Y 4971   6.360   5.880   9.247 -0.2580 -0.4730  1.2727
   62SAPC  C315 4972   6.191   5.917   9.125 -0.3143 -0.6598 -0.5398
   62SAPC  H15X 4973   6.149   5.814   9.121 -0.2948 -0.6437 -1.1268
   62SAPC  H15Y 4974   6.249   5.931   9.032 -1.0782 -1.5802 -1.1703
   62SAPC  C316 4975   6.076   6.014   9.117 -0.1045 -0.5133 -0.5368
   62SAPC  H16X 4976   6.106   6.115   9.081  0.4143 -1.3669 -2.6551
   62SAPC  H16Y 4977   6.021   6.031   9.212  1.9489 -1.6100  0.9273
   62SAPC  C317 4978   5.958   5.964   9.018 -0.1832 -0.3946  0.8690
   62SAPC  H17X 4979   5.884   6.047   9.011 -1.4030 -1.4536  0.8560
   62SAPC  H17Y 4980   5.911   5.865   9.039 -0.4673 -0.2099  1.1139
   62SAPC  C318 4981   6.018   5.951   8.876  0.1763  0.3568  0.1703
   62SAPC  H18X 4982   6.092   6.028   8.845 -0.2395  0.5331 -0.4092
   62SAPC  H18Y 4983   5.937   5.959   8.801 -0.2094  0.7544  0.6150
   62SAPC  H18Z 4984   6.071   5.855   8.861 -0.0862  0.0693  1.0135
   63SAPC     N 4985   2.333   0.385   6.057 -0.4504 -0.2912 -0.6317
   63SAPC   C12 4986   2.368   0.528   6.105  0.1500  0.5436 -0.2262
   63SAPC  H12A 4987   2.309   0.598   6.048  1.5258  0.8792 -1.2871
   63SAPC  H12B 4988   2.474   0.548   6.099  0.3246  0.5214  1.8719
   63SAPC   C13 4989   2.392   0.383   5.914 -0.2906 -0.0467 -0.7098
   63SAPC  H13A 4990   2.342   0.306   5.858  1.7715 -1.1852 -1.0941
   63SAPC  H13B 4991   2.374   0.484   5.879 -3.2629  0.2964  1.4398
   63SAPC  H13C 4992   2.499   0.370   5.913 -0.1882  0.6052  0.1952
   63SAPC   C14 4993   2.377   0.273   6.147 -0.1027  0.3168  0.0359
   63SAPC  H14A 4994   2.475   0.285   6.192  1.4976 -1.2414 -2.7514
   63SAPC  H14B 4995   2.313   0.274   6.234 -1.3089 -1.4363 -0.7687
   63SAPC  H14C 4996   2.374   0.175   6.103 -0.6093  0.5322 -0.4229
   63SAPC   C15 4997   2.187   0.379   6.036 -0.7171  0.1858  0.1027
   63SAPC  H15A 4998   2.139   0.373   6.132  1.0348  2.7922  1.2370
   63SAPC  H15B 4999   2.155   0.459   5.971  1.4826  1.3954  0.4081
   63SAPC  H15C 5000   2.158   0.285   5.991  0.5019 -0.0452 -0.2413
   63SAPC   C11 5001   2.336   0.553   6.256  0.5793 -0.3740 -0.4171
   63SAPC  H11A 5002   2.370   0.652   6.293 -2.5093  0.3376  0.9163
   63SAPC  H11B 5003   2.383   0.478   6.322  2.6918  0.3435 -1.0328
   63SAPC     P 5004   2.097   0.657   6.318  0.0497  0.1438 -0.3716
   63SAPC   O13 5005   2.080   0.752   6.207 -0.0242  0.0333  0.0622
   63SAPC   O14 5006   1.969   0.606   6.368  0.3069 -0.3237 -0.2701
   63SAPC   O12 5007   2.193   0.543   6.282  0.4740  0.2487  0.4692
   63SAPC   O11 5008   2.174   0.729   6.437 -0.3403 -0.0192  0.3122
   63SAPC    C1 5009   2.134   0.699   6.572  0.2815 -0.6611  0.3456
   63SAPC    HA 5010   2.084   0.788   6.615 -2.4090 -2.1784  0.5467
   63SAPC    HB 5011   2.063   0.614   6.578 -0.4929 -0.2308 -1.7480
   63SAPC    C2 5012   2.253   0.660   6.659 -0.3229 -0.2677  0.1308
   63SAPC    HS 5013   2.298   0.566   6.621 -2.9318 -0.0172 -4.3381
   63SAPC   O21 5014   2.217   0.657   6.802 -0.2322 -0.6021 -0.5563
   63SAPC   C21 5015   2.301   0.579   6.876  0.1569 -0.7349  0.4242
   63SAPC   O22 5016   2.386   0.506   6.838 -0.1642  0.4738 -0.1961
   63SAPC   C22 5017   2.259   0.599   7.023  0.4928  0.5870  0.7203
   63SAPC   H2R 5018   2.155   0.638   7.030  0.3333  0.1810  0.6027
   63SAPC   H2S 5019   2.262   0.494   7.058  2.1326 -0.7080 -2.8408
   63SAPC    C3 5020   2.365   0.769   6.619  0.1453 -0.2607 -0.7400
   63SAPC    HX 5021   2.311   0.865   6.624  1.0182  0.2587 -1.0723
   63SAPC    HY 5022   2.399   0.759   6.514 -0.2383 -0.6596 -0.8325
   63SAPC   O31 5023   2.465   0.775   6.723 -0.2491  0.3240 -0.3801
   63SAPC   C31 5024   2.575   0.696   6.698  0.5012  0.0973 -0.2602
   63SAPC   O32 5025   2.579   0.619   6.602 -0.1469  0.4518 -0.3045
   63SAPC   C32 5026   2.677   0.705   6.810 -0.6447 -0.4285  1.0151
   63SAPC   H2X 5027   2.771   0.739   6.762  0.3239 -4.6634 -0.5837
   63SAPC   H2Y 5028   2.694   0.604   6.852  0.5063 -0.4064  0.6362
   63SAPC   C23 5029   2.356   0.689   7.114  0.6537  0.5183  0.7738
   63SAPC   H3R 5030   2.346   0.798   7.093 -1.1576 -0.0239 -1.6459
   63SAPC   H3S 5031   2.459   0.650   7.097  0.2984 -0.4482  0.7760
   63SAPC   C24 5032   2.350   0.641   7.267  0.3489 -0.1879 -0.3020
   63SAPC   H4R 5033   2.362   0.531   7.276  1.7332  0.0408  1.2611
   63SAPC   H4S 5034   2.243   0.661   7.291  0.3293 -2.0170  1.4652
   63SAPC   C25 5035   2.446   0.709   7.364 -0.1267  0.4191  0.2711
   63SAPC   H5R 5036   2.547   0.687   7.328 -1.0292 -0.5981 -1.7505
   63SAPC   C26 5037   2.416   0.789   7.472 -0.4110 -0.4001  0.0357
   63SAPC   H6R 5038   2.501   0.819   7.534  0.2290 -0.8993 -0.5813
   63SAPC   C27 5039   2.285   0.825   7.529 -0.4406  0.1161  0.1518
   63SAPC   H7R 5040   2.288   0.789   7.634  2.0068  1.0478  0.4537
   63SAPC   H7S 5041   2.197   0.776   7.482  0.8749 -1.5563 -0.6737
   63SAPC   C28 5042   2.266   0.974   7.538  0.6573  0.3584  0.4473
   63SAPC   H8R 5043   2.248   1.016   7.438  0.9841 -1.1946 -0.3086
   63SAPC   C29 5044   2.287   1.049   7.652 -0.1817 -0.0956  0.3293
   63SAPC   H9R 5045   2.282   1.158   7.640 -0.6619 -0.2296 -0.8099
   63SAPC  C210 5046   2.329   1.004   7.788 -0.0130 -0.3748  0.3248
   63SAPC  H10R 5047   2.352   1.097   7.846  0.3019  0.3550 -0.9335
   63SAPC  H10S 5048   2.418   0.940   7.768  0.2271  0.7452 -2.7129
   63SAPC  C211 5049   2.216   0.931   7.854 -0.2190 -0.6158 -0.7699
   63SAPC  H11R 5050   2.119   0.941   7.804 -0.1661 -1.6310 -1.0941
   63SAPC  C212 5051   2.231   0.854   7.964 -0.0684  0.1881  0.5139
   63SAPC  H12R 5052   2.143   0.834   8.027  0.2091  1.8914  1.5192
   63SAPC  C213 5053   2.356   0.837   8.034 -0.9148  0.2077 -0.3309
   63SAPC  H13R 5054   2.441   0.855   7.965 -0.3585 -0.3796  0.1924
   63SAPC  H13S 5055   2.352   0.734   8.075  0.5692  0.0036 -0.6461
   63SAPC  C214 5056   2.363   0.928   8.153 -0.5712 -0.2338  0.0687
   63SAPC  H14R 5057   2.337   1.034   8.138  0.7301 -0.0688 -1.2729
   63SAPC  C215 5058   2.429   0.899   8.267 -0.2221 -0.0574  0.5312
   63SAPC  H15R 5059   2.422   0.968   8.352 -0.2410 -0.8937  1.2169
   63SAPC  C216 5060   2.508   0.778   8.305  0.6090 -0.0959 -0.3871
   63SAPC  H16R 5061   2.503   0.713   8.215  0.6736  1.2011 -1.3420
   63SAPC  H16S 5062   2.458   0.726   8.390 -0.8328  0.5643 -0.8059
   63SAPC  C217 5063   2.657   0.815   8.343  0.3267 -0.1912  0.3821
   63SAPC  H17R 5064   2.723   0.851   8.261  1.5935 -0.0824  1.4039
   63SAPC  H17S 5065   2.711   0.719   8.359  0.7859 -0.1956 -1.0426
   63SAPC  C218 5066   2.677   0.913   8.465 -0.0878 -0.3242 -0.2986
   63SAPC  H18R 5067   2.740   0.865   8.543 -0.8384 -1.4173 -0.3467
   63SAPC  H18S 5068   2.587   0.942   8.522  1.4450  2.1360  1.0481
   63SAPC  C219 5069   2.738   1.044   8.404  0.0158  0.2686  0.9300
   63SAPC  H19R 5070   2.671   1.091   8.329  0.8596 -1.3009 -0.8971
   63SAPC  H19S 5071   2.830   1.011   8.351  0.2500 -0.6300  1.8787
   63SAPC  C220 5072   2.794   1.144   8.510  0.1645  0.3559 -0.0229
   63SAPC  H20R 5073   2.821   1.237   8.455  2.3735  0.7280  1.5538
   63SAPC  H20S 5074   2.887   1.114   8.562 -1.7175 -0.5021  3.0906
   63SAPC  H20T 5075   2.721   1.180   8.585  0.6981  0.7975  0.2851
   63SAPC   C33 5076   2.649   0.811   6.920  0.0150  0.7084 -0.0908
   63SAPC   H3X 5077   2.546   0.796   6.960 -0.2584 -0.6900 -1.2467
   63SAPC   H3Y 5078   2.647   0.914   6.877 -0.3746  1.1810  1.0311
   63SAPC   C34 5079   2.746   0.802   7.034 -0.1607 -0.4150  0.1137
   63SAPC   H4X 5080   2.846   0.831   6.995 -1.3238  0.6453 -2.2629
   63SAPC   H4Y 5081   2.753   0.702   7.083 -0.3250 -0.8538 -0.7378
   63SAPC   C35 5082   2.712   0.898   7.150  0.3634  0.3442  0.2127
   63SAPC   H5X 5083   2.601   0.907   7.145  0.2219  1.6182  3.3538
   63SAPC   H5Y 5084   2.754   0.998   7.124  1.0977  0.4492  1.6974
   63SAPC   C36 5085   2.774   0.873   7.292  0.4701 -0.3079 -0.2250
   63SAPC   H6X 5086   2.884   0.859   7.286  0.3643 -1.3339  0.0159
   63SAPC   H6Y 5087   2.743   0.777   7.338 -2.4587  0.1225 -1.0880
   63SAPC   C37 5088   2.732   0.984   7.380  0.0946  0.0884 -0.3795
   63SAPC   H7X 5089   2.622   0.995   7.387  0.2464  2.4507 -0.7590
   63SAPC   H7Y 5090   2.757   1.083   7.335  2.4842  0.0213  0.6502
   63SAPC   C38 5091   2.795   0.973   7.517 -0.0920 -0.0656 -0.1300
   63SAPC   H8X 5092   2.888   1.034   7.515  0.1264 -0.4126 -0.9333
   63SAPC   H8Y 5093   2.810   0.868   7.548 -0.9899 -0.1026  0.2122
   63SAPC   C39 5094   2.701   1.037   7.627  0.1001  0.4424 -0.8356
   63SAPC   H9X 5095   2.609   0.976   7.637  0.7844 -0.4540  0.4811
   63SAPC   H9Y 5096   2.665   1.133   7.584  0.0200 -0.2714 -2.4220
   63SAPC  C310 5097   2.772   1.048   7.765 -0.1402 -0.3568  0.0885
   63SAPC  H10X 5098   2.854   1.121   7.751 -1.0599  0.7143  0.0943
   63SAPC  H10Y 5099   2.825   0.955   7.795  1.5214 -0.0448 -1.7158
   63SAPC  C311 5100   2.667   1.092   7.873  0.0127  0.4360  0.1633
   63SAPC  H11X 5101   2.586   1.016   7.874  0.4188 -0.0577 -1.2992
   63SAPC  H11Y 5102   2.616   1.184   7.839 -1.5011  0.2182  1.7139
   63SAPC  C312 5103   2.725   1.099   8.020 -0.5705  0.0213 -0.2999
   63SAPC  H12X 5104   2.751   0.998   8.059 -2.5553  0.7676  3.3126
   63SAPC  H12Y 5105   2.643   1.124   8.090  0.1340 -1.0635  0.9520
   63SAPC  C313 5106   2.829   1.199   8.051  0.0378 -0.0500 -0.0034
   63SAPC  H13X 5107   2.920   1.168   7.994 -0.5881 -0.7408 -0.6501
   63SAPC  H13Y 5108   2.851   1.196   8.160  0.2171  0.7594 -0.0116
   63SAPC  C314 5109   2.809   1.346   8.023  0.2310  0.2512 -0.4720
   63SAPC  H14X 5110   2.719   1.377   8.080  0.3069  1.9212 -1.2034
   63SAPC  H14Y 5111   2.786   1.372   7.917 -0.9125 -0.6253 -0.4594
   63SAPC  C315 5112   2.929   1.434   8.063  0.6232 -0.4553  0.2930
   63SAPC  H15X 5113   2.896   1.539   8.048 -0.6640 -0.8080  0.5119
   63SAPC  H15Y 5114   3.007   1.423   7.985 -0.8207  0.5960 -1.3809
   63SAPC  C316 5115   2.974   1.420   8.200  0.4200  0.5090 -0.0938
   63SAPC  H16X 5116   3.017   1.319   8.219 -0.6710 -0.0983 -0.7932
   63SAPC  H16Y 5117   2.885   1.425   8.266 -1.4074 -1.8627 -2.1903
   63SAPC  C317 5118   3.073   1.528   8.238 -0.6190 -0.1053 -0.6107
   63SAPC  H17X 5119   3.053   1.627   8.190  0.9014 -0.3129 -1.7688
   63SAPC  H17Y 5120   3.169   1.493   8.194 -1.3684  0.8548 -3.1977
   63SAPC  C318 5121   3.096   1.562   8.386 -0.2874 -0.2605  0.2850
   63SAPC  H18X 5122   3.001   1.592   8.434 -0.5071  0.7579 -0.7457
   63SAPC  H18Y 5123   3.165   1.649   8.395 -0.7656 -0.0167  2.1422
   63SAPC  H18Z 5124   3.147   1.478   8.439 -0.5040 -0.6515 -0.1233
   64SAPC     N 5125   4.036   4.768   5.925 -0.0006  0.2757  0.3634
   64SAPC   C12 5126   3.968   4.709   6.050 -0.0163  0.0330  0.0975
   64SAPC  H12A 5127   4.034   4.646   6.109  1.8668  0.8477 -1.0307
   64SAPC  H12B 5128   3.896   4.641   6.006 -1.3123  0.5286  1.3951
   64SAPC   C13 5129   3.931   4.846   5.840 -0.7288 -0.3704 -0.5422
   64SAPC  H13A 5130   3.973   4.893   5.752 -3.4900 -0.8472 -2.2491
   64SAPC  H13B 5131   3.872   4.771   5.789  0.7056 -0.2499 -2.5335
   64SAPC  H13C 5132   3.872   4.916   5.897  0.8581  1.7293 -1.3373
   64SAPC   C14 5133   4.156   4.856   5.954 -0.1057  0.7611  0.0789
   64SAPC  H14A 5134   4.123   4.935   6.019 -2.9543 -1.0274  0.9697
   64SAPC  H14B 5135   4.233   4.793   5.996  1.2121 -1.0987 -4.4513
   64SAPC  H14C 5136   4.189   4.899   5.861 -3.0097 -1.1917 -2.0576
   64SAPC   C15 5137   4.082   4.665   5.831 -0.4386  0.0337  0.4138
   64SAPC  H15A 5138   4.129   4.705   5.742 -2.3191 -2.5626 -1.9298
   64SAPC  H15B 5139   4.158   4.599   5.869 -1.2080 -1.7653 -0.9863
   64SAPC  H15C 5140   3.997   4.609   5.793 -0.3154  0.8928 -1.2102
   64SAPC   C11 5141   3.896   4.803   6.145  0.2973 -0.4481 -0.2054
   64SAPC  H11A 5142   3.874   4.728   6.224 -1.1466 -2.8325 -2.6830
   64SAPC  H11B 5143   3.795   4.823   6.101  0.5392 -3.4908 -2.4056
   64SAPC     P 5144   3.914   5.056   6.218  0.5750  0.6596 -0.0272
   64SAPC   O13 5145   4.015   5.160   6.192  0.2890  0.2422 -0.0497
   64SAPC   O14 5146   3.777   5.072   6.162  0.5023 -0.2150 -0.3164
   64SAPC   O12 5147   3.975   4.916   6.185  0.5034 -0.6134  0.1517
   64SAPC   O11 5148   3.903   5.059   6.381 -0.9370  0.9458  0.3202
   64SAPC    C1 5149   3.968   4.967   6.469  0.1899  0.0241  0.0986
   64SAPC    HA 5150   3.888   4.919   6.530  1.1612 -4.4927 -1.7960
   64SAPC    HB 5151   4.009   4.875   6.421 -0.5860  0.4356 -1.3928
   64SAPC    C2 5152   4.076   5.030   6.565  0.7992 -0.0565  0.6212
   64SAPC    HS 5153   4.116   4.949   6.629 -2.4698 -2.7751 -0.4548
   64SAPC   O21 5154   4.029   5.141   6.642  0.3889 -0.2688 -0.4493
   64SAPC   C21 5155   4.079   5.162   6.759 -0.0504  0.1699  0.2092
   64SAPC   O22 5156   4.154   5.087   6.822  0.1889 -0.6991  0.5111
   64SAPC   C22 5157   4.041   5.307   6.797  0.2567  0.0514 -0.4181
   64SAPC   H2R 5158   4.086   5.381   6.728  1.0086 -2.0218 -2.2693
   64SAPC   H2S 5159   3.930   5.307   6.785  0.1897  3.2321 -0.5607
   64SAPC    C3 5160   4.196   5.073   6.472 -0.2369  0.0914  0.4588
   64SAPC    HX 5161   4.177   5.159   6.404  0.8219  1.2774  1.5869
   64SAPC    HY 5162   4.215   4.994   6.397 -1.7038 -0.6294  0.8235
   64SAPC   O31 5163   4.319   5.093   6.550  0.3210 -0.4493  0.0433
   64SAPC   C31 5164   4.378   5.208   6.530  0.2527 -0.7188 -0.5673
   64SAPC   O32 5165   4.338   5.300   6.460 -0.5581  0.3606 -0.4538
   64SAPC   C32 5166   4.511   5.227   6.613 -0.3172  0.1173 -0.1259
   64SAPC   H2X 5167   4.582   5.279   6.545  0.2359 -1.9010 -1.1470
   64SAPC   H2Y 5168   4.555   5.127   6.628 -1.7599 -0.9184 -2.3337
   64SAPC   C23 5169   4.066   5.358   6.938  0.0105  0.0922 -0.8439
   64SAPC   H3R 5170   4.174   5.339   6.955 -0.2273 -1.2484 -0.7214
   64SAPC   H3S 5171   4.014   5.286   7.005 -1.5253  0.5091 -1.5425
   64SAPC   C24 5172   4.028   5.505   6.973  0.4839  0.4315  0.0905
   64SAPC   H4R 5173   3.931   5.515   7.026  0.8774  1.7176  0.6079
   64SAPC   H4S 5174   4.034   5.566   6.880 -0.4973 -0.1853 -0.4015
   64SAPC   C25 5175   4.124   5.567   7.066  0.9103 -0.6031 -0.9197
   64SAPC   H5R 5176   4.225   5.573   7.023  1.1457  0.4530 -0.2621
   64SAPC   C26 5177   4.100   5.621   7.186  0.2252  0.8135 -0.6438
   64SAPC   H6R 5178   4.186   5.664   7.239  0.6563  0.8604 -1.3723
   64SAPC   C27 5179   3.975   5.637   7.269 -0.2522 -0.6473 -0.5905
   64SAPC   H7R 5180   3.883   5.670   7.215 -1.9841  0.6367  2.8137
   64SAPC   H7S 5181   3.988   5.721   7.340 -0.2708  1.3148 -2.7951
   64SAPC   C28 5182   3.952   5.534   7.375 -0.0750  0.1617 -0.1596
   64SAPC   H8R 5183   4.049   5.496   7.411  0.0620 -0.3944 -1.0799
   64SAPC   C29 5184   3.831   5.497   7.430 -0.3970  0.4166  0.3369
   64SAPC   H9R 5185   3.840   5.422   7.510  0.8853  1.0322  0.7945
   64SAPC  C210 5186   3.702   5.562   7.388  0.3003 -0.2758 -0.4305
   64SAPC  H10R 5187   3.703   5.672   7.401 -0.3769 -0.3904  0.7699
   64SAPC  H10S 5188   3.627   5.541   7.466 -0.3030  1.8492 -0.3788
   64SAPC  C211 5189   3.641   5.543   7.248 -0.6566 -0.5111 -0.4837
   64SAPC  H11R 5190   3.683   5.599   7.163  2.1909 -4.2646 -1.8308
   64SAPC  C212 5191   3.534   5.464   7.225  0.3132 -0.6450 -0.1984
   64SAPC  H12R 5192   3.499   5.459   7.121 -2.3781  0.8157  0.5300
   64SAPC  C213 5193   3.467   5.379   7.325 -0.1285  0.3880 -0.1449
   64SAPC  H13R 5194   3.525   5.368   7.420 -1.9687 -1.1069  0.8639
   64SAPC  H13S 5195   3.448   5.276   7.289 -1.2490  0.9099 -1.1020
   64SAPC  C214 5196   3.347   5.448   7.381 -0.5031  0.1278 -0.8366
   64SAPC  H14R 5197   3.271   5.452   7.302 -0.2581 -1.3023 -1.1651
   64SAPC  C215 5198   3.310   5.494   7.501 -0.0691 -1.2639 -0.3759
   64SAPC  H15R 5199   3.205   5.524   7.503  0.5750  1.1759 -0.4716
   64SAPC  C216 5200   3.396   5.493   7.625  0.7232 -0.1236  0.4618
   64SAPC  H16R 5201   3.456   5.585   7.641  0.7247  0.2684 -1.4823
   64SAPC  H16S 5202   3.468   5.410   7.611  0.9425 -0.2313  2.0530
   64SAPC  C217 5203   3.297   5.453   7.735  0.8218 -0.7255  0.2777
   64SAPC  H17R 5204   3.259   5.349   7.729 -0.0923 -0.3721 -0.3285
   64SAPC  H17S 5205   3.206   5.517   7.735  1.0078 -0.3758  2.4505
   64SAPC  C218 5206   3.344   5.460   7.879  0.0346  0.2487 -0.1848
   64SAPC  H18R 5207   3.437   5.521   7.878  0.8991 -0.9916 -2.0764
   64SAPC  H18S 5208   3.372   5.358   7.914 -0.8771  0.0092 -0.1056
   64SAPC  C219 5209   3.233   5.505   7.969  1.0524  0.1279  0.4914
   64SAPC  H19R 5210   3.183   5.596   7.929 -0.3671 -0.2361  1.3668
   64SAPC  H19S 5211   3.270   5.527   8.072 -0.6121 -1.0191  1.3786
   64SAPC  C220 5212   3.118   5.402   7.965 -0.1275  0.4518 -0.0874
   64SAPC  H20R 5213   3.161   5.300   7.971 -1.4797 -0.0755  1.2384
   64SAPC  H20S 5214   3.060   5.403   7.870 -0.8293 -2.2188  0.2434
   64SAPC  H20T 5215   3.047   5.425   8.047  0.9024  2.4966  0.3147
   64SAPC   C33 5216   4.479   5.292   6.745  0.3877  0.3887  0.4263
   64SAPC   H3X 5217   4.405   5.230   6.799 -0.8877  0.0448 -1.6595
   64SAPC   H3Y 5218   4.425   5.388   6.731 -1.2075 -0.7679 -1.8105
   64SAPC   C34 5219   4.601   5.331   6.825 -0.0035 -0.0763  0.6064
   64SAPC   H4X 5220   4.663   5.405   6.770  1.2627 -1.9769 -0.6409
   64SAPC   H4Y 5221   4.663   5.238   6.822  2.3378  1.4011 -1.5999
   64SAPC   C35 5222   4.589   5.390   6.975 -0.2656 -0.6304  0.2362
   64SAPC   H5X 5223   4.693   5.405   7.012 -0.0862 -1.8877  0.3136
   64SAPC   H5Y 5224   4.546   5.309   7.038 -0.4514 -0.4171  0.3823
   64SAPC   C36 5225   4.531   5.535   6.988 -0.1552 -0.2555  0.2462
   64SAPC   H6X 5226   4.424   5.538   6.957  0.1400  0.8675 -0.7746
   64SAPC   H6Y 5227   4.579   5.604   6.915 -0.2004  1.4308  1.7292
   64SAPC   C37 5228   4.543   5.602   7.125  0.3114 -0.2459 -0.3779
   64SAPC   H7X 5229   4.492   5.700   7.115  1.0896  0.0813 -1.2757
   64SAPC   H7Y 5230   4.652   5.612   7.142  0.5360  1.2480 -2.3869
   64SAPC   C38 5231   4.492   5.527   7.254 -0.0343 -0.2951  0.8230
   64SAPC   H8X 5232   4.522   5.421   7.241 -1.0484 -1.0584  3.8924
   64SAPC   H8Y 5233   4.381   5.518   7.258 -0.2966  1.3258 -1.0032
   64SAPC   C39 5234   4.541   5.582   7.383 -0.7630 -0.7585  0.4062
   64SAPC   H9X 5235   4.496   5.683   7.392 -0.2809 -0.4722 -0.2491
   64SAPC   H9Y 5236   4.652   5.584   7.371 -0.9895  0.0389 -2.3498
   64SAPC  C310 5237   4.523   5.505   7.518 -0.3851  0.0918 -0.1622
   64SAPC  H10X 5238   4.578   5.408   7.520 -0.1939  0.1980 -0.3169
   64SAPC  H10Y 5239   4.415   5.485   7.532  0.0542 -2.9974 -0.4556
   64SAPC  C311 5240   4.579   5.597   7.632  0.2776 -0.2158  0.2908
   64SAPC  H11X 5241   4.534   5.697   7.620  1.0357  0.3884  2.1335
   64SAPC  H11Y 5242   4.685   5.628   7.626  0.0825  0.2874 -0.8191
   64SAPC  C312 5243   4.563   5.547   7.777  0.4072  0.3883  0.1655
   64SAPC  H12X 5244   4.613   5.448   7.782 -0.4401 -0.0340  0.4884
   64SAPC  H12Y 5245   4.461   5.529   7.815  1.1460 -0.5647  1.8300
   64SAPC  C313 5246   4.633   5.628   7.887 -0.5571 -0.6618  0.4220
   64SAPC  H13X 5247   4.600   5.734   7.883 -0.2543 -0.6038 -1.2367
   64SAPC  H13Y 5248   4.739   5.643   7.858 -0.7536  0.0702  0.0733
   64SAPC  C314 5249   4.616   5.570   8.036  0.1270 -0.7279  0.1008
   64SAPC  H14X 5250   4.647   5.464   8.051  0.9247 -0.5837 -0.4520
   64SAPC  H14Y 5251   4.509   5.587   8.059  0.3841  0.8303  0.2609
   64SAPC  C315 5252   4.695   5.662   8.133  0.7976  0.2385 -0.0075
   64SAPC  H15X 5253   4.794   5.701   8.101  1.5554 -0.4733  1.3578
   64SAPC  H15Y 5254   4.710   5.607   8.229 -2.4310  1.7787  1.5257
   64SAPC  C316 5255   4.615   5.791   8.167 -0.1185 -1.4168  0.7535
   64SAPC  H16X 5256   4.512   5.755   8.191 -0.6387 -0.0989  0.5703
   64SAPC  H16Y 5257   4.607   5.858   8.079 -1.9687 -1.0339  1.1745
   64SAPC  C317 5258   4.675   5.863   8.282 -0.7684 -0.5208 -0.4139
   64SAPC  H17X 5259   4.782   5.862   8.254 -0.8811  1.2395 -1.0208
   64SAPC  H17Y 5260   4.672   5.806   8.378  0.1150 -0.7552 -0.5152
   64SAPC  C318 5261   4.614   6.010   8.296 -0.1975 -0.1196  0.0870
   64SAPC  H18X 5262   4.620   6.066   8.201 -0.3986 -0.6383 -0.2349
   64SAPC  H18Y 5263   4.669   6.053   8.382 -2.0722  1.3131  0.6333
   64SAPC  H18Z 5264   4.508   5.999   8.329 -0.1027 -1.5229  0.0104
   65SAPC     N 5265   3.222   1.621   6.060 -0.5454  0.5081  0.0068
   65SAPC   C12 5266   3.267   1.759   6.090  0.6492  0.4448  0.0651
   65SAPC  H12A 5267   3.345   1.783   6.020  0.3956  1.6779  0.1825
   65SAPC  H12B 5268   3.312   1.770   6.188 -0.0742 -2.7611  0.8620
   65SAPC   C13 5269   3.200   1.593   5.912 -0.3224 -0.2958  0.1244
   65SAPC  H13A 5270   3.167   1.491   5.906 -2.2854  0.2191  1.3091
   65SAPC  H13B 5271   3.128   1.659   5.867 -1.4419 -2.1916 -0.9914
   65SAPC  H13C 5272   3.283   1.617   5.846 -0.3293  1.1210  0.5927
   65SAPC   C14 5273   3.337   1.534   6.106 -0.1442  0.1841  0.3853
   65SAPC  H14A 5274   3.318   1.428   6.098  1.2981  0.0843 -3.3834
   65SAPC  H14B 5275   3.426   1.538   6.045 -1.5368 -1.4178 -1.8965
   65SAPC  H14C 5276   3.365   1.556   6.208  0.3526 -1.4988  0.6429
   65SAPC   C15 5277   3.098   1.586   6.144  0.2816  0.5546 -0.1377
   65SAPC  H15A 5278   3.006   1.629   6.107 -0.7056 -0.5586  0.9244
   65SAPC  H15B 5279   3.097   1.478   6.153 -1.7418  0.5981  1.0103
   65SAPC  H15C 5280   3.108   1.629   6.242  4.6608  0.9561 -0.5909
   65SAPC   C11 5281   3.160   1.871   6.080  0.0931 -0.6695  0.0154
   65SAPC  H11A 5282   3.215   1.967   6.083  2.0985 -1.7433 -0.3079
   65SAPC  H11B 5283   3.098   1.868   6.172 -0.5143  0.4169 -0.3498
   65SAPC     P 5284   2.930   1.849   5.943  0.2863  0.1755 -0.1514
   65SAPC   O13 5285   2.868   1.972   5.880 -0.1022  0.1580 -0.0936
   65SAPC   O14 5286   2.914   1.718   5.871  0.1292  0.1660 -0.1971
   65SAPC   O12 5287   3.081   1.874   5.958  0.0502 -0.3104  0.1558
   65SAPC   O11 5288   2.871   1.819   6.085  0.4178  0.1580 -0.0402
   65SAPC    C1 5289   2.776   1.915   6.141 -0.1257  0.5251  0.1212
   65SAPC    HA 5290   2.774   2.007   6.080  2.2115  0.8093  0.3555
   65SAPC    HB 5291   2.676   1.867   6.142  0.8585 -1.9285 -2.8569
   65SAPC    C2 5292   2.813   1.952   6.297 -0.5369  0.0981  0.7264
   65SAPC    HS 5293   2.719   2.000   6.329 -1.6324 -0.6558 -1.1730
   65SAPC   O21 5294   2.930   2.033   6.307  0.2158 -0.0330  0.0641
   65SAPC   C21 5295   2.925   2.152   6.258 -0.7706  0.0460  0.0247
   65SAPC   O22 5296   2.833   2.210   6.202  0.2339  0.9452  0.2690
   65SAPC   C22 5297   3.068   2.209   6.285  0.2130  0.3858  0.7435
   65SAPC   H2R 5298   3.124   2.148   6.359 -0.7702  0.0717  1.2527
   65SAPC   H2S 5299   3.113   2.190   6.186 -0.8520 -2.6980  0.7493
   65SAPC    C3 5300   2.830   1.820   6.381 -0.2854  0.4290 -0.6541
   65SAPC    HX 5301   2.897   1.750   6.328  4.3088  4.9912 -1.6529
   65SAPC    HY 5302   2.741   1.758   6.404 -0.2003  0.3968 -0.3954
   65SAPC   O31 5303   2.885   1.851   6.512 -0.0801  0.0513  0.1478
   65SAPC   C31 5304   2.819   1.934   6.586  0.6850 -0.1235 -0.3524
   65SAPC   O32 5305   2.709   1.987   6.568  0.0205 -0.1441 -0.0093
   65SAPC   C32 5306   2.900   1.984   6.701 -0.2843  0.6976 -0.3375
   65SAPC   H2X 5307   2.891   2.093   6.716 -2.1612  0.3142  2.1035
   65SAPC   H2Y 5308   3.007   1.956   6.698 -0.4413  0.1155 -0.8913
   65SAPC   C23 5309   3.055   2.355   6.334 -0.6323  0.6510 -0.1120
   65SAPC   H3R 5310   2.958   2.395   6.299 -2.3017 -2.0984  1.0881
   65SAPC   H3S 5311   3.139   2.411   6.286 -0.1446  1.2329  1.3804
   65SAPC   C24 5312   3.052   2.371   6.488  0.1035 -0.5505  0.3793
   65SAPC   H4R 5313   2.980   2.303   6.538 -0.9217  0.9982  1.1157
   65SAPC   H4S 5314   3.024   2.475   6.516  0.8441 -0.0400 -0.6890
   65SAPC   C25 5315   3.189   2.343   6.548 -0.2283  0.2611  0.0838
   65SAPC   H5R 5316   3.272   2.333   6.477 -0.3669 -2.5471  0.2022
   65SAPC   C26 5317   3.216   2.319   6.674  0.5178 -0.0218 -0.0282
   65SAPC   H6R 5318   3.320   2.308   6.708 -0.1196  0.3391  2.2654
   65SAPC   C27 5319   3.108   2.330   6.781  0.1704 -0.3039 -0.1419
   65SAPC   H7R 5320   3.081   2.229   6.817  2.5203 -0.5033  1.2514
   65SAPC   H7S 5321   3.014   2.381   6.750 -1.5498 -1.3838  2.9307
   65SAPC   C28 5322   3.178   2.409   6.890 -0.4490  0.0671 -0.8446
   65SAPC   H8R 5323   3.247   2.488   6.857  0.5773 -0.0602  0.8476
   65SAPC   C29 5324   3.171   2.390   7.023 -0.3275 -0.0111  1.3247
   65SAPC   H9R 5325   3.217   2.460   7.095 -2.5718  1.5170  1.3765
   65SAPC  C210 5326   3.082   2.292   7.098 -0.5115 -0.8846  0.1959
   65SAPC  H10R 5327   3.138   2.238   7.177 -0.8745  1.6663  2.3310
   65SAPC  H10S 5328   3.040   2.213   7.033  0.2426  0.8301 -2.5440
   65SAPC  C211 5329   2.973   2.370   7.170  0.7232 -0.5590  0.7175
   65SAPC  H11R 5330   2.885   2.398   7.110 -0.3426  0.3491  2.6243
   65SAPC  C212 5331   2.962   2.413   7.295 -0.3533 -0.5571  1.0844
   65SAPC  H12R 5332   2.870   2.464   7.327 -0.0417  0.7782 -0.0537
   65SAPC  C213 5333   3.065   2.397   7.406  0.1200 -0.3970 -0.3217
   65SAPC  H13R 5334   3.075   2.497   7.454 -0.0730 -0.1445 -0.7996
   65SAPC  H13S 5335   3.165   2.358   7.377  0.5195 -1.1041  1.7932
   65SAPC  C214 5336   3.011   2.294   7.507  0.0161  0.3877 -0.2656
   65SAPC  H14R 5337   2.931   2.227   7.474 -0.2552  1.1218 -1.1509
   65SAPC  C215 5338   3.062   2.280   7.635  0.3516  0.3036  0.5865
   65SAPC  H15R 5339   3.033   2.196   7.699  1.3139  0.5965  1.4407
   65SAPC  C216 5340   3.164   2.361   7.702 -0.2560 -0.8504  0.2884
   65SAPC  H16R 5341   3.168   2.466   7.665  2.0549  0.0988  2.8281
   65SAPC  H16S 5342   3.269   2.322   7.697 -0.9045 -2.6508 -0.0578
   65SAPC  C217 5343   3.112   2.360   7.849  0.1033 -0.3457 -0.2698
   65SAPC  H17R 5344   3.111   2.254   7.884 -0.7596 -0.5665 -0.9390
   65SAPC  H17S 5345   3.006   2.392   7.858 -0.9355 -3.1756 -1.3075
   65SAPC  C218 5346   3.196   2.454   7.941  0.4105 -0.0594 -0.1209
   65SAPC  H18R 5347   3.161   2.559   7.937  1.8439  0.4097 -2.4875
   65SAPC  H18S 5348   3.302   2.444   7.908  0.4460 -2.5090  0.5125
   65SAPC  C219 5349   3.186   2.417   8.086 -0.0657  0.1918  0.0602
   65SAPC  H19R 5350   3.222   2.312   8.091 -2.5086 -0.6755  0.6996
   65SAPC  H19S 5351   3.086   2.429   8.132 -0.3941 -0.4266 -0.4812
   65SAPC  C220 5352   3.254   2.527   8.153 -0.0568  0.3582  0.2151
   65SAPC  H20R 5353   3.192   2.619   8.146  0.6195  0.7906 -0.2211
   65SAPC  H20S 5354   3.350   2.532   8.097  0.1786 -1.9909  0.3128
   65SAPC  H20T 5355   3.271   2.512   8.261  0.5518  0.3908  0.1318
   65SAPC   C33 5356   2.841   1.904   6.819 -0.3360 -0.3985  0.1339
   65SAPC   H3X 5357   2.859   1.795   6.808  0.5663 -0.2898  0.4392
   65SAPC   H3Y 5358   2.731   1.920   6.818 -0.4682 -1.0238 -1.9725
   65SAPC   C34 5359   2.885   1.956   6.957  0.6995 -0.2553 -0.3856
   65SAPC   H4X 5360   2.859   2.063   6.965  1.4678  0.0050 -1.1657
   65SAPC   H4Y 5361   2.995   1.943   6.966  0.5169 -0.8607  1.3083
   65SAPC   C35 5362   2.827   1.872   7.070  0.9374 -0.5232 -0.1997
   65SAPC   H5X 5363   2.876   1.772   7.067 -1.0536 -1.6015  0.8458
   65SAPC   H5Y 5364   2.716   1.868   7.072  0.8468  1.4734  0.3232
   65SAPC   C36 5365   2.865   1.922   7.209  0.6043 -0.1785  0.0914
   65SAPC   H6X 5366   2.821   2.023   7.223 -1.3222 -1.0819  1.0349
   65SAPC   H6Y 5367   2.975   1.924   7.221  0.7378  0.5735 -1.1561
   65SAPC   C37 5368   2.814   1.825   7.320 -0.0735  0.0968  0.0456
   65SAPC   H7X 5369   2.858   1.729   7.287 -0.0538 -0.0607  0.5284
   65SAPC   H7Y 5370   2.708   1.794   7.311  0.3149 -1.4826  0.5797
   65SAPC   C38 5371   2.840   1.861   7.469  0.3305  0.1030 -0.2909
   65SAPC   H8X 5372   2.784   1.953   7.500  1.0255  0.2151  0.6816
   65SAPC   H8Y 5373   2.948   1.880   7.485  1.0587 -1.4679 -2.8430
   65SAPC   C39 5374   2.823   1.740   7.566  0.1208  0.0673  0.6075
   65SAPC   H9X 5375   2.906   1.669   7.547 -0.3562 -0.4296  0.3504
   65SAPC   H9Y 5376   2.733   1.681   7.538  0.2717  0.2945 -0.4272
   65SAPC  C310 5377   2.823   1.779   7.716 -0.1869  0.2051 -0.6030
   65SAPC  H10X 5378   2.785   1.706   7.792 -0.1828 -0.4446 -1.2201
   65SAPC  H10Y 5379   2.763   1.871   7.736  1.4528  0.8695  1.8291
   65SAPC  C311 5380   2.959   1.828   7.763  0.4459  0.1191 -0.1642
   65SAPC  H11X 5381   2.987   1.929   7.727  0.5177 -0.1591 -0.9069
   65SAPC  H11Y 5382   3.040   1.773   7.712  0.0827  2.7054 -3.9730
   65SAPC  C312 5383   2.998   1.832   7.912 -0.0142 -0.2155 -1.2656
   65SAPC  H12X 5384   3.108   1.850   7.911 -0.1774  0.9772 -0.2451
   65SAPC  H12Y 5385   2.980   1.734   7.961 -1.9289  0.7960  0.2034
   65SAPC  C313 5386   2.947   1.948   7.997  0.1055 -0.6213 -0.6921
   65SAPC  H13X 5387   2.837   1.952   7.987 -0.1611 -2.3353  0.9014
   65SAPC  H13Y 5388   2.996   2.036   7.949  1.7755 -1.6745 -1.0097
   65SAPC  C314 5389   2.996   1.940   8.140  0.8371 -0.6574 -0.6216
   65SAPC  H14X 5390   3.106   1.948   8.145  0.8880 -1.8320  0.6271
   65SAPC  H14Y 5391   2.958   1.843   8.178 -0.6066 -0.3912 -1.2894
   65SAPC  C315 5392   2.947   2.066   8.222 -0.2575 -0.2362 -0.4106
   65SAPC  H15X 5393   2.845   2.093   8.189 -0.5258 -1.6511 -0.8269
   65SAPC  H15Y 5394   3.006   2.158   8.202 -0.7679  0.3298  0.6305
   65SAPC  C316 5395   2.956   2.055   8.375  0.2960  0.3411 -0.6829
   65SAPC  H16X 5396   2.920   2.147   8.424 -0.6372 -2.2349  3.9933
   65SAPC  H16Y 5397   3.060   2.041   8.411  0.1457  0.0784 -0.3495
   65SAPC  C317 5398   2.862   1.948   8.429  0.5183 -0.0480 -0.3624
   65SAPC  H17X 5399   2.883   1.849   8.383 -1.8813 -0.4424 -0.7563
   65SAPC  H17Y 5400   2.757   1.958   8.392  0.6932 -1.1909 -1.2617
   65SAPC  C318 5401   2.860   1.938   8.579 -0.5032  0.4693  0.0790
   65SAPC  H18X 5402   2.965   1.949   8.613 -0.6243  1.0463  0.2835
   65SAPC  H18Y 5403   2.809   1.849   8.621 -0.9773  0.3969 -0.6315
   65SAPC  H18Z 5404   2.805   2.021   8.628 -3.9002 -2.2775  1.2767
   66SAPC     N 5405   3.475   0.072   6.304  0.4289 -0.3120  0.4235
   66SAPC   C12 5406   3.512   0.082   6.452  0.5998  0.1303  0.2759
   66SAPC  H12A 5407   3.444   0.029   6.515 -0.8684  1.4562 -0.1207
   66SAPC  H12B 5408   3.507   0.187   6.476  1.4583  0.3309 -0.3313
   66SAPC   C13 5409   3.552   0.168   6.213  0.3567  0.6924 -0.0264
   66SAPC  H13A 5410   3.525   0.159   6.109  0.6275  2.0254 -0.2245
   66SAPC  H13B 5411   3.522   0.263   6.253 -0.2907  0.8030 -0.7426
   66SAPC  H13C 5412   3.657   0.158   6.234  1.1954 -0.5516 -4.0153
   66SAPC   C14 5413   3.508  -0.071   6.267  0.4865 -0.3103 -0.3587
   66SAPC  H14A 5414   3.610  -0.095   6.290  0.2064 -0.7759  0.4304
   66SAPC  H14B 5415   3.440  -0.142   6.311 -1.6770  1.5174 -0.5474
   66SAPC  H14C 5416   3.487  -0.088   6.162 -0.8342  0.2103 -0.1996
   66SAPC   C15 5417   3.332   0.089   6.281 -0.1432 -0.4177 -0.0710
   66SAPC  H15A 5418   3.267   0.035   6.348 -1.7708 -1.9085 -2.6766
   66SAPC  H15B 5419   3.301   0.192   6.281  1.7212  0.1826 -0.7277
   66SAPC  H15C 5420   3.306   0.061   6.180 -0.6795 -0.3714  0.0511
   66SAPC   C11 5421   3.648   0.018   6.496 -0.2464  0.0105  0.3390
   66SAPC  H11A 5422   3.637  -0.093   6.493  2.3022 -0.2967 -0.8557
   66SAPC  H11B 5423   3.664   0.055   6.600 -0.8601 -0.0529  0.4601
   66SAPC     P 5424   3.890  -0.033   6.399  0.0439 -0.1314  0.7724
   66SAPC   O13 5425   3.865  -0.131   6.293  0.2912  0.7280 -0.3151
   66SAPC   O14 5426   4.007   0.057   6.380 -0.0245  0.4912 -0.2163
   66SAPC   O12 5427   3.757   0.052   6.409  0.2628 -0.0210 -0.3114
   66SAPC   O11 5428   3.894  -0.099   6.546  0.2341  0.1598  0.6497
   66SAPC    C1 5429   3.928  -0.239   6.565  0.5360 -0.4814 -0.5279
   66SAPC    HA 5430   3.835  -0.300   6.568  0.1772  0.0844  0.0999
   66SAPC    HB 5431   3.992  -0.279   6.483 -1.0357 -0.3235 -1.8994
   66SAPC    C2 5432   3.992  -0.269   6.701  0.3224  0.3538 -0.3029
   66SAPC    HS 5433   3.989  -0.380   6.709 -1.0641  0.4874  1.9405
   66SAPC   O21 5434   3.915  -0.218   6.811  0.0646 -0.3758  0.4029
   66SAPC   C21 5435   3.800  -0.278   6.836  0.0461  0.5296  0.4295
   66SAPC   O22 5436   3.769  -0.386   6.785 -0.2887  0.2759  0.4049
   66SAPC   C22 5437   3.724  -0.196   6.939 -0.3279 -0.7389 -0.4340
   66SAPC   H2R 5438   3.803  -0.144   6.998  1.0055 -1.7995 -1.2154
   66SAPC   H2S 5439   3.675  -0.115   6.880  1.2347  0.0858 -0.6452
   66SAPC    C3 5440   4.136  -0.212   6.704  0.5565  0.4143 -0.2418
   66SAPC    HX 5441   4.132  -0.101   6.692  0.1551  0.1125 -4.2235
   66SAPC    HY 5442   4.192  -0.237   6.612 -0.3810  0.6243 -0.8919
   66SAPC   O31 5443   4.202  -0.259   6.825 -0.0092  0.2562 -0.2694
   66SAPC   C31 5444   4.232  -0.169   6.922 -0.3901  0.1030  0.4729
   66SAPC   O32 5445   4.213  -0.049   6.922 -0.1806  0.5332 -0.2278
   66SAPC   C32 5446   4.297  -0.248   7.031 -0.4911 -0.3915  1.0706
   66SAPC   H2X 5447   4.389  -0.295   6.989 -0.6309  0.6577 -0.4841
   66SAPC   H2Y 5448   4.220  -0.322   7.060 -1.5156  0.0626 -0.3443
   66SAPC   C23 5449   3.620  -0.281   7.027  0.7244 -0.2034  0.1095
   66SAPC   H3R 5450   3.572  -0.349   6.953  0.6126  0.5047 -0.4789
   66SAPC   H3S 5451   3.545  -0.215   7.075 -0.5967 -0.6752 -1.2425
   66SAPC   C24 5452   3.693  -0.366   7.139 -0.5663  0.7957  0.3207
   66SAPC   H4R 5453   3.743  -0.453   7.091 -1.8451  0.7528 -1.0326
   66SAPC   H4S 5454   3.615  -0.426   7.191 -1.8159 -0.3195 -2.5768
   66SAPC   C25 5455   3.794  -0.301   7.217 -0.4402  0.4632  1.1346
   66SAPC   H5R 5456   3.883  -0.278   7.157 -1.5645  2.4418  0.1207
   66SAPC   C26 5457   3.780  -0.267   7.348 -0.0725 -0.4429  0.1136
   66SAPC   H6R 5458   3.867  -0.223   7.400 -0.6216  0.2681  0.4453
   66SAPC   C27 5459   3.653  -0.302   7.420  0.5395 -0.1243  0.1422
   66SAPC   H7R 5460   3.648  -0.412   7.429 -2.1224 -0.1039 -0.4137
   66SAPC   H7S 5461   3.564  -0.281   7.357  0.4226 -0.5375  0.1650
   66SAPC   C28 5462   3.629  -0.236   7.559  0.3661  0.3952 -0.2867
   66SAPC   H8R 5463   3.599  -0.130   7.564 -1.7717 -0.1284 -0.7380
   66SAPC   C29 5464   3.620  -0.315   7.666 -0.9700  0.1956 -0.6209
   66SAPC   H9R 5465   3.593  -0.263   7.759 -1.3053 -0.4089 -0.3664
   66SAPC  C210 5466   3.640  -0.465   7.672 -0.0655  0.7699 -0.2920
   66SAPC  H10R 5467   3.709  -0.511   7.598 -1.9911  0.7098 -2.1424
   66SAPC  H10S 5468   3.541  -0.504   7.639 -0.3107 -0.2470  1.5245
   66SAPC  C211 5469   3.663  -0.525   7.812 -0.1127  0.5521 -0.1978
   66SAPC  H11R 5470   3.583  -0.587   7.854 -0.5732  0.9084 -0.5486
   66SAPC  C212 5471   3.782  -0.535   7.871  0.0849  0.0621 -0.5116
   66SAPC  H12R 5472   3.792  -0.587   7.967 -2.1694  2.0340  0.8941
   66SAPC  C213 5473   3.913  -0.474   7.823 -0.1491  0.1851  0.5627
   66SAPC  H13R 5474   3.904  -0.430   7.721  0.7820  3.3257  1.7257
   66SAPC  H13S 5475   3.995  -0.549   7.818 -0.7326 -0.7252  3.0684
   66SAPC  C214 5476   3.965  -0.360   7.914  0.0985  0.3063 -0.5072
   66SAPC  H14R 5477   3.901  -0.272   7.902 -0.4905  0.3632  2.4007
   66SAPC  C215 5478   4.056  -0.358   8.015  0.3441  0.0230 -0.2679
   66SAPC  H15R 5479   4.066  -0.267   8.077  0.8152 -0.0354 -0.2560
   66SAPC  C216 5480   4.147  -0.474   8.069  0.4808 -0.3064 -0.0147
   66SAPC  H16R 5481   4.102  -0.570   8.033 -0.5904 -0.5653  1.9054
   66SAPC  H16S 5482   4.138  -0.473   8.179 -1.6665  0.9142 -0.1418
   66SAPC  C217 5483   4.293  -0.465   8.026  0.3258 -0.4111  0.6540
   66SAPC  H17R 5484   4.293  -0.462   7.915 -1.7064 -1.2991  0.5822
   66SAPC  H17S 5485   4.351  -0.557   8.049  3.0841  0.0740 -3.2601
   66SAPC  C218 5486   4.353  -0.336   8.078 -0.0868  0.4900  0.2881
   66SAPC  H18R 5487   4.315  -0.312   8.180 -0.4947 -2.1749  0.8282
   66SAPC  H18S 5488   4.320  -0.248   8.018 -0.0047  1.5197  1.6953
   66SAPC  C219 5489   4.509  -0.333   8.082  0.3356 -0.0146 -0.0818
   66SAPC  H19R 5490   4.550  -0.430   8.118 -1.0217 -0.2802  0.8297
   66SAPC  H19S 5491   4.519  -0.256   8.162 -2.2924  0.4048 -0.0817
   66SAPC  C220 5492   4.568  -0.300   7.943  0.3172 -0.2348 -0.2379
   66SAPC  H20R 5493   4.679  -0.300   7.946  0.3471  0.1015 -1.0832
   66SAPC  H20S 5494   4.534  -0.202   7.905 -5.6073 -1.9671 -0.3694
   66SAPC  H20T 5495   4.544  -0.379   7.868  2.5342 -0.5185 -0.7080
   66SAPC   C33 5496   4.335  -0.157   7.143  0.1880  0.4845  0.8143
   66SAPC   H3X 5497   4.384  -0.069   7.097  0.8863 -0.2562  0.1200
   66SAPC   H3Y 5498   4.403  -0.214   7.209 -1.3189  0.0406  2.0360
   66SAPC   C34 5499   4.228  -0.090   7.226  0.7764 -0.2344  0.1122
   66SAPC   H4X 5500   4.168  -0.020   7.164  2.2750  0.2843 -0.8052
   66SAPC   H4Y 5501   4.285  -0.028   7.298  0.0201 -1.1581  1.5598
   66SAPC   C35 5502   4.126  -0.184   7.295 -0.7869  0.7458 -0.9117
   66SAPC   H5X 5503   4.092  -0.256   7.218  1.7227  0.0415 -1.4314
   66SAPC   H5Y 5504   4.042  -0.120   7.329 -1.9726 -1.2324  0.0592
   66SAPC   C36 5505   4.176  -0.261   7.425 -0.1823 -0.4653  1.1161
   66SAPC   H6X 5506   4.272  -0.307   7.394  1.4641  2.0295  2.1031
   66SAPC   H6Y 5507   4.100  -0.333   7.464 -0.8448  0.1206  0.9328
   66SAPC   C37 5508   4.220  -0.164   7.545 -0.2031  0.2892 -0.2058
   66SAPC   H7X 5509   4.276  -0.081   7.498 -0.7243  0.6920 -0.1276
   66SAPC   H7Y 5510   4.277  -0.232   7.612 -3.6136 -0.6863  1.9992
   66SAPC   C38 5511   4.108  -0.107   7.626  0.1861 -0.4017 -1.2622
   66SAPC   H8X 5512   4.049  -0.186   7.678  0.0381  0.7611  0.4401
   66SAPC   H8Y 5513   4.029  -0.061   7.563 -0.8530  1.2375  1.0666
   66SAPC   C39 5514   4.152   0.004   7.732  0.6251 -0.1235  0.1473
   66SAPC   H9X 5515   4.064   0.021   7.796  0.0011  3.2866 -1.4002
   66SAPC   H9Y 5516   4.182   0.099   7.683 -1.8916  0.3467 -0.6277
   66SAPC  C310 5517   4.271  -0.037   7.823 -0.0133 -0.0749 -0.3452
   66SAPC  H10X 5518   4.353  -0.051   7.749 -1.6060 -1.2307 -1.9855
   66SAPC  H10Y 5519   4.265  -0.127   7.888  0.2612  1.1187  1.3760
   66SAPC  C311 5520   4.306   0.085   7.915  0.2309  0.1265  0.1493
   66SAPC  H11X 5521   4.243   0.100   8.005 -0.1374 -1.1396  0.1226
   66SAPC  H11Y 5522   4.305   0.180   7.858  0.3476 -1.0094 -1.8183
   66SAPC  C312 5523   4.456   0.089   7.970  0.1072  0.2070  0.2548
   66SAPC  H12X 5524   4.508   0.010   7.911 -0.5599 -0.5111  0.6024
   66SAPC  H12Y 5525   4.457   0.058   8.076  3.3285  0.2704  0.3218
   66SAPC  C313 5526   4.521   0.223   7.958  0.2610 -0.1467  0.4442
   66SAPC  H13X 5527   4.520   0.238   7.848  0.3307 -0.9355  0.3255
   66SAPC  H13Y 5528   4.624   0.208   7.998  0.1800  0.0929  0.7467
   66SAPC  C314 5529   4.462   0.343   8.026 -0.2161 -0.5508 -0.5503
   66SAPC  H14X 5530   4.356   0.364   8.002  0.1779  1.0595 -1.0132
   66SAPC  H14Y 5531   4.515   0.431   7.982  1.0187 -0.6533  0.6336
   66SAPC  C315 5532   4.468   0.343   8.181  0.0514  0.7651  0.7691
   66SAPC  H15X 5533   4.571   0.312   8.210  0.8709  3.0119  0.3956
   66SAPC  H15Y 5534   4.396   0.268   8.221 -1.4929  2.4385  1.2001
   66SAPC  C316 5535   4.446   0.477   8.249 -0.4324  0.3064 -0.3244
   66SAPC  H16X 5536   4.338   0.505   8.249 -0.8160 -1.0877  0.7928
   66SAPC  H16Y 5537   4.499   0.557   8.193 -0.3808  0.0561 -0.6369
   66SAPC  C317 5538   4.487   0.489   8.396  0.6602  0.2738 -0.2511
   66SAPC  H17X 5539   4.598   0.491   8.397  0.7648 -0.4579  3.2082
   66SAPC  H17Y 5540   4.454   0.399   8.453 -0.1595  0.9807  0.4280
   66SAPC  C318 5541   4.433   0.609   8.484 -0.4495  0.0808  0.0417
   66SAPC  H18X 5542   4.323   0.626   8.492 -0.5477  0.8401 -2.2528
   66SAPC  H18Y 5543   4.475   0.702   8.440  0.4309 -0.5443 -0.4517
   66SAPC  H18Z 5544   4.472   0.597   8.587 -0.8669 -4.2059 -0.1529
   67SAPC     N 5545   0.101   4.356   6.048 -0.0639 -0.0939  0.2546
   67SAPC   C12 5546   0.121   4.296   6.187  0.3024  0.1343  0.1908
   67SAPC  H12A 5547   0.128   4.376   6.259  0.5931 -0.0508  0.3715
   67SAPC  H12B 5548   0.213   4.241   6.199  0.4886  0.6176  1.0792
   67SAPC   C13 5549   0.224   4.438   6.026  0.2150 -0.4210 -0.0106
   67SAPC  H13A 5550   0.314   4.378   6.026  0.2709 -0.3496  0.8576
   67SAPC  H13B 5551   0.209   4.487   5.931  0.6054  0.7477  0.5155
   67SAPC  H13C 5552   0.222   4.517   6.100 -0.9309  1.0372 -1.5281
   67SAPC   C14 5553   0.100   4.246   5.941  0.0784  0.0529 -0.7929
   67SAPC  H14A 5554   0.120   4.280   5.840 -2.6027  1.9930 -0.7744
   67SAPC  H14B 5555   0.183   4.178   5.951 -0.7261 -0.7889  0.4390
   67SAPC  H14C 5556   0.019   4.175   5.947  1.4957 -1.5136  1.2762
   67SAPC   C15 5557  -0.021   4.439   6.036 -0.0953  0.5430 -0.2232
   67SAPC  H15A 5558  -0.022   4.512   6.116  2.1230 -1.3518  1.6886
   67SAPC  H15B 5559  -0.033   4.484   5.939 -2.3124  4.0426  1.4751
   67SAPC  H15C 5560  -0.104   4.370   6.047  1.1150 -1.0284 -0.4888
   67SAPC   C11 5561   0.008   4.195   6.228 -0.3778 -0.6298 -0.0077
   67SAPC  H11A 5562   0.043   4.125   6.307  0.4323 -0.1162  0.1109
   67SAPC  H11B 5563  -0.014   4.123   6.147  1.0071 -1.9594  0.7235
   67SAPC     P 5564  -0.127   4.371   6.372 -0.1585 -0.3790 -0.2245
   67SAPC   O13 5565   0.009   4.427   6.397 -0.3188 -0.0325  0.2532
   67SAPC   O14 5566  -0.223   4.466   6.325  0.3115  0.0283 -0.5146
   67SAPC   O12 5567  -0.118   4.259   6.264 -0.5740  0.1316 -0.8269
   67SAPC   O11 5568  -0.181   4.291   6.505  0.0005  0.3011 -0.1744
   67SAPC    C1 5569  -0.095   4.194   6.565 -0.9114  0.5716 -0.0890
   67SAPC    HA 5570  -0.099   4.093   6.518  0.4759  0.1731  0.5970
   67SAPC    HB 5571   0.015   4.212   6.561 -0.4981 -0.7199  2.6203
   67SAPC    C2 5572  -0.136   4.169   6.714 -0.7544  0.5557 -0.0851
   67SAPC    HS 5573  -0.246   4.155   6.705 -0.5821 -0.3015 -0.9404
   67SAPC   O21 5574  -0.102   4.288   6.789  0.3328  0.0470  0.6717
   67SAPC   C21 5575  -0.201   4.314   6.879  0.6997 -0.1820  0.0016
   67SAPC   O22 5576  -0.302   4.254   6.900  0.0958 -0.0752 -0.4743
   67SAPC   C22 5577  -0.161   4.451   6.946  0.2359  0.0763 -0.3613
   67SAPC   H2R 5578  -0.051   4.459   6.955  0.0186  0.6641  2.6603
   67SAPC   H2S 5579  -0.180   4.526   6.866  0.2178  0.0682 -0.3648
   67SAPC    C3 5580  -0.072   4.042   6.779  0.6830  0.1325 -1.1191
   67SAPC    HX 5581   0.038   4.059   6.788  0.4579  1.1970 -0.0393
   67SAPC    HY 5582  -0.102   3.964   6.706 -0.7339 -1.3943  0.9749
   67SAPC   O31 5583  -0.131   4.014   6.909 -0.1645  0.6388 -0.1752
   67SAPC   C31 5584  -0.071   4.054   7.011  0.3801  0.7051 -0.1930
   67SAPC   O32 5585   0.044   4.103   7.018  0.5153  0.1529 -0.2258
   67SAPC   C32 5586  -0.176   4.036   7.132 -0.0841 -0.5761  0.5906
   67SAPC   H2X 5587  -0.205   3.929   7.118 -0.3310 -0.2232 -2.2373
   67SAPC   H2Y 5588  -0.262   4.105   7.118  2.7426  3.0321 -0.7302
   67SAPC   C23 5589  -0.229   4.490   7.081  0.2942  0.3459  0.2923
   67SAPC   H3R 5590  -0.338   4.472   7.070 -0.0578  1.7875  1.1096
   67SAPC   H3S 5591  -0.229   4.600   7.096  2.5345  0.3884  0.3125
   67SAPC   C24 5592  -0.162   4.413   7.197  0.4923 -0.1615 -0.2918
   67SAPC   H4R 5593  -0.139   4.310   7.163 -0.8159 -0.5823  0.0191
   67SAPC   H4S 5594  -0.240   4.419   7.276  0.4532  1.1619 -0.4082
   67SAPC   C25 5595  -0.029   4.478   7.243  1.0024 -0.0170  0.5407
   67SAPC   H5R 5596   0.049   4.491   7.166 -0.2996  0.6498 -0.7142
   67SAPC   C26 5597  -0.011   4.539   7.363 -1.0161  0.6206  0.1673
   67SAPC   H6R 5598   0.086   4.589   7.378 -0.3744 -0.1929 -1.1028
   67SAPC   C27 5599  -0.105   4.554   7.483  0.3772 -0.0012 -0.6622
   67SAPC   H7R 5600  -0.209   4.564   7.448  0.8616  2.4221 -1.6232
   67SAPC   H7S 5601  -0.062   4.648   7.524  1.7427 -1.3237  1.1036
   67SAPC   C28 5602  -0.097   4.438   7.581  1.0052  0.3437 -0.3384
   67SAPC   H8R 5603  -0.099   4.337   7.539 -2.0468  0.8522 -1.6852
   67SAPC   C29 5604  -0.087   4.457   7.711  0.4578  0.0072  0.0647
   67SAPC   H9R 5605  -0.070   4.369   7.775  1.7348 -2.1016 -2.9402
   67SAPC  C210 5606  -0.099   4.584   7.796 -0.3399  0.6244 -0.1372
   67SAPC  H10R 5607  -0.196   4.586   7.849 -1.5665 -0.2270 -2.2203
   67SAPC  H10S 5608  -0.103   4.674   7.730  1.4500  2.1939  1.7626
   67SAPC  C211 5609   0.009   4.619   7.897  0.0935 -0.0024  0.2523
   67SAPC  H11R 5610  -0.019   4.580   7.996 -2.2224 -1.8401 -1.0075
   67SAPC  C212 5611   0.123   4.682   7.877 -0.1793  0.0528 -0.2685
   67SAPC  H12R 5612   0.188   4.700   7.964  1.6979 -1.4166 -1.2861
   67SAPC  C213 5613   0.181   4.733   7.743 -0.3291  0.1962  0.3175
   67SAPC  H13R 5614   0.104   4.801   7.700 -2.3397 -1.7950  0.5559
   67SAPC  H13S 5615   0.179   4.641   7.680  2.3841  0.0710  0.3344
   67SAPC  C214 5616   0.319   4.801   7.743 -0.2772 -0.4176 -0.1320
   67SAPC  H14R 5617   0.338   4.863   7.832 -2.2779  0.0283  0.0240
   67SAPC  C215 5618   0.394   4.823   7.637  0.1255 -0.1314  0.2913
   67SAPC  H15R 5619   0.488   4.877   7.655  0.1093 -0.1934  0.5554
   67SAPC  C216 5620   0.364   4.776   7.489 -0.0150 -0.0198  0.9688
   67SAPC  H16R 5621   0.312   4.677   7.489 -0.4210  0.1210 -1.4547
   67SAPC  H16S 5622   0.448   4.744   7.424 -0.5365 -1.2685  0.8742
   67SAPC  C217 5623   0.277   4.879   7.410  0.1632 -0.0765 -0.4616
   67SAPC  H17R 5624   0.319   4.981   7.425 -1.3849  0.4264  0.7733
   67SAPC  H17S 5625   0.175   4.866   7.451  0.0756 -0.3582 -0.7656
   67SAPC  C218 5626   0.263   4.838   7.253  0.4055  0.4431  0.1964
   67SAPC  H18R 5627   0.245   4.731   7.233 -0.0247  0.4245  0.6505
   67SAPC  H18S 5628   0.358   4.867   7.204 -1.1412  3.0546 -1.5511
   67SAPC  C219 5629   0.157   4.919   7.180 -0.7526  0.2661 -0.7250
   67SAPC  H19R 5630   0.146   5.016   7.233 -0.0862 -0.6564  1.2064
   67SAPC  H19S 5631   0.066   4.857   7.187 -0.3074 -0.3123  0.1458
   67SAPC  C220 5632   0.185   4.939   7.041 -0.3657 -0.3050  0.5425
   67SAPC  H20R 5633   0.204   4.845   6.985 -0.3148 -0.7767  1.3382
   67SAPC  H20S 5634   0.273   5.006   7.033 -1.0141  0.8662  2.5664
   67SAPC  H20T 5635   0.104   4.990   6.985  0.5657  0.1485 -0.4175
   67SAPC   C33 5636  -0.114   4.045   7.272 -0.1747  0.2837 -0.1529
   67SAPC   H3X 5637  -0.072   4.148   7.279  0.1130  0.1177  0.6469
   67SAPC   H3Y 5638  -0.038   3.964   7.271 -0.6370 -0.1720  0.5654
   67SAPC   C34 5639  -0.221   4.011   7.376  0.0921 -0.4148 -0.0497
   67SAPC   H4X 5640  -0.261   3.912   7.347 -0.7267  0.1067 -0.7396
   67SAPC   H4Y 5641  -0.298   4.091   7.372 -0.7174 -1.0554  1.5805
   67SAPC   C35 5642  -0.170   4.010   7.522  0.4754 -0.1292  0.2325
   67SAPC   H5X 5643  -0.103   4.098   7.526 -0.0424  0.3516 -1.1929
   67SAPC   H5Y 5644  -0.112   3.916   7.539  0.9449  0.4415  2.0351
   67SAPC   C36 5645  -0.287   4.017   7.625  0.3774 -1.4241 -0.0348
   67SAPC   H6X 5646  -0.382   3.973   7.589 -1.3170  0.4890  1.8743
   67SAPC   H6Y 5647  -0.311   4.125   7.638  0.5236 -1.1632 -1.6949
   67SAPC   C37 5648  -0.244   3.968   7.766 -0.2928 -0.2544  0.3268
   67SAPC   H7X 5649  -0.168   3.887   7.768 -0.7606 -0.6965  0.3441
   67SAPC   H7Y 5650  -0.330   3.934   7.827  0.0412 -0.7294  0.5468
   67SAPC   C38 5651  -0.163   4.076   7.839  0.1729 -1.0337  0.6119
   67SAPC   H8X 5652  -0.231   4.164   7.834  0.9054 -0.5428 -2.7961
   67SAPC   H8Y 5653  -0.077   4.105   7.776  0.1499 -1.0162  0.5891
   67SAPC   C39 5654  -0.123   4.052   7.987 -0.2740 -0.8104 -0.0686
   67SAPC   H9X 5655  -0.059   3.962   8.000  1.7552  0.5773  0.0368
   67SAPC   H9Y 5656  -0.214   4.027   8.046 -0.1651 -3.0323 -0.7814
   67SAPC  C310 5657  -0.055   4.175   8.053  0.2397  0.1433 -1.0607
   67SAPC  H10X 5658  -0.091   4.276   8.023  4.5061  2.0024 -0.5906
   67SAPC  H10Y 5659   0.052   4.171   8.024  0.5109  0.4301 -0.1344
   67SAPC  C311 5660  -0.057   4.161   8.211 -0.3962 -0.0532 -0.1317
   67SAPC  H11X 5661   0.009   4.246   8.238  3.2039 -2.4199 -0.7038
   67SAPC  H11Y 5662  -0.006   4.066   8.240 -0.0874 -0.2424 -1.2636
   67SAPC  C312 5663  -0.194   4.172   8.284 -0.9865 -0.9498 -1.0540
   67SAPC  H12X 5664  -0.266   4.089   8.264 -0.2919 -1.9018  0.2505
   67SAPC  H12Y 5665  -0.237   4.271   8.259  1.7818 -0.1232 -2.9879
   67SAPC  C313 5666  -0.189   4.174   8.439 -0.0738 -0.3274  0.6616
   67SAPC  H13X 5667  -0.294   4.193   8.469  0.0571  1.2427  0.1915
   67SAPC  H13Y 5668  -0.110   4.248   8.465 -1.1441  0.8207  0.7193
   67SAPC  C314 5669  -0.161   4.031   8.496  0.3698  0.0802 -0.1985
   67SAPC  H14X 5670  -0.054   4.019   8.521  0.0217 -2.8839  0.1508
   67SAPC  H14Y 5671  -0.188   3.962   8.414  0.0010  1.8976 -1.6906
   67SAPC  C315 5672  -0.236   4.013   8.633 -0.4456  0.2135  0.1340
   67SAPC  H15X 5673  -0.225   4.104   8.695  1.1284  0.5306 -0.5552
   67SAPC  H15Y 5674  -0.179   3.933   8.684  0.1089  0.6112  0.1379
   67SAPC  C316 5675  -0.376   3.950   8.611  0.1014 -0.0535 -0.2189
   67SAPC  H16X 5676  -0.374   3.889   8.517 -1.7706 -0.9713  0.2794
   67SAPC  H16Y 5677  -0.454   4.027   8.596 -0.7702 -0.5662  1.4049
   67SAPC  C317 5678  -0.417   3.850   8.722 -0.0253 -0.2413 -0.1718
   67SAPC  H17X 5679  -0.340   3.774   8.746  0.7632  1.0053  1.4954
   67SAPC  H17Y 5680  -0.511   3.806   8.684 -2.0050  1.6630  2.1224
   67SAPC  C318 5681  -0.452   3.927   8.852 -0.0726  0.3520 -0.3264
   67SAPC  H18X 5682  -0.487   3.862   8.935 -0.9966  1.8474  0.4997
   67SAPC  H18Y 5683  -0.527   4.007   8.836  1.1830  1.6991  0.2804
   67SAPC  H18Z 5684  -0.368   3.985   8.897  1.1471 -2.0089  0.6281
   68SAPC     N 5685   1.561   2.737   6.291  0.7285 -0.1120 -0.7514
   68SAPC   C12 5686   1.674   2.712   6.195 -0.0314 -0.1158  0.6598
   68SAPC  H12A 5687   1.681   2.795   6.127 -3.4347  1.0695  1.5459
   68SAPC  H12B 5688   1.653   2.631   6.127  0.0002 -0.0530  0.5757
   68SAPC   C13 5689   1.443   2.797   6.216 -0.2942 -0.1219  0.1282
   68SAPC  H13A 5690   1.361   2.823   6.281 -0.1422  4.5359 -1.1263
   68SAPC  H13B 5691   1.467   2.888   6.162 -0.6322 -1.3655 -2.2706
   68SAPC  H13C 5692   1.411   2.735   6.134 -3.7840  0.9012  0.5905
   68SAPC   C14 5693   1.511   2.615   6.368 -0.0810 -0.0912  0.3499
   68SAPC  H14A 5694   1.434   2.560   6.315  0.2695 -0.8574  0.6125
   68SAPC  H14B 5695   1.593   2.549   6.392 -0.4148 -0.3488  0.8055
   68SAPC  H14C 5696   1.478   2.634   6.469 -0.8777  1.7826 -0.2229
   68SAPC   C15 5697   1.603   2.845   6.401  0.1809  0.3393 -0.2438
   68SAPC  H15A 5698   1.632   2.936   6.351 -2.3208  0.0460 -2.4402
   68SAPC  H15B 5699   1.522   2.875   6.465  0.1115 -1.3228  0.5015
   68SAPC  H15C 5700   1.685   2.811   6.463  1.8284  1.3151 -1.7945
   68SAPC   C11 5701   1.810   2.686   6.254 -0.3296 -0.2547 -0.9446
   68SAPC  H11A 5702   1.841   2.749   6.340  2.3548 -2.7641  0.0851
   68SAPC  H11B 5703   1.884   2.700   6.172 -1.7269  0.5410 -2.1439
   68SAPC     P 5704   1.891   2.450   6.230  0.3574  0.2678  0.1971
   68SAPC   O13 5705   1.885   2.314   6.279 -0.7660 -0.0090  1.1976
   68SAPC   O14 5706   1.875   2.465   6.084 -0.1010  0.0555  0.2837
   68SAPC   O12 5707   1.802   2.554   6.308 -0.6499 -1.0703 -0.2513
   68SAPC   O11 5708   2.028   2.512   6.265 -0.5339  0.3745 -0.1266
   68SAPC    C1 5709   2.121   2.444   6.347 -0.0011  0.1301 -0.2349
   68SAPC    HA 5710   2.128   2.334   6.333  0.3841  0.1307 -0.0681
   68SAPC    HB 5711   2.223   2.490   6.344  1.1857 -2.3451 -0.3632
   68SAPC    C2 5712   2.070   2.450   6.494  0.1416  0.7352  0.4273
   68SAPC    HS 5713   1.967   2.409   6.501 -0.0425  0.7587 -1.6132
   68SAPC   O21 5714   2.063   2.589   6.535 -0.0894  0.3915 -0.1949
   68SAPC   C21 5715   1.971   2.627   6.621  0.0570  0.2711  0.2010
   68SAPC   O22 5716   1.879   2.561   6.667 -0.2024 -0.4945 -0.1775
   68SAPC   C22 5717   2.002   2.771   6.660  0.1518  0.0729 -0.4318
   68SAPC   H2R 5718   2.111   2.786   6.672  0.3183 -1.1354 -0.2785
   68SAPC   H2S 5719   1.966   2.834   6.576  1.5852  0.0181 -1.1169
   68SAPC    C3 5720   2.152   2.354   6.590 -0.1893  0.2279  0.5707
   68SAPC    HX 5721   2.260   2.370   6.574 -0.4277  1.1812 -0.1550
   68SAPC    HY 5722   2.142   2.248   6.557  2.3720  0.4535 -1.2456
   68SAPC   O31 5723   2.118   2.370   6.732 -0.5679  0.6833 -0.6253
   68SAPC   C31 5724   2.007   2.299   6.769 -0.7568  0.0509 -0.0019
   68SAPC   O32 5725   1.951   2.216   6.699  0.0799 -0.0794  0.5055
   68SAPC   C32 5726   1.969   2.342   6.911  0.4272 -0.0153 -0.4449
   68SAPC   H2X 5727   1.953   2.452   6.902  0.3971 -0.0095 -0.3289
   68SAPC   H2Y 5728   2.058   2.323   6.974  0.1401 -3.0479 -0.8298
   68SAPC   C23 5729   1.932   2.820   6.794 -1.1645 -0.1278  0.2675
   68SAPC   H3R 5730   1.989   2.750   6.859  2.3508  0.5286 -1.8472
   68SAPC   H3S 5731   1.824   2.794   6.795 -0.8043 -1.8834  2.6693
   68SAPC   C24 5732   1.982   2.964   6.827 -0.7106  0.9791 -0.5279
   68SAPC   H4R 5733   1.907   3.036   6.789 -2.6334  0.4788  2.0465
   68SAPC   H4S 5734   2.072   2.980   6.765 -0.0236  2.5645  0.8140
   68SAPC   C25 5735   2.002   2.975   6.978  0.4041  1.0631 -0.9540
   68SAPC   H5R 5736   2.077   2.906   7.021 -1.2464 -0.5829 -0.5646
   68SAPC   C26 5737   1.935   3.041   7.071  0.3534  0.2807 -0.7148
   68SAPC   H6R 5738   1.971   3.040   7.175  1.7393 -0.6965 -1.1803
   68SAPC   C27 5739   1.821   3.132   7.044  0.1458 -0.3012  0.1016
   68SAPC   H7R 5740   1.725   3.097   7.087 -0.6875  0.3647 -1.1484
   68SAPC   H7S 5741   1.807   3.139   6.934  1.3725  0.6345 -0.0114
   68SAPC   C28 5742   1.830   3.273   7.091  0.1446 -0.2100  0.2498
   68SAPC   H8R 5743   1.834   3.340   7.003 -0.5095 -0.3928  0.0809
   68SAPC   C29 5744   1.825   3.326   7.216  0.1711 -0.1655 -0.1052
   68SAPC   H9R 5745   1.844   3.432   7.238  0.7977 -0.4515  0.7814
   68SAPC  C210 5746   1.826   3.256   7.350 -0.7334 -0.3476  0.4714
   68SAPC  H10R 5747   1.795   3.151   7.327 -2.5464  0.6031 -1.9671
   68SAPC  H10S 5748   1.746   3.314   7.401  1.5383  2.9737  0.5699
   68SAPC  C211 5749   1.964   3.247   7.414 -0.1516  0.0326 -0.4462
   68SAPC  H11R 5750   2.046   3.252   7.340  1.0082  1.1690  0.8635
   68SAPC  C212 5751   1.998   3.241   7.545  0.2790  0.3797 -0.4123
   68SAPC  H12R 5752   2.106   3.234   7.565  0.0953  0.0438  0.4987
   68SAPC  C213 5753   1.903   3.243   7.667  0.1636 -0.6063 -0.2624
   68SAPC  H13R 5754   1.797   3.260   7.639  0.2033  1.1921  0.5511
   68SAPC  H13S 5755   1.934   3.336   7.719  0.2380 -0.2148 -1.0046
   68SAPC  C214 5756   1.921   3.123   7.750  0.4527 -0.2018 -0.1146
   68SAPC  H14R 5757   1.932   3.027   7.698  1.6558  0.0057 -0.2688
   68SAPC  C215 5758   1.929   3.110   7.884 -0.7882 -0.6524 -0.2348
   68SAPC  H15R 5759   1.926   3.008   7.927  0.0147 -1.2336 -1.5110
   68SAPC  C216 5760   1.918   3.221   7.982  0.9143  0.0143  0.1044
   68SAPC  H16R 5761   1.814   3.256   7.998  1.7219  1.5042  2.8727
   68SAPC  H16S 5762   1.977   3.310   7.952 -0.2297  0.5420 -0.6567
   68SAPC  C217 5763   1.956   3.182   8.129  0.7541  0.1191  0.2539
   68SAPC  H17R 5764   1.937   3.263   8.203  0.8089 -0.1318  0.5460
   68SAPC  H17S 5765   2.066   3.169   8.121  0.7740  0.2069  0.3826
   68SAPC  C218 5766   1.872   3.065   8.179  0.4505 -0.5324 -0.7297
   68SAPC  H18R 5767   1.891   2.973   8.119  1.7112  0.5428 -2.0498
   68SAPC  H18S 5768   1.763   3.084   8.182  0.5170 -0.1431 -0.7249
   68SAPC  C219 5769   1.912   3.033   8.322 -0.9312  0.4096 -0.7524
   68SAPC  H19R 5770   1.886   3.123   8.383  0.1395  0.5422 -0.4661
   68SAPC  H19S 5771   2.023   3.029   8.327 -0.9148  1.8415  1.1637
   68SAPC  C220 5772   1.857   2.901   8.374  0.2400  1.0317  0.5758
   68SAPC  H20R 5773   1.898   2.884   8.476  0.6376 -3.0453 -0.0980
   68SAPC  H20S 5774   1.891   2.821   8.306 -2.4687  1.4815 -1.5005
   68SAPC  H20T 5775   1.747   2.905   8.390  0.4305  0.8078  2.0765
   68SAPC   C33 5776   1.839   2.279   6.968 -0.4316 -0.3620 -0.5161
   68SAPC   H3X 5777   1.841   2.170   6.949  1.6524 -0.3048 -0.8484
   68SAPC   H3Y 5778   1.753   2.331   6.920 -1.7658 -1.3428  0.7242
   68SAPC   C34 5779   1.832   2.293   7.119 -0.1287  0.1617  0.0666
   68SAPC   H4X 5780   1.916   2.241   7.171 -0.7236 -0.5725  0.3050
   68SAPC   H4Y 5781   1.739   2.247   7.157  0.8528 -1.3088  0.8066
   68SAPC   C35 5782   1.832   2.442   7.175 -0.3490  0.0019  0.6239
   68SAPC   H5X 5783   1.769   2.496   7.102 -0.9155  0.0500  1.1423
   68SAPC   H5Y 5784   1.930   2.496   7.171 -1.2439  1.6589  0.3236
   68SAPC   C36 5785   1.784   2.453   7.320  0.2465 -0.7305  0.7920
   68SAPC   H6X 5786   1.682   2.409   7.323  0.5634 -1.5636 -0.0735
   68SAPC   H6Y 5787   1.783   2.556   7.361  2.5008 -0.5143  0.4441
   68SAPC   C37 5788   1.869   2.372   7.424  0.3737 -0.2498  0.8737
   68SAPC   H7X 5789   1.975   2.384   7.393 -0.0169 -0.6364 -0.7130
   68SAPC   H7Y 5790   1.836   2.266   7.424  0.6140 -0.3542 -0.9472
   68SAPC   C38 5791   1.857   2.418   7.572  0.0700  0.4089 -0.2518
   68SAPC   H8X 5792   1.754   2.406   7.613  0.0698 -0.2977 -0.4491
   68SAPC   H8Y 5793   1.886   2.525   7.576 -1.8531  0.9875 -0.5491
   68SAPC   C39 5794   1.965   2.344   7.657  0.4873  0.5376 -0.0617
   68SAPC   H9X 5795   2.067   2.385   7.642  1.2487 -1.0441  0.5537
   68SAPC   H9Y 5796   1.964   2.237   7.627  0.0915  0.4479  0.2590
   68SAPC  C310 5797   1.949   2.354   7.810 -0.0777  0.4002  0.3461
   68SAPC  H10X 5798   1.949   2.458   7.848 -2.0539  0.0985  1.3310
   68SAPC  H10Y 5799   2.038   2.305   7.857 -1.7905 -1.9082  1.3989
   68SAPC  C311 5800   1.836   2.270   7.859 -0.3431  1.1633 -0.1105
   68SAPC  H11X 5801   1.874   2.165   7.860  0.8444  1.5608 -0.9669
   68SAPC  H11Y 5802   1.753   2.263   7.786 -2.8214  0.7177  2.5382
   68SAPC  C312 5803   1.778   2.310   7.996 -0.0282  0.0707 -0.1038
   68SAPC  H12X 5804   1.861   2.309   8.070  0.7011 -4.3805 -0.7088
   68SAPC  H12Y 5805   1.718   2.224   8.032  2.0491 -1.8814 -1.0355
   68SAPC  C313 5806   1.687   2.434   8.002 -0.3835 -0.1253  0.1183
   68SAPC  H13X 5807   1.605   2.419   7.930  0.1435  0.0385 -0.5275
   68SAPC  H13Y 5808   1.728   2.532   7.970 -1.3218  1.0623  2.3920
   68SAPC  C314 5809   1.629   2.470   8.139 -0.0132 -0.1815 -0.1494
   68SAPC  H14X 5810   1.570   2.386   8.183 -0.8320  0.4148 -0.0874
   68SAPC  H14Y 5811   1.556   2.552   8.124  0.9563  0.4530 -1.7030
   68SAPC  C315 5812   1.717   2.520   8.247  0.3632 -0.4784  0.8968
   68SAPC  H15X 5813   1.741   2.623   8.213 -1.6183 -0.4450 -0.5441
   68SAPC  H15Y 5814   1.799   2.446   8.235  0.7380 -0.3251  2.3168
   68SAPC  C316 5815   1.632   2.518   8.378 -0.7542 -0.1765 -0.2519
   68SAPC  H16X 5816   1.605   2.411   8.390 -0.2640 -0.2628  0.1201
   68SAPC  H16Y 5817   1.533   2.565   8.361 -0.9532  0.1116  1.4806
   68SAPC  C317 5818   1.697   2.577   8.502  0.4275  0.2800  0.0888
   68SAPC  H17X 5819   1.683   2.687   8.504  1.8568  0.5150 -1.0716
   68SAPC  H17Y 5820   1.805   2.556   8.489  0.3056 -0.1566 -0.2346
   68SAPC  C318 5821   1.655   2.511   8.634 -0.5492  0.4834  0.3426
   68SAPC  H18X 5822   1.552   2.542   8.660 -0.1813  0.8416  1.4454
   68SAPC  H18Y 5823   1.712   2.540   8.725  0.8487  1.0516 -0.6754
   68SAPC  H18Z 5824   1.659   2.401   8.624  0.4880  0.0998  3.6483
   69SLPC     N 5825   1.318   3.918  11.113  0.0115 -0.1394 -0.4451
   69SLPC   C13 5826   1.459   3.905  11.059  0.2702 -0.5551 -0.3171
   69SLPC  H13A 5827   1.531   3.896  11.139 -1.9813  1.6212  2.1587
   69SLPC  H13B 5828   1.463   3.815  11.001 -0.4695 -0.7951  0.0016
   69SLPC  H13C 5829   1.488   3.989  10.997  0.5161 -0.0763  0.4191
   69SLPC   C14 5830   1.304   3.808  11.224 -0.2777  0.1734  1.1359
   69SLPC  H14A 5831   1.372   3.836  11.303 -1.2194  3.0681  1.0312
   69SLPC  H14B 5832   1.205   3.801  11.267 -0.6192 -1.0806  0.2143
   69SLPC  H14C 5833   1.328   3.707  11.195  0.6937  0.6448  0.1989
   69SLPC   C15 5834   1.220   3.897  11.009  0.1381  0.5802  0.0160
   69SLPC  H15A 5835   1.116   3.891  11.040  0.4319  0.3141  0.9629
   69SLPC  H15B 5836   1.232   3.968  10.929 -0.9436 -1.3434 -1.9793
   69SLPC  H15C 5837   1.242   3.803  10.961 -0.8627 -0.1645  0.9602
   69SLPC   C12 5838   1.296   4.054  11.167 -0.0960  0.1449  0.0913
   69SLPC  H12A 5839   1.348   4.052  11.262  1.6218 -0.8126 -0.8274
   69SLPC  H12B 5840   1.193   4.067  11.195 -0.3505 -0.4249 -0.5499
   69SLPC   C11 5841   1.350   4.173  11.085 -0.4672 -0.2996 -0.2484
   69SLPC  H11A 5842   1.461   4.164  11.081 -0.4094 -0.5109  1.4061
   69SLPC  H11B 5843   1.341   4.275  11.130 -1.1530  0.1728 -1.4220
   69SLPC     P 5844   1.156   4.242  10.923 -0.0998  0.1373  0.5984
   69SLPC   O13 5845   1.081   4.138  10.854  0.2848  0.4456 -0.5431
   69SLPC   O14 5846   1.092   4.292  11.050  0.0336  0.2627  0.3744
   69SLPC   O12 5847   1.300   4.183  10.949 -0.0202  0.1689  0.3541
   69SLPC   O11 5848   1.177   4.363  10.821 -0.2498 -0.0117 -0.4333
   69SLPC    C1 5849   1.302   4.414  10.796 -0.5659 -0.5414 -0.2917
   69SLPC    HA 5850   1.344   4.437  10.896 -1.2435  0.3445 -0.2029
   69SLPC    HB 5851   1.370   4.341  10.746  0.9918 -1.3818  2.7797
   69SLPC    C2 5852   1.302   4.550  10.722 -0.0586  0.7603 -0.1421
   69SLPC    HS 5853   1.262   4.628  10.790 -0.1335 -0.5471  1.3987
   69SLPC   O21 5854   1.220   4.547  10.605 -0.7270  0.1651  0.1489
   69SLPC   C21 5855   1.095   4.574  10.624 -0.1640  0.8259 -0.1875
   69SLPC   O22 5856   1.039   4.614  10.722 -0.6153  0.2366 -0.4579
   69SLPC   C22 5857   1.022   4.538  10.491 -0.7065  0.9504 -0.4346
   69SLPC   H2R 5858   0.993   4.431  10.499  1.7352  0.3445  1.4686
   69SLPC   H2S 5859   0.931   4.601  10.482 -0.7852  1.0750  0.9708
   69SLPC    C3 5860   1.450   4.590  10.682  0.2429 -0.3524 -0.0028
   69SLPC    HX 5861   1.515   4.551  10.764  0.5627 -1.9393 -0.9674
   69SLPC    HY 5862   1.449   4.701  10.685  1.1440 -0.2951 -1.2173
   69SLPC   O31 5863   1.494   4.527  10.558 -0.6104  0.2152  0.2135
   69SLPC   C31 5864   1.484   4.602  10.448 -0.3398  0.4327  0.3423
   69SLPC   O32 5865   1.429   4.709  10.444 -0.3535 -0.2493  0.5563
   69SLPC   C32 5866   1.561   4.550  10.325  0.2296  0.1030 -0.2514
   69SLPC   H2X 5867   1.555   4.439  10.323  0.8206  0.0774 -1.1901
   69SLPC   H2Y 5868   1.665   4.588  10.336 -0.6487  2.0897  2.2027
   69SLPC   C23 5869   1.111   4.554  10.352  0.2470 -0.5713 -0.5664
   69SLPC   H3R 5870   1.210   4.504  10.363 -0.2823 -1.7138 -0.8078
   69SLPC   H3S 5871   1.127   4.664  10.345 -0.3829 -0.4981 -0.8620
   69SLPC   C24 5872   1.039   4.493  10.239 -0.0443  0.5139 -0.5311
   69SLPC   H4R 5873   0.932   4.521  10.251 -0.1958 -0.3191  0.1529
   69SLPC   H4S 5874   1.052   4.383  10.247 -0.9463  0.3831 -0.7624
   69SLPC   C25 5875   1.061   4.555  10.107  0.0900  0.1912 -0.2931
   69SLPC   H5R 5876   1.161   4.533  10.066  0.9788  2.2093  0.6380
   69SLPC   H5S 5877   1.074   4.663  10.133 -2.4977 -0.0876  2.8630
   69SLPC   C26 5878   0.944   4.541  10.006 -0.5097  0.0704  0.6557
   69SLPC   H6R 5879   0.958   4.611   9.921  0.3632  0.4532  1.1053
   69SLPC   H6S 5880   0.847   4.574  10.049 -1.1876 -2.3508  1.1240
   69SLPC   C27 5881   0.924   4.396   9.954  0.5705 -0.3636  0.4814
   69SLPC   H7R 5882   0.847   4.414   9.875 -1.2770 -0.2218  2.2354
   69SLPC   H7S 5883   0.865   4.341  10.029  0.1197 -0.2860  0.1872
   69SLPC   C28 5884   1.043   4.313   9.909 -0.0094  0.5271  0.9050
   69SLPC   H8R 5885   1.005   4.219   9.864  0.9995  0.4651  0.1628
   69SLPC   H8S 5886   1.094   4.290  10.005 -1.8480  0.3341  1.8928
   69SLPC   C29 5887   1.136   4.369   9.804  0.0412  0.4232 -0.7017
   69SLPC   H9R 5888   1.224   4.406   9.858 -0.3265 -0.9902  0.9381
   69SLPC  C210 5889   1.127   4.359   9.669  0.0902  0.5684  0.5806
   69SLPC  H10R 5890   1.209   4.396   9.606 -1.6301  0.8835 -1.6064
   69SLPC  C211 5891   1.017   4.303   9.588 -0.2365 -0.1117  0.0097
   69SLPC  H11R 5892   0.970   4.218   9.642 -1.6413  0.3054 -0.5190
   69SLPC  H11S 5893   1.052   4.243   9.501 -0.3202  1.3399 -1.0666
   69SLPC  C212 5894   0.894   4.385   9.554  0.0917 -0.2783  0.3298
   69SLPC  H12R 5895   0.838   4.434   9.635  0.6325  1.9438 -0.5484
   69SLPC  C213 5896   0.837   4.391   9.433 -0.2858  0.1923  0.1822
   69SLPC  H13R 5897   0.741   4.443   9.424 -0.0322  0.5373 -0.6722
   69SLPC  C214 5898   0.882   4.331   9.303  0.3092  0.5420 -0.3649
   69SLPC  H14R 5899   0.825   4.238   9.282  1.3123 -0.3066  0.5287
   69SLPC  H14S 5900   0.990   4.303   9.306  0.4249  0.9518 -0.6774
   69SLPC  C215 5901   0.857   4.429   9.185  0.4860  0.5755  0.2108
   69SLPC  H15R 5902   0.933   4.509   9.194  2.7215 -1.4743  0.8512
   69SLPC  H15S 5903   0.754   4.467   9.199  0.0913  0.6583 -2.4383
   69SLPC  C216 5904   0.879   4.370   9.044 -0.0244 -0.6363 -0.6217
   69SLPC  H16R 5905   0.985   4.339   9.033 -0.1844 -1.4436  0.0528
   69SLPC  H16S 5906   0.850   4.445   8.966  0.2967  0.2678  0.1084
   69SLPC  C217 5907   0.786   4.247   9.014  0.2808  0.3822 -0.5867
   69SLPC  H17R 5908   0.788   4.186   9.107 -0.5192 -0.2577 -0.9812
   69SLPC  H17S 5909   0.837   4.185   8.937  0.5675 -0.0913 -0.0260
   69SLPC  C218 5910   0.648   4.289   8.965  0.6028 -0.5719  0.1592
   69SLPC  H18R 5911   0.599   4.343   9.049 -3.6143 -0.7231 -1.9414
   69SLPC  H18S 5912   0.585   4.207   8.925  1.1061  0.2172 -2.4396
   69SLPC  H18T 5913   0.663   4.369   8.889 -1.8719  2.0461  2.1948
   69SLPC   C33 5914   1.495   4.609  10.198  0.2461  0.4078  0.6072
   69SLPC   H3X 5915   1.505   4.719  10.193 -0.7726  0.5299  1.0848
   69SLPC   H3Y 5916   1.387   4.585  10.201  0.2170  0.0211 -1.7376
   69SLPC   C34 5917   1.558   4.546  10.072 -0.1680 -0.4639  0.4770
   69SLPC   H4X 5918   1.593   4.442  10.092  2.7984  0.1607 -0.9021
   69SLPC   H4Y 5919   1.655   4.596  10.053 -0.0043  0.3026  2.9809
   69SLPC   C35 5920   1.469   4.557   9.944 -0.4794 -0.0352 -0.1868
   69SLPC   H5X 5921   1.394   4.638   9.948  1.2336  1.6679 -0.9582
   69SLPC   H5Y 5922   1.406   4.466   9.948  1.1353 -1.1613  1.1314
   69SLPC   C36 5923   1.549   4.556   9.809  0.9754  0.4460  0.0818
   69SLPC   H6X 5924   1.478   4.533   9.727 -1.0698  2.0581  1.3015
   69SLPC   H6Y 5925   1.612   4.466   9.797 -1.6304 -1.6064  1.0154
   69SLPC   C37 5926   1.630   4.681   9.774 -0.3389 -0.2150 -0.3659
   69SLPC   H7X 5927   1.711   4.684   9.850 -0.9371 -0.8911  0.3186
   69SLPC   H7Y 5928   1.560   4.767   9.780 -0.5639 -0.3962 -0.3979
   69SLPC   C38 5929   1.704   4.669   9.635  0.3199 -0.2509  0.0250
   69SLPC   H8X 5930   1.618   4.650   9.568 -1.2805  0.5365  1.7528
   69SLPC   H8Y 5931   1.768   4.578   9.637  0.0703 -0.4412  2.6928
   69SLPC   C39 5932   1.787   4.796   9.594  0.1640  0.2861 -0.2942
   69SLPC   H9X 5933   1.855   4.823   9.677 -1.3551 -0.7021  1.3634
   69SLPC   H9Y 5934   1.705   4.868   9.574 -0.2466 -0.6512 -2.1969
   69SLPC  C310 5935   1.869   4.785   9.467  0.0932  0.3032  0.6413
   69SLPC  H10X 5936   1.943   4.703   9.466  0.1520  0.3382  1.6825
   69SLPC  H10Y 5937   1.925   4.878   9.445  0.9972 -0.5174 -0.7438
   69SLPC  C311 5938   1.787   4.768   9.332  0.2125 -0.0469  0.0935
   69SLPC  H11X 5939   1.716   4.853   9.333 -0.9066 -0.9050 -1.4637
   69SLPC  H11Y 5940   1.723   4.680   9.311  1.5238 -1.1833  0.6565
   69SLPC  C312 5941   1.864   4.789   9.198 -0.3648  0.0365 -0.2698
   69SLPC  H12X 5942   1.798   4.750   9.118 -1.4120  3.4747 -1.2765
   69SLPC  H12Y 5943   1.958   4.729   9.197 -0.0793  0.4172  1.1162
   69SLPC  C313 5944   1.894   4.941   9.169  0.4500  0.2353  0.1620
   69SLPC  H13X 5945   1.949   4.987   9.254 -1.0849  1.7880  0.3716
   69SLPC  H13Y 5946   1.796   4.993   9.168 -0.6715 -1.7960  0.1504
   69SLPC  C314 5947   1.953   4.960   9.036 -0.2160 -0.2910 -0.4131
   69SLPC  H14X 5948   1.908   4.893   8.960 -1.4340 -2.8161  2.3803
   69SLPC  H14Y 5949   2.056   4.919   9.047  0.5333  1.2963 -1.1504
   69SLPC  C315 5950   1.956   5.113   9.004  0.7871 -0.9577 -0.1817
   69SLPC  H15X 5951   2.027   5.159   9.075 -2.0629  0.3971  1.9873
   69SLPC  H15Y 5952   1.858   5.160   9.027  0.4585 -1.3933 -0.6636
   69SLPC  C316 5953   1.991   5.144   8.862  0.4355  0.5339  0.4808
   69SLPC  H16X 5954   1.903   5.120   8.799  1.2964  0.7503 -0.8558
   69SLPC  H16Y 5955   2.075   5.078   8.830  0.6133  0.0225  1.9346
   69SLPC  C317 5956   2.038   5.285   8.837 -0.8087 -0.2615 -0.1368
   69SLPC  H17X 5957   2.117   5.313   8.910 -1.2354 -1.2946  0.7426
   69SLPC  H17Y 5958   1.948   5.348   8.858 -1.6190 -1.5484  0.3404
   69SLPC  C318 5959   2.089   5.317   8.698 -0.6669 -0.0202 -0.0539
   69SLPC  H18X 5960   2.019   5.281   8.619 -2.4309  0.6697  1.1353
   69SLPC  H18Y 5961   2.182   5.258   8.681 -2.0433 -2.4156  0.1648
   69SLPC  H18Z 5962   2.094   5.427   8.684 -2.2569  0.1389  0.4768
   70SLPC     N 5963   6.730   2.317  10.927  0.0340 -0.0324  0.3031
   70SLPC   C13 5964   6.592   2.274  10.962  0.3871  0.0802  0.5890
   70SLPC  H13A 5965   6.559   2.329  11.049 -0.1633  1.7453 -0.6187
   70SLPC  H13B 5966   6.517   2.303  10.890  0.3955  0.2012  0.6272
   70SLPC  H13C 5967   6.580   2.167  10.964  0.9021 -0.0525 -1.5482
   70SLPC   C14 5968   6.822   2.285  11.043 -0.0324  0.1286 -0.0547
   70SLPC  H14A 5969   6.778   2.317  11.136  1.1511  0.8122  0.2897
   70SLPC  H14B 5970   6.837   2.179  11.051  0.7831  0.2237 -0.2388
   70SLPC  H14C 5971   6.918   2.333  11.035 -0.3475  0.8876  0.5064
   70SLPC   C15 5972   6.744   2.461  10.900 -0.0236 -0.1935  0.3710
   70SLPC  H15A 5973   6.843   2.485  10.866  0.0364 -0.3315  0.4466
   70SLPC  H15B 5974   6.669   2.487  10.827  1.3351  1.3429 -0.5433
   70SLPC  H15C 5975   6.728   2.522  10.988 -1.2510 -0.9493  0.7016
   70SLPC   C12 5976   6.770   2.239  10.804  0.8071  0.5147  0.2554
   70SLPC  H12A 5977   6.741   2.135  10.810  2.5867 -0.0943 -1.0063
   70SLPC  H12B 5978   6.877   2.233  10.792  0.9539  1.6762  0.8911
   70SLPC   C11 5979   6.700   2.279  10.667 -0.9187  0.0027 -1.0849
   70SLPC  H11A 5980   6.731   2.200  10.596 -0.3259 -0.7905  0.0326
   70SLPC  H11B 5981   6.734   2.374  10.620 -0.5819  1.4032  1.7901
   70SLPC     P 5982   6.461   2.213  10.587  1.0203  0.3694 -0.6379
   70SLPC   O13 5983   6.426   2.094  10.663 -0.7334  0.2095 -0.0916
   70SLPC   O14 5984   6.352   2.312  10.578  0.1161 -0.0350  0.1079
   70SLPC   O12 5985   6.559   2.281  10.680  0.2185 -0.2216  0.5315
   70SLPC   O11 5986   6.530   2.191  10.450  0.0475 -0.3077 -0.0607
   70SLPC    C1 5987   6.574   2.290  10.357  0.3598 -0.3938  0.3511
   70SLPC    HA 5988   6.492   2.365  10.348  2.5375  1.9102 -1.8982
   70SLPC    HB 5989   6.664   2.346  10.388 -0.5846  1.4703 -0.1552
   70SLPC    C2 5990   6.583   2.223  10.218 -0.4658  0.3227 -0.0501
   70SLPC    HS 5991   6.632   2.300  10.156 -2.7564  1.6288 -0.3326
   70SLPC   O21 5992   6.461   2.197  10.164  0.4181  0.1182  0.5150
   70SLPC   C21 5993   6.391   2.301  10.118  0.9556 -0.4088  0.3860
   70SLPC   O22 5994   6.433   2.415  10.117  0.3039 -0.3439 -0.0708
   70SLPC   C22 5995   6.260   2.255  10.046 -0.9783  0.2085 -0.1021
   70SLPC   H2R 5996   6.197   2.205  10.123  0.0554  1.0855  1.3672
   70SLPC   H2S 5997   6.198   2.344  10.023  1.4918  2.4226  1.2796
   70SLPC    C3 5998   6.671   2.088  10.224 -0.2859  0.5766  0.1900
   70SLPC    HX 5999   6.636   2.024  10.308  0.3501 -0.0447 -0.0116
   70SLPC    HY 6000   6.777   2.111  10.249 -0.5243  2.1962 -0.1605
   70SLPC   O31 6001   6.653   2.009  10.103 -0.0737 -0.1146 -0.4359
   70SLPC   C31 6002   6.733   2.051  10.008  0.5456  0.6484 -0.8839
   70SLPC   O32 6003   6.802   2.149  10.009  0.0695  0.2305  0.2499
   70SLPC   C32 6004   6.724   1.950   9.892  0.0020 -0.2423 -0.0973
   70SLPC   H2X 6005   6.623   1.947   9.845  0.8192 -1.5874 -1.9139
   70SLPC   H2Y 6006   6.737   1.848   9.935 -2.0369 -0.8652 -0.8556
   70SLPC   C23 6007   6.273   2.158   9.932 -0.2114  0.3849 -0.0713
   70SLPC   H3R 6008   6.175   2.120   9.896  0.7794 -0.6744 -1.7664
   70SLPC   H3S 6009   6.339   2.070   9.948 -0.0897  0.2469 -1.2377
   70SLPC   C24 6010   6.342   2.221   9.813  0.3049  0.1301  0.5248
   70SLPC   H4R 6011   6.450   2.236   9.831  0.6158  1.7979 -2.1065
   70SLPC   H4S 6012   6.305   2.323   9.789 -0.7228 -0.3341  0.0632
   70SLPC   C25 6013   6.319   2.134   9.686  0.1979  0.3163  0.1642
   70SLPC   H5R 6014   6.209   2.128   9.673  0.3309 -0.5796 -0.6069
   70SLPC   H5S 6015   6.358   2.031   9.694 -2.8524 -0.8468  1.2259
   70SLPC   C26 6016   6.365   2.201   9.555 -0.1488  0.1328  0.4253
   70SLPC   H6R 6017   6.476   2.196   9.544 -0.0485 -2.1143  1.8479
   70SLPC   H6S 6018   6.341   2.310   9.562  0.3670  0.2615  0.2351
   70SLPC   C27 6019   6.294   2.141   9.436  0.2675  0.1300  0.1453
   70SLPC   H7R 6020   6.184   2.153   9.446  0.1530 -0.5257 -0.2408
   70SLPC   H7S 6021   6.314   2.032   9.435 -1.5755 -0.2791  2.1298
   70SLPC   C28 6022   6.335   2.208   9.303 -0.4109  0.0033 -0.4065
   70SLPC   H8R 6023   6.443   2.200   9.276 -0.6544 -0.0301 -1.4110
   70SLPC   H8S 6024   6.317   2.317   9.315  0.9546  0.2198 -0.1627
   70SLPC   C29 6025   6.250   2.153   9.190 -0.5693 -0.2235 -0.7131
   70SLPC   H9R 6026   6.146   2.134   9.220  0.4363 -1.6591  2.2169
   70SLPC  C210 6027   6.289   2.119   9.066 -0.0451 -0.8659 -0.3656
   70SLPC  H10R 6028   6.212   2.069   9.005  0.0434 -2.1307  0.5043
   70SLPC  C211 6029   6.426   2.136   9.008 -0.7999 -0.3362 -0.1941
   70SLPC  H11R 6030   6.491   2.054   9.045 -0.3178  0.2387  0.2712
   70SLPC  H11S 6031   6.478   2.220   9.060  0.2956 -1.7415  1.0658
   70SLPC  C212 6032   6.432   2.149   8.860  0.3207  0.0852 -0.3205
   70SLPC  H12R 6033   6.416   2.252   8.826 -2.3122 -0.1004  0.1257
   70SLPC  C213 6034   6.439   2.050   8.767 -0.3429 -1.0474 -0.1689
   70SLPC  H13R 6035   6.448   2.073   8.660  0.4437 -1.9194 -0.3099
   70SLPC  C214 6036   6.439   1.905   8.795  0.4530 -0.1561  0.8498
   70SLPC  H14R 6037   6.409   1.838   8.712 -0.4132  1.3663 -0.1126
   70SLPC  H14S 6038   6.362   1.888   8.874 -1.5413  1.7205 -0.5749
   70SLPC  C215 6039   6.574   1.863   8.841 -0.1830 -0.6809 -0.1330
   70SLPC  H15R 6040   6.589   1.897   8.946  0.3353 -2.2160  0.3164
   70SLPC  H15S 6041   6.653   1.908   8.778 -0.8447 -0.9035 -1.1484
   70SLPC  C216 6042   6.580   1.710   8.827 -0.2730  0.8424 -0.1767
   70SLPC  H16R 6043   6.594   1.687   8.719 -3.6731  0.5033 -0.6443
   70SLPC  H16S 6044   6.482   1.672   8.863 -0.1270 -0.0672 -0.7189
   70SLPC  C217 6045   6.693   1.655   8.921  0.5750 -0.3040  0.6957
   70SLPC  H17R 6046   6.670   1.667   9.029 -0.4740 -1.9552  0.6855
   70SLPC  H17S 6047   6.776   1.726   8.899  0.0245  0.0454 -0.3113
   70SLPC  C218 6048   6.724   1.510   8.892  0.0621 -0.2221  0.2223
   70SLPC  H18R 6049   6.773   1.504   8.793 -1.9887 -0.0429 -0.8509
   70SLPC  H18S 6050   6.632   1.447   8.892  0.5293 -0.9974 -2.0715
   70SLPC  H18T 6051   6.804   1.480   8.963  2.1675  0.6910 -1.6641
   70SLPC   C33 6052   6.826   1.979   9.783  0.3156 -0.4427  0.1997
   70SLPC   H3X 6053   6.916   1.920   9.812  0.4058 -0.4015  0.0045
   70SLPC   H3Y 6054   6.843   2.088   9.785  1.5460 -0.6249  0.3256
   70SLPC   C34 6055   6.772   1.936   9.645 -0.1939 -0.2800  0.1373
   70SLPC   H4X 6056   6.675   1.984   9.622  0.7346  0.8123 -1.7411
   70SLPC   H4Y 6057   6.745   1.829   9.650 -0.8266 -0.1672 -0.7287
   70SLPC   C35 6058   6.870   1.950   9.527 -0.2740 -0.0444  0.1900
   70SLPC   H5X 6059   6.947   1.872   9.544 -0.5225  0.0468  1.8742
   70SLPC   H5Y 6060   6.913   2.053   9.532  1.3498 -0.7439  1.3008
   70SLPC   C36 6061   6.797   1.936   9.392 -0.1750  0.1266 -0.0617
   70SLPC   H6X 6062   6.701   1.990   9.397 -0.2957  0.0054 -0.8557
   70SLPC   H6Y 6063   6.761   1.831   9.383 -1.3502  0.5487 -0.3713
   70SLPC   C37 6064   6.878   1.983   9.273  0.0924 -0.2619  0.4368
   70SLPC   H7X 6065   6.976   1.933   9.285  0.6024  1.0047  1.8056
   70SLPC   H7Y 6066   6.886   2.093   9.282 -0.8802 -0.1473  0.0717
   70SLPC   C38 6067   6.820   1.959   9.136 -0.0724 -0.3639 -0.3168
   70SLPC   H8X 6068   6.712   1.987   9.128 -0.1909  0.2232  2.4736
   70SLPC   H8Y 6069   6.819   1.848   9.128 -2.6339 -0.5904  1.7128
   70SLPC   C39 6070   6.882   2.019   9.020 -0.7291  0.3442  0.7062
   70SLPC   H9X 6071   6.840   1.965   8.933  0.2446  0.7090  0.0023
   70SLPC   H9Y 6072   6.989   1.990   9.021 -1.5991 -3.4371 -0.3599
   70SLPC  C310 6073   6.854   2.168   9.007 -0.4567  0.4214  0.3928
   70SLPC  H10X 6074   6.906   2.216   9.093  0.4952 -1.8549  1.1645
   70SLPC  H10Y 6075   6.748   2.193   9.026 -0.3519  0.7349  0.5840
   70SLPC  C311 6076   6.915   2.214   8.875  0.5259  0.0366 -0.6695
   70SLPC  H11X 6077   7.004   2.150   8.855  0.0802 -2.1583  3.3534
   70SLPC  H11Y 6078   6.951   2.319   8.881  0.4332  0.0122  0.6529
   70SLPC  C312 6079   6.804   2.216   8.768 -0.0707  0.2945 -0.6934
   70SLPC  H12X 6080   6.721   2.283   8.800 -0.4062  0.5085 -1.9357
   70SLPC  H12Y 6081   6.760   2.115   8.757 -1.6641  0.9934 -0.9368
   70SLPC  C313 6082   6.845   2.282   8.637  0.3395 -0.3541 -0.2158
   70SLPC  H13X 6083   6.946   2.244   8.610  1.1557  1.8040 -0.3619
   70SLPC  H13Y 6084   6.838   2.391   8.654 -0.3964 -0.4100 -0.1338
   70SLPC  C314 6085   6.745   2.251   8.524 -0.0592  0.0247  0.2803
   70SLPC  H14X 6086   6.637   2.264   8.546  0.0792 -1.2105  1.8959
   70SLPC  H14Y 6087   6.765   2.146   8.491 -0.8374  0.5978 -2.2397
   70SLPC  C315 6088   6.762   2.346   8.408  0.1557 -0.0013  0.1373
   70SLPC  H15X 6089   6.868   2.340   8.374 -0.5960 -1.9760 -2.1764
   70SLPC  H15Y 6090   6.746   2.446   8.452  1.7981  0.9990 -1.3695
   70SLPC  C316 6091   6.661   2.319   8.293 -0.1488  0.1770 -0.0028
   70SLPC  H16X 6092   6.564   2.288   8.336 -0.8990 -0.3190 -1.9508
   70SLPC  H16Y 6093   6.707   2.229   8.246  3.0789  0.5800  2.0352
   70SLPC  C317 6094   6.643   2.432   8.199  0.8543 -1.0826  0.5029
   70SLPC  H17X 6095   6.728   2.446   8.130  0.3354  4.3138  0.4914
   70SLPC  H17Y 6096   6.618   2.526   8.253  0.2145 -0.3265 -1.0524
   70SLPC  C318 6097   6.516   2.413   8.107 -0.4171 -0.2868 -0.1722
   70SLPC  H18X 6098   6.422   2.419   8.165 -0.4408 -0.5538 -0.1803
   70SLPC  H18Y 6099   6.527   2.315   8.054 -2.3439 -1.2699  1.1237
   70SLPC  H18Z 6100   6.506   2.496   8.034 -0.4937  1.0342  1.3002
   71SLPC     N 6101   0.789   3.205  10.930  0.2991 -0.4809  0.8722
   71SLPC   C13 6102   0.899   3.134  10.992 -0.2362 -0.2622 -0.0876
   71SLPC  H13A 6103   0.971   3.204  11.034  1.3069 -2.7409  1.7066
   71SLPC  H13B 6104   0.869   3.074  11.076  0.4257  0.5909  0.7849
   71SLPC  H13C 6105   0.959   3.074  10.925  2.7514  1.6789  0.6181
   71SLPC   C14 6106   0.833   3.295  10.825  0.9160  0.3459  0.0997
   71SLPC  H14A 6107   0.757   3.362  10.788  1.3752  2.5085  2.7486
   71SLPC  H14B 6108   0.913   3.359  10.860 -0.1478  2.0060 -0.3638
   71SLPC  H14C 6109   0.863   3.234  10.741 -3.0716  0.7620 -1.8644
   71SLPC   C15 6110   0.719   3.287  11.041  0.0861 -0.2419 -0.2883
   71SLPC  H15A 6111   0.695   3.223  11.124  1.6392 -1.0606 -0.4318
   71SLPC  H15B 6112   0.793   3.359  11.073  0.0538  0.4998 -1.7675
   71SLPC  H15C 6113   0.630   3.331  10.999  1.1126  1.0480 -1.2100
   71SLPC   C12 6114   0.676   3.113  10.874 -0.0618  0.6012  0.1265
   71SLPC  H12A 6115   0.586   3.165  10.847 -2.5642 -3.7709 -0.8711
   71SLPC  H12B 6116   0.642   3.050  10.954  0.4321  1.2704  0.8837
   71SLPC   C11 6117   0.736   3.029  10.757 -0.0112 -0.2085 -0.3095
   71SLPC  H11A 6118   0.786   3.081  10.673  1.4991  0.1331  0.7579
   71SLPC  H11B 6119   0.655   2.969  10.709  0.7247 -2.3621  1.0013
   71SLPC     P 6120   0.942   2.860  10.726  0.2353 -0.0994 -0.0424
   71SLPC   O13 6121   1.071   2.918  10.767  0.1295  0.5139  0.0295
   71SLPC   O14 6122   0.928   2.714  10.727  0.2456  0.4205  0.5562
   71SLPC   O12 6123   0.825   2.929  10.810  0.1620  0.4313 -0.2117
   71SLPC   O11 6124   0.903   2.904  10.579 -0.0120 -0.0938 -0.3088
   71SLPC    C1 6125   0.806   2.835  10.502  0.6757  0.4916  0.6465
   71SLPC    HA 6126   0.740   2.774  10.568 -0.9781 -0.2676 -1.5759
   71SLPC    HB 6127   0.743   2.906  10.445 -1.3974 -0.5661  1.5099
   71SLPC    C2 6128   0.867   2.735  10.393 -0.0309  0.4951  0.6385
   71SLPC    HS 6129   0.951   2.674  10.434  1.3746 -0.5977 -3.4437
   71SLPC   O21 6130   0.914   2.816  10.285  0.5166  0.0104  0.2123
   71SLPC   C21 6131   1.048   2.852  10.297  0.9829  0.3622 -1.0470
   71SLPC   O22 6132   1.129   2.788  10.371  0.1189 -0.2167  0.0740
   71SLPC   C22 6133   1.074   2.980  10.218  0.1776  0.2684 -0.1488
   71SLPC   H2R 6134   1.061   2.966  10.108 -0.6176  0.0708 -0.0402
   71SLPC   H2S 6135   0.985   3.038  10.251  0.5376 -0.1112  1.5503
   71SLPC    C3 6136   0.759   2.630  10.349 -0.6655  0.1558 -0.3467
   71SLPC    HX 6137   0.663   2.678  10.319 -0.3715  0.2923 -1.1110
   71SLPC    HY 6138   0.734   2.574  10.442  2.8766  0.3454  0.8631
   71SLPC   O31 6139   0.788   2.555  10.229  0.0654 -0.3997 -0.9369
   71SLPC   C31 6140   0.874   2.458  10.254 -0.1920  0.6025 -1.3319
   71SLPC   O32 6141   0.913   2.422  10.364 -0.0610  0.0666  0.2600
   71SLPC   C32 6142   0.927   2.394  10.124  0.1630 -0.0082 -0.0899
   71SLPC   H2X 6143   0.890   2.290  10.112 -0.5784  0.4368 -2.0093
   71SLPC   H2Y 6144   1.037   2.375  10.127 -0.0759 -1.6638 -1.0029
   71SLPC   C23 6145   1.207   3.058  10.281 -0.4267  0.9872  0.1809
   71SLPC   H3R 6146   1.216   3.051  10.391 -0.4925 -1.5800  0.0925
   71SLPC   H3S 6147   1.210   3.168  10.267  0.8473  1.2005  1.8656
   71SLPC   C24 6148   1.340   3.003  10.217  0.6998 -0.5143 -0.5362
   71SLPC   H4R 6149   1.330   3.006  10.106 -1.5511  0.5291 -0.3451
   71SLPC   H4S 6150   1.350   2.893  10.233 -0.4134 -1.2129 -3.8409
   71SLPC   C25 6151   1.471   3.075  10.269 -0.2405 -0.4968  0.0381
   71SLPC   H5R 6152   1.501   3.026  10.364 -0.2527  0.0779  0.3394
   71SLPC   H5S 6153   1.445   3.182  10.284  3.4875  0.6155 -0.5058
   71SLPC   C26 6154   1.596   3.065  10.176 -0.6305 -0.3766  0.6523
   71SLPC   H6R 6155   1.687   3.103  10.228 -0.5489 -0.8400  0.8560
   71SLPC   H6S 6156   1.600   3.118  10.078 -0.6500 -3.5838 -1.2526
   71SLPC   C27 6157   1.636   2.923  10.142  0.8731 -0.3596 -0.7344
   71SLPC   H7R 6158   1.537   2.886  10.107 -0.0965 -0.0148  1.5114
   71SLPC   H7S 6159   1.666   2.866  10.233  0.5358 -0.2278 -0.5414
   71SLPC   C28 6160   1.740   2.899  10.034 -0.0899  0.7754  0.5729
   71SLPC   H8R 6161   1.834   2.935  10.081  1.1005  0.7082 -1.5889
   71SLPC   H8S 6162   1.717   2.969   9.950 -0.0311  2.9923  2.3154
   71SLPC   C29 6163   1.764   2.758   9.997  0.2834 -0.8027  0.2188
   71SLPC   H9R 6164   1.754   2.686  10.080 -0.7519  1.0248  1.7618
   71SLPC  C210 6165   1.780   2.721   9.872 -0.0963 -0.2804 -0.4221
   71SLPC  H10R 6166   1.792   2.612   9.867 -1.8952 -0.5511  0.3065
   71SLPC  C211 6167   1.798   2.800   9.742 -0.1669 -0.4664 -0.4936
   71SLPC  H11R 6168   1.907   2.819   9.734  0.2203 -0.4099  3.2016
   71SLPC  H11S 6169   1.763   2.905   9.742 -0.8675 -0.6930 -0.1670
   71SLPC  C212 6170   1.735   2.740   9.625 -0.1988 -0.4930  0.3536
   71SLPC  H12R 6171   1.633   2.780   9.612 -0.7585 -1.8974  0.2561
   71SLPC  C213 6172   1.799   2.671   9.530  0.6396  0.1301  0.0221
   71SLPC  H13R 6173   1.735   2.631   9.449  0.3463  1.2532 -0.3169
   71SLPC  C214 6174   1.942   2.625   9.535  0.1521  0.3173 -0.3489
   71SLPC  H14R 6175   1.932   2.515   9.544  1.1973  0.2583  0.1655
   71SLPC  H14S 6176   2.000   2.671   9.618 -0.9318 -0.0891  0.6731
   71SLPC  C215 6177   2.006   2.672   9.399  0.1712  0.2487 -0.3230
   71SLPC  H15R 6178   2.116   2.674   9.410  0.3883 -4.1953  0.2830
   71SLPC  H15S 6179   1.984   2.778   9.378  0.5981  0.1266 -1.4128
   71SLPC  C216 6180   1.958   2.581   9.270 -0.1652 -0.0596 -0.0983
   71SLPC  H16R 6181   1.847   2.591   9.261 -0.4165 -0.7486  1.7974
   71SLPC  H16S 6182   1.989   2.475   9.277 -0.7373 -0.1556  1.2198
   71SLPC  C217 6183   2.020   2.635   9.144 -0.4541  0.2375 -0.3895
   71SLPC  H17R 6184   2.128   2.619   9.165 -0.6794  0.5785  1.1610
   71SLPC  H17S 6185   1.995   2.743   9.145 -2.0883  0.0060 -3.4798
   71SLPC  C218 6186   1.970   2.576   9.008  0.4057  0.0960  0.0595
   71SLPC  H18R 6187   2.002   2.648   8.930  0.3935 -0.4255 -0.4336
   71SLPC  H18S 6188   1.861   2.557   8.995  0.4998 -0.3766 -0.0740
   71SLPC  H18T 6189   2.018   2.475   9.003 -1.4656 -0.8989  1.2024
   71SLPC   C33 6190   0.907   2.481   9.995  0.1758  0.3952  0.2323
   71SLPC   H3X 6191   0.938   2.586  10.015  0.0482  0.8328 -1.7085
   71SLPC   H3Y 6192   0.798   2.490   9.979  0.5906  0.1742 -3.7252
   71SLPC   C34 6193   0.978   2.416   9.875  0.5881  0.3379  0.4247
   71SLPC   H4X 6194   0.930   2.319   9.851  1.3045  0.1213 -0.1771
   71SLPC   H4Y 6195   1.082   2.395   9.909  0.6680 -1.4091 -0.7833
   71SLPC   C35 6196   0.976   2.497   9.742  0.1196  1.0590  0.1008
   71SLPC   H5X 6197   1.059   2.450   9.686 -2.4742 -1.2534 -2.1136
   71SLPC   H5Y 6198   1.001   2.605   9.749 -0.2392  1.0917  1.0316
   71SLPC   C36 6199   0.837   2.484   9.669 -0.8374 -0.5202 -0.3932
   71SLPC   H6X 6200   0.763   2.535   9.734 -0.6607 -1.0782  0.2568
   71SLPC   H6Y 6201   0.798   2.380   9.677 -0.8609 -0.5113 -0.3910
   71SLPC   C37 6202   0.828   2.542   9.527 -0.2155 -0.2471 -0.0929
   71SLPC   H7X 6203   0.855   2.649   9.534  0.2659 -0.3227 -0.6937
   71SLPC   H7Y 6204   0.720   2.528   9.502 -0.9000  0.8284  2.0636
   71SLPC   C38 6205   0.905   2.480   9.413  0.1085  0.4645  0.8438
   71SLPC   H8X 6206   1.013   2.484   9.439  0.5203 -0.2291 -0.6281
   71SLPC   H8Y 6207   0.882   2.535   9.319 -1.1423 -2.9340 -1.0090
   71SLPC   C39 6208   0.868   2.331   9.391 -0.4938  0.5646 -0.1135
   71SLPC   H9X 6209   0.757   2.333   9.390 -0.5435 -0.6726  0.5859
   71SLPC   H9Y 6210   0.912   2.262   9.466  1.6643 -0.6253 -2.3440
   71SLPC  C310 6211   0.913   2.276   9.254  0.6141 -0.0359  0.4278
   71SLPC  H10X 6212   0.908   2.356   9.177 -0.1767  0.9645  1.4806
   71SLPC  H10Y 6213   0.837   2.199   9.229  1.6762 -0.6996 -0.9701
   71SLPC  C311 6214   1.048   2.206   9.250 -0.8574  0.2141 -0.0424
   71SLPC  H11X 6215   1.055   2.130   9.331  1.4510 -0.5058 -0.8341
   71SLPC  H11Y 6216   1.138   2.265   9.278 -0.1220  0.0916 -1.9613
   71SLPC  C312 6217   1.085   2.128   9.121  0.5189 -0.0546 -0.0673
   71SLPC  H12X 6218   1.002   2.075   9.072  2.0365 -0.8937 -1.8340
   71SLPC  H12Y 6219   1.158   2.049   9.150 -0.1304 -0.3123  0.8998
   71SLPC  C313 6220   1.133   2.219   9.009 -0.0385 -0.2821 -0.0858
   71SLPC  H13X 6221   1.232   2.259   9.042 -0.2708  0.8489 -0.7227
   71SLPC  H13Y 6222   1.070   2.309   8.998  0.4282 -0.1062 -1.6011
   71SLPC  C314 6223   1.153   2.148   8.875  0.1915  1.2130  0.7342
   71SLPC  H14X 6224   1.053   2.118   8.839  0.6502  0.5658 -0.0336
   71SLPC  H14Y 6225   1.219   2.059   8.889 -2.2760 -1.1766 -1.4326
   71SLPC  C315 6226   1.215   2.228   8.762  0.0881 -0.3178  0.0810
   71SLPC  H15X 6227   1.139   2.298   8.721 -0.6765 -2.1138 -1.7477
   71SLPC  H15Y 6228   1.226   2.156   8.679  1.1006  1.4951 -1.4121
   71SLPC  C316 6229   1.350   2.308   8.792  0.5684 -0.0533  0.0345
   71SLPC  H16X 6230   1.336   2.390   8.866 -1.0765  1.0442 -1.4066
   71SLPC  H16Y 6231   1.374   2.363   8.698  1.7768 -0.3777  0.1363
   71SLPC  C317 6232   1.474   2.226   8.827 -0.5581 -0.0695  0.0226
   71SLPC  H17X 6233   1.465   2.179   8.927  1.7680 -1.7927 -0.4934
   71SLPC  H17Y 6234   1.556   2.301   8.834 -0.8006  0.5056 -2.4235
   71SLPC  C318 6235   1.526   2.125   8.730  0.2765  0.4513  0.1778
   71SLPC  H18X 6236   1.460   2.036   8.726  2.7077 -1.4316 -1.2616
   71SLPC  H18Y 6237   1.614   2.070   8.771 -1.6536 -2.1910  1.0459
   71SLPC  H18Z 6238   1.535   2.155   8.624  2.7150  0.5472  0.3628
   72SLPC     N 6239   3.696   0.693  10.767 -0.6212 -0.8654  0.2792
   72SLPC   C13 6240   3.623   0.703  10.897 -0.2915 -0.0663 -0.2193
   72SLPC  H13A 6241   3.671   0.777  10.960 -1.4580  0.2031  0.3781
   72SLPC  H13B 6242   3.520   0.732  10.889 -0.1613  0.7992  0.9381
   72SLPC  H13C 6243   3.632   0.609  10.949 -1.8349 -1.4370 -2.2617
   72SLPC   C14 6244   3.837   0.638  10.782 -0.7275 -0.2275 -0.7986
   72SLPC  H14A 6245   3.889   0.696  10.856 -0.3732 -1.0022 -0.4289
   72SLPC  H14B 6246   3.837   0.533  10.807 -2.2954  0.2295  1.3909
   72SLPC  H14C 6247   3.898   0.648  10.693  1.2316 -1.7498  0.2925
   72SLPC   C15 6248   3.694   0.838  10.712 -0.5410  0.4437 -0.4484
   72SLPC  H15A 6249   3.601   0.854  10.660 -0.0713  0.4392 -1.3145
   72SLPC  H15B 6250   3.689   0.915  10.787  0.6604 -0.8001  0.9820
   72SLPC  H15C 6251   3.772   0.859  10.639  1.3256 -1.1674  0.9722
   72SLPC   C12 6252   3.614   0.597  10.678 -0.8158 -0.4585 -1.2748
   72SLPC  H12A 6253   3.648   0.602  10.575  1.8732  0.7796 -0.4039
   72SLPC  H12B 6254   3.513   0.634  10.684 -0.4635  0.4250 -0.6281
   72SLPC   C11 6255   3.614   0.451  10.730 -0.6027 -0.1399 -0.3098
   72SLPC  H11A 6256   3.574   0.442  10.833  0.1412 -0.0336 -0.0062
   72SLPC  H11B 6257   3.715   0.406  10.723  0.1465  1.5524 -0.8366
   72SLPC     P 6258   3.374   0.392  10.666  0.1744  0.0143  0.2542
   72SLPC   O13 6259   3.346   0.302  10.782 -0.1364  0.0037  0.0912
   72SLPC   O14 6260   3.325   0.528  10.683 -0.5765 -0.3961 -0.2976
   72SLPC   O12 6261   3.526   0.395  10.639 -0.3341 -0.5437 -0.2407
   72SLPC   O11 6262   3.304   0.338  10.540 -0.0539 -0.3460  0.2048
   72SLPC    C1 6263   3.392   0.354  10.419 -0.5294  0.3835 -0.6234
   72SLPC    HA 6264   3.445   0.451  10.406  2.8215 -1.0178  1.4314
   72SLPC    HB 6265   3.464   0.270  10.420 -2.7577 -1.6517 -0.7444
   72SLPC    C2 6266   3.311   0.339  10.294  0.1721 -0.6852 -0.0467
   72SLPC    HS 6267   3.277   0.233  10.299 -2.5363  0.1324  0.6244
   72SLPC   O21 6268   3.387   0.365  10.176  0.1761 -0.2723  0.1021
   72SLPC   C21 6269   3.331   0.307  10.072 -0.5680 -0.1745  0.5660
   72SLPC   O22 6270   3.244   0.224  10.064  0.2931  0.1659  0.1267
   72SLPC   C22 6271   3.414   0.360   9.944  0.5338  0.0985 -0.0298
   72SLPC   H2R 6272   3.408   0.471   9.936  0.7670  0.3241  2.2448
   72SLPC   H2S 6273   3.516   0.327   9.971  0.0073 -1.1339  0.5623
   72SLPC    C3 6274   3.185   0.440  10.307  0.1798  0.3386 -0.0590
   72SLPC    HX 6275   3.216   0.546  10.308 -0.3207  0.4842  1.0925
   72SLPC    HY 6276   3.131   0.431  10.403  0.8237 -0.1167  0.2644
   72SLPC   O31 6277   3.092   0.424  10.204 -0.0815 -0.0349  0.4714
   72SLPC   C31 6278   3.021   0.306  10.216  0.1767 -1.2085 -0.2449
   72SLPC   O32 6279   3.025   0.225  10.307  0.0278  0.0718 -0.0964
   72SLPC   C32 6280   2.934   0.308  10.088  0.9206  0.3225  0.6294
   72SLPC   H2X 6281   2.995   0.341  10.002  2.3249 -2.3035  0.5085
   72SLPC   H2Y 6282   2.852   0.383  10.098  2.5249  2.7260 -2.4973
   72SLPC   C23 6283   3.361   0.293   9.813 -0.1894 -0.2245  0.1556
   72SLPC   H3R 6284   3.270   0.340   9.769  1.1265  1.2329 -1.1348
   72SLPC   H3S 6285   3.344   0.184   9.825  0.0193 -0.5805 -2.3075
   72SLPC   C24 6286   3.454   0.297   9.691 -0.5688 -0.0557  0.7551
   72SLPC   H4R 6287   3.562   0.277   9.707  0.0100 -0.1981 -2.5661
   72SLPC   H4S 6288   3.463   0.396   9.641  0.5733 -0.7736 -0.5215
   72SLPC   C25 6289   3.411   0.209   9.576  0.1056 -0.4287  0.3464
   72SLPC   H5R 6290   3.304   0.219   9.549 -0.5887 -1.2079  2.5399
   72SLPC   H5S 6291   3.414   0.103   9.611 -0.5098 -0.3692  0.5867
   72SLPC   C26 6292   3.499   0.220   9.445  0.3093 -0.0365 -0.4609
   72SLPC   H6R 6293   3.603   0.199   9.475  0.5578 -0.1113 -1.3481
   72SLPC   H6S 6294   3.495   0.323   9.405  2.4706 -0.3313 -1.5563
   72SLPC   C27 6295   3.459   0.109   9.349  0.6652 -0.7747 -0.5823
   72SLPC   H7R 6296   3.354   0.125   9.317  0.7802  1.4141 -0.0263
   72SLPC   H7S 6297   3.459   0.014   9.406  0.1900 -1.1614 -1.2030
   72SLPC   C28 6298   3.544   0.105   9.225  0.4140  0.1969  0.5666
   72SLPC   H8R 6299   3.651   0.084   9.247  0.3634 -1.7892 -0.8214
   72SLPC   H8S 6300   3.542   0.200   9.168  1.5929  0.2286  0.5490
   72SLPC   C29 6301   3.502  -0.002   9.125  0.1977  0.5938 -0.7266
   72SLPC   H9R 6302   3.545  -0.104   9.132 -0.8086 -0.0178 -2.6908
   72SLPC  C210 6303   3.419   0.008   9.022 -0.2674 -0.6068  0.0652
   72SLPC  H10R 6304   3.400  -0.087   8.970  0.7282 -1.7298  1.6735
   72SLPC  C211 6305   3.343   0.124   8.983 -0.5889  0.1877  0.1366
   72SLPC  H11R 6306   3.417   0.202   8.955  0.1869  1.3911  4.6120
   72SLPC  H11S 6307   3.299   0.173   9.073 -0.0395 -0.9965  1.0749
   72SLPC  C212 6308   3.238   0.112   8.877  0.4072  0.2156 -0.1433
   72SLPC  H12R 6309   3.136   0.122   8.918  0.7166  0.6496  0.5479
   72SLPC  C213 6310   3.257   0.114   8.744  0.6621  0.5216 -0.1164
   72SLPC  H13R 6311   3.169   0.113   8.678  1.4805  1.3054 -1.2755
   72SLPC  C214 6312   3.393   0.136   8.680  0.7152 -0.3409 -0.6339
   72SLPC  H14R 6313   3.418   0.039   8.630  0.2570 -0.0233 -1.5015
   72SLPC  H14S 6314   3.475   0.155   8.753 -0.5100 -0.0369  0.6947
   72SLPC  C215 6315   3.398   0.246   8.576 -0.1459  0.3560  0.2277
   72SLPC  H15R 6316   3.392   0.349   8.617 -0.1094  0.6727 -0.5525
   72SLPC  H15S 6317   3.316   0.234   8.502 -1.6911  1.2238  1.7217
   72SLPC  C216 6318   3.539   0.239   8.512 -0.4644 -0.4211  0.7004
   72SLPC  H16R 6319   3.541   0.155   8.439 -1.6923 -0.8545  1.1503
   72SLPC  H16S 6320   3.619   0.215   8.586 -1.3263 -3.1833  0.8519
   72SLPC  C217 6321   3.566   0.368   8.430 -0.0861  0.4844  0.3574
   72SLPC  H17R 6322   3.677   0.374   8.420 -0.0206  0.1065  0.7900
   72SLPC  H17S 6323   3.543   0.458   8.491  1.1688  0.6517  0.6158
   72SLPC  C218 6324   3.500   0.387   8.293  0.3970 -0.6449 -0.4116
   72SLPC  H18R 6325   3.391   0.397   8.313  0.6290  1.9074 -0.1779
   72SLPC  H18S 6326   3.509   0.297   8.228  0.2564  0.5409 -2.1102
   72SLPC  H18T 6327   3.531   0.468   8.225  2.5978 -1.7959 -0.8644
   72SLPC   C33 6328   2.881   0.166  10.058  0.1164  0.3884 -0.6732
   72SLPC   H3X 6329   2.814   0.117  10.132 -0.6588 -1.0832 -2.2665
   72SLPC   H3Y 6330   2.973   0.104  10.047  1.2844  1.7723  0.8008
   72SLPC   C34 6331   2.812   0.151   9.930  0.1927  0.2655  0.1587
   72SLPC   H4X 6332   2.729   0.225   9.923  1.4763  1.7822  0.2313
   72SLPC   H4Y 6333   2.769   0.050   9.917  1.2587 -0.3487  1.1733
   72SLPC   C35 6334   2.911   0.186   9.809 -0.4563 -0.2539  0.2371
   72SLPC   H5X 6335   3.006   0.134   9.831  0.3240  1.3421  0.8493
   72SLPC   H5Y 6336   2.936   0.294   9.819 -1.7311 -0.0157  1.0072
   72SLPC   C36 6337   2.853   0.161   9.671  0.2709 -0.5437  0.0271
   72SLPC   H6X 6338   2.770   0.234   9.663 -0.9170 -1.9318 -0.5786
   72SLPC   H6Y 6339   2.830   0.053   9.663  2.9946 -1.3307  1.4726
   72SLPC   C37 6340   2.961   0.190   9.572 -0.0793 -0.9295  0.5316
   72SLPC   H7X 6341   3.042   0.115   9.581  1.3604  0.7261  2.2003
   72SLPC   H7Y 6342   3.005   0.291   9.591 -1.1842 -0.4970  0.8688
   72SLPC   C38 6343   2.916   0.196   9.418 -0.4851  0.5287 -0.1204
   72SLPC   H8X 6344   2.966   0.281   9.366 -0.9268 -0.2927 -1.9548
   72SLPC   H8Y 6345   2.808   0.218   9.404 -0.7003 -1.7624 -2.8134
   72SLPC   C39 6346   2.954   0.070   9.337 -0.0862 -0.6607  0.1663
   72SLPC   H9X 6347   2.911  -0.018   9.389 -0.7347  0.7840  2.2141
   72SLPC   H9Y 6348   3.064   0.057   9.338 -0.0887 -0.6789  0.1972
   72SLPC  C310 6349   2.875   0.067   9.209 -0.5673  0.5136  0.2003
   72SLPC  H10X 6350   2.875   0.165   9.157  3.9519  1.4934  1.5978
   72SLPC  H10Y 6351   2.774   0.024   9.223 -0.6738  0.1839 -1.3391
   72SLPC  C311 6352   2.941  -0.026   9.112  0.2397  0.6908 -0.0631
   72SLPC  H11X 6353   2.951  -0.127   9.158 -0.6690  1.1842  1.2850
   72SLPC  H11Y 6354   3.040   0.011   9.077  0.0333  1.9563  0.6139
   72SLPC  C312 6355   2.853  -0.045   8.981 -0.0494  0.7336  0.3993
   72SLPC  H12X 6356   2.851   0.052   8.927 -0.1021 -0.4042 -1.7178
   72SLPC  H12Y 6357   2.748  -0.052   9.017 -0.0101  2.1560  0.8872
   72SLPC  C313 6358   2.903  -0.162   8.897  0.6691  0.4696  0.1627
   72SLPC  H13X 6359   2.929  -0.247   8.965  0.5641 -1.7953 -2.4595
   72SLPC  H13Y 6360   3.000  -0.138   8.849 -0.1092 -1.8318 -2.9190
   72SLPC  C314 6361   2.805  -0.224   8.798 -0.2310  0.1074 -0.2716
   72SLPC  H14X 6362   2.709  -0.258   8.842 -0.2778 -0.8348 -1.0491
   72SLPC  H14Y 6363   2.850  -0.309   8.741  1.3120  0.3495  0.5535
   72SLPC  C315 6364   2.770  -0.114   8.690 -0.0923 -0.1227  0.4087
   72SLPC  H15X 6365   2.870  -0.076   8.659 -0.2881 -0.3049 -0.4789
   72SLPC  H15Y 6366   2.699  -0.043   8.736 -0.4619  0.5751 -1.1653
   72SLPC  C316 6367   2.691  -0.178   8.573  0.1620  0.4018 -0.2102
   72SLPC  H16X 6368   2.603  -0.223   8.623 -0.5718  2.4718  0.4785
   72SLPC  H16Y 6369   2.752  -0.262   8.533 -0.3951 -0.6186  1.0071
   72SLPC  C317 6370   2.649  -0.079   8.466 -1.0335 -0.5427  0.4726
   72SLPC  H17X 6371   2.718   0.001   8.433 -1.3377 -0.4348  0.0915
   72SLPC  H17Y 6372   2.559  -0.025   8.503  0.0601  1.1493  0.8079
   72SLPC  C318 6373   2.590  -0.151   8.335  0.0232 -0.1268  0.0121
   72SLPC  H18X 6374   2.487  -0.184   8.358 -0.1362  2.3375  3.7946
   72SLPC  H18Y 6375   2.648  -0.243   8.311 -2.2495 -1.0634 -2.3393
   72SLPC  H18Z 6376   2.584  -0.078   8.251  1.8373  1.0149  0.7924
   73SLPC     N 6377   2.242   5.156  10.895  0.0524  0.1981 -0.2143
   73SLPC   C13 6378   2.358   5.234  10.854 -0.2840  0.7002 -0.3780
   73SLPC  H13A 6379   2.434   5.175  10.805  0.4982  0.0573  1.5130
   73SLPC  H13B 6380   2.329   5.311  10.785 -1.1678 -1.3509 -2.4256
   73SLPC  H13C 6381   2.401   5.277  10.943  2.8756 -1.9205 -0.4511
   73SLPC   C14 6382   2.161   5.129  10.771 -0.2404 -0.0756 -0.0037
   73SLPC  H14A 6383   2.075   5.068  10.797 -0.4693  1.6724  4.1389
   73SLPC  H14B 6384   2.142   5.219  10.715 -2.2781 -0.1521  0.4566
   73SLPC  H14C 6385   2.214   5.062  10.706 -1.4326 -0.4314 -0.6311
   73SLPC   C15 6386   2.171   5.243  11.003  0.4051 -0.4628  0.0155
   73SLPC  H15A 6387   2.154   5.342  10.964 -2.3865 -0.0145  2.0883
   73SLPC  H15B 6388   2.077   5.193  11.020 -0.8092  1.2522 -1.2846
   73SLPC  H15C 6389   2.221   5.249  11.098  0.7387  1.5704 -0.2522
   73SLPC   C12 6390   2.288   5.033  10.972 -0.2607 -0.1003 -0.1712
   73SLPC  H12A 6391   2.205   4.967  10.994  0.2628 -1.0093 -0.8731
   73SLPC  H12B 6392   2.327   5.046  11.072 -0.7610 -1.4987  0.2314
   73SLPC   C11 6393   2.386   4.933  10.906  0.1688 -0.3812  0.0805
   73SLPC  H11A 6394   2.388   4.852  10.982  3.4987  0.0778  0.6449
   73SLPC  H11B 6395   2.490   4.970  10.895 -0.4333  0.9759 -1.4146
   73SLPC     P 6396   2.242   4.764  10.771  0.4866 -0.0499  0.0706
   73SLPC   O13 6397   2.278   4.661  10.868 -0.2280  1.0852  0.1230
   73SLPC   O14 6398   2.100   4.810  10.788 -0.2892 -0.3036 -0.0146
   73SLPC   O12 6399   2.344   4.880  10.782  0.1308 -0.2655  0.0926
   73SLPC   O11 6400   2.265   4.696  10.630 -0.3089  0.1016  1.0565
   73SLPC    C1 6401   2.257   4.762  10.503  0.3652  0.1062  0.7190
   73SLPC    HA 6402   2.294   4.866  10.516  0.7728  0.2043 -0.9909
   73SLPC    HB 6403   2.324   4.721  10.425  1.3405 -1.0996  2.1377
   73SLPC    C2 6404   2.111   4.756  10.451  0.1510  0.6991  0.5300
   73SLPC    HS 6405   2.042   4.778  10.536 -1.3451 -1.0431 -0.1687
   73SLPC   O21 6406   2.089   4.623  10.391  1.2911  0.5211 -0.2418
   73SLPC   C21 6407   1.970   4.578  10.395 -0.3045  0.4113 -0.4781
   73SLPC   O22 6408   1.875   4.622  10.460 -0.2508  0.0864  0.1736
   73SLPC   C22 6409   1.966   4.440  10.330  1.0306  0.1144 -0.0416
   73SLPC   H2R 6410   2.068   4.407  10.300  1.7777  1.0326  1.3866
   73SLPC   H2S 6411   1.923   4.377  10.410  1.6803 -0.5384 -0.1946
   73SLPC    C3 6412   2.066   4.860  10.340  0.0144 -0.6420  0.1404
   73SLPC    HX 6413   2.087   4.956  10.392  0.3899 -1.9197  2.5044
   73SLPC    HY 6414   1.957   4.842  10.328  0.0393 -1.5877  1.1526
   73SLPC   O31 6415   2.149   4.862  10.217 -0.4281  0.2323 -0.7239
   73SLPC   C31 6416   2.102   4.787  10.119  0.5824 -0.9237 -0.5055
   73SLPC   O32 6417   1.999   4.720  10.122  0.5039 -0.6434 -0.1452
   73SLPC   C32 6418   2.184   4.805   9.993  0.6642 -0.0025  0.4086
   73SLPC   H2X 6419   2.287   4.767  10.008  0.2294 -2.0902 -1.3365
   73SLPC   H2Y 6420   2.196   4.913   9.972  0.7692  0.0533  0.7634
   73SLPC   C23 6421   1.862   4.428  10.210 -0.2926 -0.4007  0.9748
   73SLPC   H3R 6422   1.832   4.528  10.174  1.3770 -0.2378 -0.0986
   73SLPC   H3S 6423   1.765   4.387  10.243 -0.8111  0.6355  0.7654
   73SLPC   C24 6424   1.917   4.351  10.086  0.0951  0.6948  0.4087
   73SLPC   H4R 6425   1.960   4.254  10.119 -0.1120  0.6945  0.6788
   73SLPC   H4S 6426   1.997   4.412  10.039  0.7991 -0.2653  0.3238
   73SLPC   C25 6427   1.818   4.328   9.975  0.0208  0.0761  0.2819
   73SLPC   H5R 6428   1.782   4.430   9.949 -0.5353 -0.6090 -1.8270
   73SLPC   H5S 6429   1.731   4.266  10.007 -0.2211  0.8360  1.1810
   73SLPC   C26 6430   1.880   4.260   9.854 -0.1289 -0.0975 -0.0380
   73SLPC   H6R 6431   1.941   4.177   9.898 -0.4849  0.0235  0.7092
   73SLPC   H6S 6432   1.949   4.340   9.821 -0.0488  0.0494  0.4796
   73SLPC   C27 6433   1.779   4.206   9.755 -0.9432 -0.2523 -0.2261
   73SLPC   H7R 6434   1.714   4.289   9.719  0.6120  1.3976  0.5713
   73SLPC   H7S 6435   1.710   4.130   9.797 -0.8798 -1.6999 -2.5997
   73SLPC   C28 6436   1.842   4.142   9.631 -0.0832 -0.4217 -0.0554
   73SLPC   H8R 6437   1.892   4.045   9.652 -2.2828 -1.8591 -1.1092
   73SLPC   H8S 6438   1.914   4.217   9.592  0.9524 -0.3442  1.9009
   73SLPC   C29 6439   1.740   4.105   9.528  0.7596 -0.5834 -0.1139
   73SLPC   H9R 6440   1.657   4.046   9.569  0.4249  0.1257  0.2499
   73SLPC  C210 6441   1.746   4.139   9.399  0.8328 -0.4128  0.7948
   73SLPC  H10R 6442   1.666   4.109   9.330 -0.3758  0.0536  1.9533
   73SLPC  C211 6443   1.857   4.219   9.326 -0.2700  0.3768 -0.1385
   73SLPC  H11R 6444   1.948   4.229   9.389  0.4804 -3.5000 -0.3798
   73SLPC  H11S 6445   1.830   4.326   9.315  1.5151  1.4525  3.9769
   73SLPC  C212 6446   1.897   4.152   9.196 -0.3845 -0.1966 -0.1155
   73SLPC  H12R 6447   1.874   4.045   9.188  2.0304 -0.7874 -0.1124
   73SLPC  C213 6448   1.968   4.214   9.099 -0.3052 -0.2197  0.8184
   73SLPC  H13R 6449   1.995   4.157   9.009  1.7192 -1.3464  2.0804
   73SLPC  C214 6450   2.020   4.359   9.102 -0.4845 -0.2472  0.0858
   73SLPC  H14R 6451   2.130   4.354   9.084 -0.6746 -0.7678 -0.9880
   73SLPC  H14S 6452   2.001   4.405   9.201 -1.3050  0.9509 -0.6069
   73SLPC  C215 6453   1.965   4.452   8.997  0.0592 -0.3011  0.1376
   73SLPC  H15R 6454   1.998   4.555   9.024  1.9057 -1.0245  0.7942
   73SLPC  H15S 6455   1.854   4.443   9.006  0.2323 -1.6167  1.3952
   73SLPC  C216 6456   2.008   4.416   8.855 -0.2123 -0.1312  0.0275
   73SLPC  H16R 6457   1.918   4.453   8.802 -0.3904 -3.1626 -2.0429
   73SLPC  H16S 6458   2.025   4.310   8.827  0.2432 -0.1231  0.2550
   73SLPC  C217 6459   2.122   4.498   8.796  0.4132  0.5162 -0.2001
   73SLPC  H17R 6460   2.116   4.465   8.691 -1.6719  3.2101 -1.0461
   73SLPC  H17S 6461   2.222   4.476   8.838  0.0334  0.8513  0.9529
   73SLPC  C218 6462   2.105   4.651   8.799  0.0724 -0.3903  0.8282
   73SLPC  H18R 6463   2.091   4.689   8.903  1.8392  0.7206  0.7087
   73SLPC  H18S 6464   2.015   4.680   8.741 -0.5871 -1.7567  1.1418
   73SLPC  H18T 6465   2.199   4.693   8.758 -1.0280  0.6968 -0.6742
   73SLPC   C33 6466   2.128   4.726   9.867 -0.0577  0.4940 -0.6420
   73SLPC   H3X 6467   2.035   4.777   9.834  1.4483  2.0257 -2.8084
   73SLPC   H3Y 6468   2.092   4.626   9.900  1.8926 -0.9742 -2.6338
   73SLPC   C34 6469   2.235   4.706   9.763 -0.5405  0.5387  0.2876
   73SLPC   H4X 6470   2.316   4.634   9.785 -0.3056  0.5255 -0.5843
   73SLPC   H4Y 6471   2.291   4.802   9.768  0.4925 -0.1079  2.2317
   73SLPC   C35 6472   2.177   4.681   9.628  0.2116  0.6646  0.6701
   73SLPC   H5X 6473   2.089   4.745   9.612 -0.5986 -0.9518 -2.1820
   73SLPC   H5Y 6474   2.137   4.578   9.615 -0.6667  1.3058 -2.4863
   73SLPC   C36 6475   2.270   4.691   9.505 -0.5641 -0.7662  0.0132
   73SLPC   H6X 6476   2.357   4.627   9.530  1.5171  2.4201  1.5482
   73SLPC   H6Y 6477   2.299   4.798   9.507  0.2670 -1.0049  1.4451
   73SLPC   C37 6478   2.194   4.642   9.379  0.0667  0.5350  0.0767
   73SLPC   H7X 6479   2.122   4.723   9.356 -0.9948 -0.3466  0.1609
   73SLPC   H7Y 6480   2.139   4.546   9.395  0.7977  0.2811  1.2162
   73SLPC   C38 6481   2.286   4.616   9.255  0.1547  0.1260  0.4170
   73SLPC   H8X 6482   2.259   4.524   9.199  3.4321 -1.5054  1.2168
   73SLPC   H8Y 6483   2.390   4.603   9.294  0.3004  0.2502  0.0739
   73SLPC   C39 6484   2.274   4.736   9.159  0.1736  0.5126  0.1146
   73SLPC   H9X 6485   2.288   4.815   9.235  1.3406 -1.1258  1.6969
   73SLPC   H9Y 6486   2.179   4.754   9.104 -0.6915 -0.4039  1.2480
   73SLPC  C310 6487   2.392   4.759   9.058 -0.5921 -0.1151  0.5256
   73SLPC  H10X 6488   2.381   4.687   8.974 -4.5171  1.9952 -1.0268
   73SLPC  H10Y 6489   2.484   4.761   9.119  0.6290 -0.2698 -1.2307
   73SLPC  C311 6490   2.379   4.902   8.993 -0.3779 -0.2377 -0.3712
   73SLPC  H11X 6491   2.389   4.970   9.081  0.8068  0.5429 -1.0670
   73SLPC  H11Y 6492   2.290   4.924   8.930 -0.2779 -0.7042 -0.6827
   73SLPC  C312 6493   2.499   4.925   8.897  0.6482 -0.1628 -0.6394
   73SLPC  H12X 6494   2.484   4.855   8.813 -0.2849 -1.4265  0.5431
   73SLPC  H12Y 6495   2.598   4.895   8.938 -0.5445 -2.0880  1.0443
   73SLPC  C313 6496   2.484   5.064   8.841 -0.1557 -0.1016 -0.7350
   73SLPC  H13X 6497   2.489   5.132   8.929  2.5234 -0.2100 -0.7303
   73SLPC  H13Y 6498   2.385   5.084   8.794 -0.9609 -0.0120  0.9361
   73SLPC  C314 6499   2.584   5.101   8.736 -0.4930  0.4133 -0.2716
   73SLPC  H14X 6500   2.556   5.073   8.632  1.8653 -0.6689 -0.6872
   73SLPC  H14Y 6501   2.684   5.053   8.748 -1.4185 -1.4721  0.2736
   73SLPC  C315 6502   2.596   5.246   8.718 -0.6280 -0.6451 -0.7007
   73SLPC  H15X 6503   2.662   5.296   8.792 -1.0101  0.6090 -1.1693
   73SLPC  H15Y 6504   2.504   5.304   8.741  1.8850  2.3505  3.1162
   73SLPC  C316 6505   2.646   5.287   8.582 -0.3230  0.0938 -0.5374
   73SLPC  H16X 6506   2.564   5.285   8.508  1.3087 -1.3187 -2.4110
   73SLPC  H16Y 6507   2.710   5.210   8.534 -0.2116 -0.5893  0.6781
   73SLPC  C317 6508   2.713   5.422   8.592 -0.4734  0.1143  0.0718
   73SLPC  H17X 6509   2.778   5.422   8.681  0.8129  0.3673 -0.8438
   73SLPC  H17Y 6510   2.633   5.489   8.630 -0.1583 -0.1263  1.1901
   73SLPC  C318 6511   2.769   5.476   8.466  0.2321  0.3872 -0.0796
   73SLPC  H18X 6512   2.870   5.442   8.436  0.6223  0.9725  0.5283
   73SLPC  H18Y 6513   2.761   5.586   8.477 -2.0800  0.1077  2.1001
   73SLPC  H18Z 6514   2.694   5.449   8.389 -1.0306 -0.7448  1.4747
   74SLPC     N 6515   2.496   6.122  10.893  0.6331 -0.0808 -0.0534
   74SLPC   C13 6516   2.380   6.157  10.990  0.1403 -0.4658  0.2121
   74SLPC  H13A 6517   2.300   6.205  10.935  0.8397 -0.0275 -0.4554
   74SLPC  H13B 6518   2.334   6.076  11.044  1.0469 -1.2974 -0.2395
   74SLPC  H13C 6519   2.414   6.238  11.054  1.0941 -0.5630 -0.1535
   74SLPC   C14 6520   2.420   6.029  10.801 -0.0860  0.3639 -1.1301
   74SLPC  H14A 6521   2.366   6.084  10.725 -1.1844 -0.1444 -0.7420
   74SLPC  H14B 6522   2.486   5.955  10.758  0.3934  1.4109 -2.2639
   74SLPC  H14C 6523   2.347   5.971  10.856 -0.3926 -0.0289 -1.9420
   74SLPC   C15 6524   2.613   6.056  10.960  0.3857  0.3746 -0.4234
   74SLPC  H15A 6525   2.581   5.978  11.028 -2.7446  2.6513  0.9985
   74SLPC  H15B 6526   2.684   6.013  10.891 -0.5251 -1.6871 -0.1440
   74SLPC  H15C 6527   2.664   6.124  11.027  0.5254 -0.8152  0.7189
   74SLPC   C12 6528   2.550   6.243  10.808 -0.1193  0.1521 -0.1830
   74SLPC  H12A 6529   2.462   6.294  10.771 -1.5994 -0.8277  1.7259
   74SLPC  H12B 6530   2.597   6.197  10.723  0.7730 -0.2016  0.4890
   74SLPC   C11 6531   2.645   6.336  10.881  0.0996  0.2174  0.4261
   74SLPC  H11A 6532   2.695   6.394  10.800  2.2824 -1.9770  0.0723
   74SLPC  H11B 6533   2.725   6.295  10.946 -2.3784 -1.0881  2.8466
   74SLPC     P 6534   2.451   6.525  10.921 -0.2221 -0.5186  0.0783
   74SLPC   O13 6535   2.324   6.471  10.972  0.4035 -0.4065 -0.6018
   74SLPC   O14 6536   2.473   6.668  10.963 -0.1797 -0.0156  0.4906
   74SLPC   O12 6537   2.570   6.420  10.969  0.3129 -0.0957  0.6212
   74SLPC   O11 6538   2.434   6.517  10.764 -0.3428  0.1410 -0.1394
   74SLPC    C1 6539   2.380   6.638  10.693 -0.3007 -0.1124 -0.3694
   74SLPC    HA 6540   2.277   6.667  10.722  0.1547  0.4471  0.7608
   74SLPC    HB 6541   2.439   6.727  10.727 -2.2444  1.1607 -0.1965
   74SLPC    C2 6542   2.398   6.628  10.539  0.1543  1.0745 -0.2964
   74SLPC    HS 6543   2.345   6.714  10.493 -2.5829  0.5529  1.6344
   74SLPC   O21 6544   2.343   6.499  10.492  0.2453 -0.6949  0.4652
   74SLPC   C21 6545   2.211   6.509  10.480  0.3862  0.4156  0.0101
   74SLPC   O22 6546   2.150   6.613  10.458  0.7723 -0.1786 -0.3799
   74SLPC   C22 6547   2.151   6.375  10.477  0.0886  0.5919 -0.6930
   74SLPC   H2R 6548   2.229   6.296  10.469  0.2050  0.8213 -1.9400
   74SLPC   H2S 6549   2.105   6.355  10.576  1.4497 -0.6721 -0.2878
   74SLPC    C3 6550   2.543   6.632  10.492  0.0162 -0.0246 -0.2412
   74SLPC    HX 6551   2.606   6.552  10.537  1.7456  0.5978 -1.4437
   74SLPC    HY 6552   2.585   6.725  10.536  1.5523 -1.0732  0.5971
   74SLPC   O31 6553   2.528   6.630  10.353 -0.5787  0.0464  0.3968
   74SLPC   C31 6554   2.599   6.537  10.296  0.8965  0.6955 -0.1537
   74SLPC   O32 6555   2.683   6.467  10.351  0.5933 -0.1724  0.3371
   74SLPC   C32 6556   2.542   6.518  10.157 -0.3296 -0.0508  0.0634
   74SLPC   H2X 6557   2.453   6.584  10.146 -1.4906 -1.6850 -0.8776
   74SLPC   H2Y 6558   2.522   6.409  10.151 -1.6291  0.2370 -2.1405
   74SLPC   C23 6559   2.027   6.326  10.385  0.8168  0.4358 -0.4938
   74SLPC   H3R 6560   1.940   6.389  10.413  0.6203 -0.6229  1.4714
   74SLPC   H3S 6561   2.004   6.222  10.419 -0.7030  0.4956 -1.2889
   74SLPC   C24 6562   2.055   6.313  10.231 -0.4817 -0.5868  0.4083
   74SLPC   H4R 6563   2.131   6.233  10.219  1.0291  0.4846  2.2537
   74SLPC   H4S 6564   2.103   6.411  10.207 -0.0820 -1.3444 -2.2004
   74SLPC   C25 6565   1.928   6.309  10.144 -0.0924 -0.3061  0.1052
   74SLPC   H5R 6566   1.861   6.396  10.158 -0.7896 -0.4811 -1.9461
   74SLPC   H5S 6567   1.870   6.218  10.172 -1.2389 -0.3424 -2.1949
   74SLPC   C26 6568   1.943   6.306   9.991 -0.2021  0.2231 -0.2071
   74SLPC   H6R 6569   1.846   6.305   9.937  0.5627 -1.8653 -1.6662
   74SLPC   H6S 6570   1.997   6.217   9.952 -2.1784  0.0028 -2.7719
   74SLPC   C27 6571   2.028   6.424   9.943  0.1766 -0.2228  0.3268
   74SLPC   H7R 6572   2.025   6.406   9.833  0.0981  0.1516  0.2686
   74SLPC   H7S 6573   2.131   6.404   9.980 -0.6802 -3.8289  1.1599
   74SLPC   C28 6574   1.973   6.559   9.963  0.0091 -0.0650 -0.5723
   74SLPC   H8R 6575   2.006   6.596  10.063 -0.9862  0.2742 -0.3618
   74SLPC   H8S 6576   1.863   6.549   9.957 -0.0311 -0.2228  0.3023
   74SLPC   C29 6577   2.024   6.653   9.856 -0.3937 -0.0147 -0.6578
   74SLPC   H9R 6578   2.120   6.703   9.877 -2.0274  2.8591  0.5533
   74SLPC  C210 6579   1.970   6.683   9.740  0.3048  0.3455  0.1442
   74SLPC  H10R 6580   2.019   6.757   9.674  1.7746  0.0149  0.8252
   74SLPC  C211 6581   1.842   6.613   9.695  0.1644  0.0635  0.4170
   74SLPC  H11R 6582   1.766   6.663   9.759 -1.0535  0.3920 -1.2198
   74SLPC  H11S 6583   1.831   6.507   9.725 -2.4828  0.0529 -0.3146
   74SLPC  C212 6584   1.800   6.635   9.552  0.0450 -0.0833  0.1993
   74SLPC  H12R 6585   1.723   6.712   9.537  0.9973  1.1705  1.4711
   74SLPC  C213 6586   1.848   6.578   9.438 -0.1747  0.5573 -1.2366
   74SLPC  H13R 6587   1.812   6.622   9.344 -2.8277  0.2917 -0.4158
   74SLPC  C214 6588   1.966   6.480   9.437  0.5611 -0.3481  0.3812
   74SLPC  H14R 6589   1.938   6.383   9.390  0.2077 -0.7910  1.4723
   74SLPC  H14S 6590   1.986   6.442   9.539 -0.4940 -1.1325  0.3092
   74SLPC  C215 6591   2.096   6.542   9.379  0.3559  0.1317 -0.2196
   74SLPC  H15R 6592   2.179   6.471   9.402 -0.7526 -0.6430  1.5291
   74SLPC  H15S 6593   2.109   6.633   9.441 -0.8443  1.3893 -1.7192
   74SLPC  C216 6594   2.093   6.580   9.230 -0.1713 -0.2562 -0.7948
   74SLPC  H16R 6595   2.189   6.620   9.189 -0.4276  1.2948  0.0548
   74SLPC  H16S 6596   2.023   6.665   9.216 -0.5343 -0.8140 -2.6508
   74SLPC  C217 6597   2.042   6.455   9.143  0.4161  0.7677 -0.8477
   74SLPC  H17R 6598   2.061   6.471   9.034 -0.9946  3.1459 -0.8188
   74SLPC  H17S 6599   1.934   6.441   9.162  0.1771 -0.5219 -2.8442
   74SLPC  C218 6600   2.126   6.328   9.174 -0.4840 -1.4418 -0.1112
   74SLPC  H18R 6601   2.125   6.296   9.280 -0.3882  1.3110  0.8071
   74SLPC  H18S 6602   2.231   6.346   9.141 -0.7775 -1.2977 -0.9884
   74SLPC  H18T 6603   2.090   6.249   9.106 -1.2642 -0.2185 -1.1798
   74SLPC   C33 6604   2.639   6.563  10.041  0.4488  0.2787  0.6824
   74SLPC   H3X 6605   2.727   6.495  10.042  1.7958  1.9349  0.0109
   74SLPC   H3Y 6606   2.662   6.667  10.070  1.3505  0.5567 -0.9471
   74SLPC   C34 6607   2.574   6.543   9.904  0.6212  0.6800 -0.0619
   74SLPC   H4X 6608   2.467   6.572   9.919  0.3742  0.3819 -1.1460
   74SLPC   H4Y 6609   2.574   6.433   9.886  1.1518  0.7753 -0.6654
   74SLPC   C35 6610   2.635   6.613   9.780 -1.1992  0.4306 -0.1252
   74SLPC   H5X 6611   2.743   6.587   9.787 -1.0445  1.0463 -0.1477
   74SLPC   H5Y 6612   2.623   6.724   9.787 -0.1240  0.5713 -0.3018
   74SLPC   C36 6613   2.572   6.586   9.644  0.4155  0.0778 -0.1715
   74SLPC   H6X 6614   2.463   6.606   9.657  0.6869  1.5557 -0.0535
   74SLPC   H6Y 6615   2.591   6.485   9.601  3.0422  0.0503  0.8489
   74SLPC   C37 6616   2.609   6.693   9.543  0.4849  0.0154 -0.0988
   74SLPC   H7X 6617   2.711   6.689   9.498  0.9385 -1.5760  0.9829
   74SLPC   H7Y 6618   2.571   6.788   9.586 -2.2630 -1.9935  2.2658
   74SLPC   C38 6619   2.523   6.681   9.410  0.7714 -0.1078 -0.2011
   74SLPC   H8X 6620   2.529   6.785   9.372 -0.3517  0.6472  1.5845
   74SLPC   H8Y 6621   2.418   6.653   9.429 -0.2973  0.4369 -4.3771
   74SLPC   C39 6622   2.582   6.572   9.325 -0.4067 -0.4311 -0.2242
   74SLPC   H9X 6623   2.590   6.481   9.388  1.6226  1.0973  1.8802
   74SLPC   H9Y 6624   2.681   6.605   9.287  0.3861 -0.4528  1.7150
   74SLPC  C310 6625   2.519   6.535   9.189 -0.1030 -0.1288  0.2773
   74SLPC  H10X 6626   2.536   6.624   9.125 -0.6861 -0.5518 -0.4938
   74SLPC  H10Y 6627   2.409   6.525   9.206  0.1641 -0.3693  2.0848
   74SLPC  C311 6628   2.581   6.417   9.111  0.1516 -0.2080 -0.3970
   74SLPC  H11X 6629   2.576   6.325   9.174 -1.0854 -0.4005 -0.7572
   74SLPC  H11Y 6630   2.691   6.428   9.095  0.6719  1.1979  3.1818
   74SLPC  C312 6631   2.502   6.385   8.990 -0.1075  0.1497 -0.3875
   74SLPC  H12X 6632   2.515   6.471   8.921 -2.1814  0.9809  0.1875
   74SLPC  H12Y 6633   2.393   6.383   9.010  0.2436 -1.7045  1.8302
   74SLPC  C313 6634   2.526   6.247   8.925  0.1282 -0.2873 -0.0482
   74SLPC  H13X 6635   2.634   6.224   8.933  0.3364  0.0187 -1.6837
   74SLPC  H13Y 6636   2.506   6.249   8.816  2.1931 -3.4940 -0.5951
   74SLPC  C314 6637   2.436   6.136   8.995  0.7174  0.0825  0.0810
   74SLPC  H14X 6638   2.332   6.167   8.972  1.0345  0.5870 -0.7106
   74SLPC  H14Y 6639   2.446   6.122   9.105  1.2089  0.7096  0.1213
   74SLPC  C315 6640   2.463   5.998   8.927  0.2435 -0.5325 -0.2431
   74SLPC  H15X 6641   2.444   6.021   8.820 -1.8458 -3.1792 -0.5670
   74SLPC  H15Y 6642   2.379   5.935   8.964 -0.2459 -0.2630 -0.8631
   74SLPC  C316 6643   2.601   5.942   8.958 -0.0198 -0.3773 -0.4028
   74SLPC  H16X 6644   2.619   5.902   9.059 -2.0231 -1.4395 -0.4052
   74SLPC  H16Y 6645   2.677   6.021   8.941 -0.5024  0.3603  0.7375
   74SLPC  C317 6646   2.643   5.826   8.867 -0.0079  1.1275  0.4564
   74SLPC  H17X 6647   2.635   5.852   8.760  2.0082 -2.8123 -0.8701
   74SLPC  H17Y 6648   2.583   5.735   8.889  2.1016 -0.3502  0.4591
   74SLPC  C318 6649   2.786   5.777   8.884 -0.1073 -0.1365  0.1559
   74SLPC  H18X 6650   2.804   5.682   8.830 -1.4462 -0.1924 -0.2319
   74SLPC  H18Y 6651   2.794   5.769   8.994  2.0274 -1.0958 -0.0314
   74SLPC  H18Z 6652   2.861   5.847   8.841 -0.7750  0.8936  0.6120
   75SLPC     N 6653   0.948   5.031   6.318  0.1205  0.1738 -0.6518
   75SLPC   C13 6654   0.827   5.095   6.265 -0.7540 -0.1821  0.5053
   75SLPC  H13A 6655   0.795   5.037   6.179 -0.4539  1.2678 -0.6221
   75SLPC  H13B 6656   0.741   5.095   6.331 -2.7107  1.3241 -1.8419
   75SLPC  H13C 6657   0.844   5.199   6.244  1.7625 -0.5954  0.2671
   75SLPC   C14 6658   1.026   4.984   6.196 -0.1373  1.0314 -0.1796
   75SLPC  H14A 6659   1.049   5.057   6.119 -0.9714  1.5269  0.0223
   75SLPC  H14B 6660   1.119   4.941   6.229 -0.6516  0.2109  0.2120
   75SLPC  H14C 6661   0.973   4.903   6.150  0.1107 -1.3079  3.3221
   75SLPC   C15 6662   0.915   4.911   6.409  0.7144  0.2642 -0.2220
   75SLPC  H15A 6663   1.008   4.866   6.439  0.3329  0.6994  1.7768
   75SLPC  H15B 6664   0.837   4.917   6.484  2.0223  0.0494  1.1849
   75SLPC  H15C 6665   0.878   4.827   6.351  0.7700 -0.2834  0.5158
   75SLPC   C12 6666   1.029   5.133   6.399 -0.1677  0.7132  0.3487
   75SLPC  H12A 6667   1.063   5.210   6.332  0.9700 -2.3300 -2.8426
   75SLPC  H12B 6668   1.123   5.098   6.440  0.7145  1.3833 -1.0274
   75SLPC   C11 6669   0.950   5.199   6.510  0.1297  0.9381 -1.2026
   75SLPC  H11A 6670   1.023   5.236   6.586  0.2995 -0.2408 -0.7766
   75SLPC  H11B 6671   0.886   5.140   6.578  0.7048  0.6852 -0.8726
   75SLPC     P 6672   0.912   5.446   6.420  0.3847  0.0380 -0.3486
   75SLPC   O13 6673   1.019   5.428   6.320  0.1465  0.2937 -0.4777
   75SLPC   O14 6674   0.798   5.538   6.395  0.2943  0.1511  0.0093
   75SLPC   O12 6675   0.864   5.304   6.458 -0.2713 -0.8859  0.4776
   75SLPC   O11 6676   0.971   5.500   6.553  0.1411  0.2866  0.1054
   75SLPC    C1 6677   0.908   5.504   6.677 -0.0706  0.6571 -0.0611
   75SLPC    HA 6678   0.800   5.524   6.657  0.0383 -1.2342 -3.0625
   75SLPC    HB 6679   0.909   5.414   6.741 -1.5461  0.4928 -0.2401
   75SLPC    C2 6680   0.962   5.629   6.758  0.0102  0.0464 -0.5222
   75SLPC    HS 6681   0.992   5.713   6.693 -0.5923  0.8585  0.2292
   75SLPC   O21 6682   1.067   5.575   6.842  0.4957 -0.2483  0.2598
   75SLPC   C21 6683   1.144   5.665   6.886 -0.3990 -0.1199 -0.0263
   75SLPC   O22 6684   1.141   5.787   6.863  0.3721  0.6419  0.1578
   75SLPC   C22 6685   1.251   5.590   6.978  0.3049 -0.2930 -0.3834
   75SLPC   H2R 6686   1.193   5.504   7.018 -1.1089  1.4071  1.4420
   75SLPC   H2S 6687   1.333   5.569   6.906  1.4063  1.6783  0.1968
   75SLPC    C3 6688   0.853   5.691   6.849  0.3362  0.3611  0.0775
   75SLPC    HX 6689   0.791   5.758   6.786  2.9096  0.4028 -2.6423
   75SLPC    HY 6690   0.894   5.758   6.928  0.7751  1.2151 -0.8458
   75SLPC   O31 6691   0.778   5.584   6.911  1.2273  0.4295 -0.0640
   75SLPC   C31 6692   0.704   5.620   7.018 -0.1648 -0.1147  0.7127
   75SLPC   O32 6693   0.698   5.736   7.062  0.1948 -0.4666  0.1719
   75SLPC   C32 6694   0.630   5.507   7.080 -0.0924  0.1308 -0.4333
   75SLPC   H2X 6695   0.693   5.416   7.083 -3.2081 -2.1890 -0.1110
   75SLPC   H2Y 6696   0.547   5.475   7.013  0.6904  0.9326 -1.8421
   75SLPC   C23 6697   1.302   5.679   7.095  0.1653 -0.0048 -0.2213
   75SLPC   H3R 6698   1.210   5.688   7.157 -0.3345 -4.4895  0.0041
   75SLPC   H3S 6699   1.342   5.774   7.055  0.6093 -0.2250 -0.3069
   75SLPC   C24 6700   1.422   5.610   7.164 -0.2910 -0.5775 -0.4900
   75SLPC   H4R 6701   1.505   5.632   7.093 -1.5457  1.3235 -1.4545
   75SLPC   H4S 6702   1.398   5.503   7.174  1.3674 -1.1450 -1.9123
   75SLPC   C25 6703   1.467   5.660   7.297 -0.0776 -0.0812 -0.1353
   75SLPC   H5R 6704   1.495   5.767   7.299  0.7433 -0.2248 -1.9850
   75SLPC   H5S 6705   1.559   5.601   7.319  0.7526  1.4978  0.7841
   75SLPC   C26 6706   1.371   5.630   7.413  0.5405 -0.0166  0.3223
   75SLPC   H6R 6707   1.355   5.520   7.415 -1.7298  0.2689  0.4415
   75SLPC   H6S 6708   1.276   5.673   7.374  0.6388 -0.4259 -0.3785
   75SLPC   C27 6709   1.428   5.673   7.551 -0.0736 -0.2701 -0.2635
   75SLPC   H7R 6710   1.474   5.773   7.535  0.2951 -0.2455  0.8282
   75SLPC   H7S 6711   1.516   5.614   7.585  0.0547 -0.7052 -1.3361
   75SLPC   C28 6712   1.327   5.696   7.665  0.9106  0.1043  0.5032
   75SLPC   H8R 6713   1.248   5.769   7.637  0.9986  0.9911  2.3715
   75SLPC   H8S 6714   1.384   5.733   7.753  4.4003 -1.9304 -0.7174
   75SLPC   C29 6715   1.259   5.565   7.703 -0.0937 -0.0927  0.0126
   75SLPC   H9R 6716   1.199   5.520   7.622  1.7479 -0.6883 -1.0757
   75SLPC  C210 6717   1.272   5.498   7.818  0.0849 -0.4288 -0.0085
   75SLPC  H10R 6718   1.206   5.411   7.832 -0.1063 -0.3599 -0.4721
   75SLPC  C211 6719   1.348   5.539   7.944  0.1177  0.0176  0.4987
   75SLPC  H11R 6720   1.283   5.592   8.017  0.6156  0.8658  0.3373
   75SLPC  H11S 6721   1.425   5.612   7.914 -1.1090  0.7968 -0.8882
   75SLPC  C212 6722   1.424   5.421   7.994 -0.6431  0.5970 -0.0739
   75SLPC  H12R 6723   1.491   5.373   7.921 -1.0324 -2.4839  1.4158
   75SLPC  C213 6724   1.441   5.379   8.120 -0.6104 -0.2548 -0.8429
   75SLPC  H13R 6725   1.499   5.287   8.143 -1.0183 -0.2922  0.1031
   75SLPC  C214 6726   1.383   5.429   8.248 -0.7770 -0.2274 -0.0369
   75SLPC  H14R 6727   1.293   5.486   8.216 -0.3031  1.4327  1.3638
   75SLPC  H14S 6728   1.456   5.497   8.299  0.5870 -1.2755 -0.5361
   75SLPC  C215 6729   1.342   5.319   8.350 -0.1291 -0.1316  1.4115
   75SLPC  H15R 6730   1.274   5.247   8.298 -1.2625  2.0272 -0.2610
   75SLPC  H15S 6731   1.266   5.373   8.411 -1.1042  0.0142  0.1308
   75SLPC  C216 6732   1.453   5.251   8.422  0.2474  0.2343  0.2410
   75SLPC  H16R 6733   1.505   5.304   8.504 -1.0301 -1.4211  2.2129
   75SLPC  H16S 6734   1.538   5.237   8.351  0.2203  1.2863 -0.0252
   75SLPC  C217 6735   1.408   5.115   8.480 -0.0570 -0.0157 -0.0319
   75SLPC  H17R 6736   1.324   5.063   8.428 -0.5252 -1.3910  1.9969
   75SLPC  H17S 6737   1.363   5.140   8.578 -1.9785  0.5942 -1.0162
   75SLPC  C218 6738   1.523   5.022   8.502  0.2650 -0.2881  0.2083
   75SLPC  H18R 6739   1.485   4.943   8.571  0.7656  0.6820  1.6490
   75SLPC  H18S 6740   1.600   5.075   8.562 -1.5117  0.2283  2.1881
   75SLPC  H18T 6741   1.566   4.979   8.409  1.6546  1.0665  0.1961
   75SLPC   C33 6742   0.576   5.543   7.226  0.6800 -0.1012  1.0142
   75SLPC   H3X 6743   0.665   5.582   7.281  2.2214 -0.1406 -1.3059
   75SLPC   H3Y 6744   0.497   5.621   7.226  2.6477  2.0091  0.8859
   75SLPC   C34 6745   0.528   5.412   7.295 -0.0765  0.6199  0.2782
   75SLPC   H4X 6746   0.619   5.350   7.313 -0.6331 -0.2032  0.3018
   75SLPC   H4Y 6747   0.455   5.356   7.233 -1.6374  1.2348  1.4923
   75SLPC   C35 6748   0.439   5.433   7.417 -0.2008 -0.2044 -0.4112
   75SLPC   H5X 6749   0.349   5.492   7.392 -2.9873 -4.1350 -0.5104
   75SLPC   H5Y 6750   0.503   5.493   7.485  1.5078 -1.5931 -0.7083
   75SLPC   C36 6751   0.391   5.307   7.489  0.4984  0.2074 -0.2494
   75SLPC   H6X 6752   0.473   5.233   7.503  0.5057  0.2098 -0.2770
   75SLPC   H6Y 6753   0.303   5.256   7.446 -0.7477  1.2655  0.9351
   75SLPC   C37 6754   0.325   5.353   7.623 -0.1850 -0.7990 -0.0334
   75SLPC   H7X 6755   0.224   5.388   7.594  0.2633  1.4081  0.8453
   75SLPC   H7Y 6756   0.377   5.441   7.667  1.4868 -0.7023 -2.0598
   75SLPC   C38 6757   0.318   5.247   7.736 -0.5509 -0.0129 -0.9536
   75SLPC   H8X 6758   0.417   5.196   7.736 -0.1404  0.7711 -0.7512
   75SLPC   H8Y 6759   0.242   5.170   7.712 -1.0169 -0.2622  1.1929
   75SLPC   C39 6760   0.309   5.307   7.878  0.0853 -0.4999 -0.3795
   75SLPC   H9X 6761   0.205   5.345   7.887  0.6031  0.5692  1.6284
   75SLPC   H9Y 6762   0.384   5.388   7.887 -1.2332  0.6217  1.2377
   75SLPC  C310 6763   0.334   5.203   7.992  0.5871  0.8341  0.4725
   75SLPC  H10X 6764   0.381   5.259   8.076  1.3227  1.4816 -0.3462
   75SLPC  H10Y 6765   0.425   5.145   7.967  0.8941  1.5739 -0.1885
   75SLPC  C311 6766   0.218   5.106   8.028  0.2035 -0.1451  0.8122
   75SLPC  H11X 6767   0.188   5.054   7.935 -1.4919 -0.3981  1.4706
   75SLPC  H11Y 6768   0.134   5.170   8.060 -0.1596 -1.2596  2.2269
   75SLPC  C312 6769   0.249   5.008   8.142  0.2828  0.8429 -0.1072
   75SLPC  H12X 6770   0.291   5.054   8.233  0.8547 -0.4420  0.3028
   75SLPC  H12Y 6771   0.321   4.927   8.115 -0.4892 -0.2249  0.9355
   75SLPC  C313 6772   0.120   4.932   8.193 -0.5183  0.1479 -0.3504
   75SLPC  H13X 6773   0.105   4.856   8.113 -1.2066  0.9625 -1.0252
   75SLPC  H13Y 6774   0.038   5.007   8.185 -0.3073  0.3549 -0.5577
   75SLPC  C314 6775   0.122   4.878   8.337 -0.0071 -0.7750  0.3645
   75SLPC  H14X 6776   0.134   4.964   8.406  1.3065 -0.6717  0.0308
   75SLPC  H14Y 6777   0.214   4.818   8.346 -0.4837 -1.9819 -1.9213
   75SLPC  C315 6778  -0.002   4.818   8.385  0.4242  0.1064  0.3660
   75SLPC  H15X 6779  -0.090   4.839   8.321 -1.3432 -0.3100  2.5337
   75SLPC  H15Y 6780  -0.015   4.855   8.489 -1.7478 -0.3640  0.3147
   75SLPC  C316 6781   0.008   4.661   8.396  0.0853 -0.4423 -0.4622
   75SLPC  H16X 6782   0.092   4.641   8.466  0.0573 -1.4476 -0.7026
   75SLPC  H16Y 6783   0.033   4.601   8.306  2.9962  0.3119 -0.2492
   75SLPC  C317 6784  -0.117   4.596   8.466 -0.7918 -1.0738 -0.1927
   75SLPC  H17X 6785  -0.088   4.493   8.496 -1.6819 -1.0049  0.9870
   75SLPC  H17Y 6786  -0.197   4.577   8.391 -0.6787  1.0272 -0.9215
   75SLPC  C318 6787  -0.162   4.674   8.591 -0.0335  0.4278  0.0628
   75SLPC  H18X 6788  -0.229   4.613   8.655  0.5820 -1.2764 -0.8444
   75SLPC  H18Y 6789  -0.221   4.761   8.554  1.0090  1.1081 -0.0401
   75SLPC  H18Z 6790  -0.074   4.713   8.645 -0.3299  0.1760  0.7292
   76SLPC     N 6791   4.618   2.867   5.891  0.1351  0.0985  0.5037
   76SLPC   C13 6792   4.636   2.720   5.921 -0.1143 -1.0237  0.2506
   76SLPC  H13A 6793   4.584   2.687   6.009  1.5438 -1.5645  1.0764
   76SLPC  H13B 6794   4.607   2.661   5.835 -2.3986  1.2150 -0.6203
   76SLPC  H13C 6795   4.739   2.691   5.938  0.8824  1.7064 -0.5912
   76SLPC   C14 6796   4.475   2.902   5.876 -0.0978  0.1190 -0.9387
   76SLPC  H14A 6797   4.417   2.865   5.959  0.1568 -0.0640 -0.8407
   76SLPC  H14B 6798   4.466   3.009   5.867  0.9009  0.1345 -2.0424
   76SLPC  H14C 6799   4.432   2.855   5.789 -1.9193  1.6461 -0.9028
   76SLPC   C15 6800   4.678   2.891   5.756  0.3426 -0.3357 -0.1308
   76SLPC  H15A 6801   4.661   2.991   5.717  1.4260 -0.5025 -1.1013
   76SLPC  H15B 6802   4.784   2.873   5.746  0.7840  1.2689  1.1770
   76SLPC  H15C 6803   4.622   2.835   5.682 -0.1600  0.6990 -0.5615
   76SLPC   C12 6804   4.695   2.948   5.994 -0.0983 -0.6686  0.0790
   76SLPC  H12A 6805   4.738   3.034   5.945 -0.0775 -0.8107 -0.1534
   76SLPC  H12B 6806   4.779   2.889   6.028  0.8028  0.8409  0.5614
   76SLPC   C11 6807   4.623   2.989   6.124 -0.1384  0.4695  0.3690
   76SLPC  H11A 6808   4.533   3.051   6.105  0.6481  1.6036  0.2623
   76SLPC  H11B 6809   4.695   3.052   6.179 -0.2055  1.0827 -0.2393
   76SLPC     P 6810   4.693   2.806   6.286 -0.1986 -0.1959 -0.4838
   76SLPC   O13 6811   4.614   2.714   6.366  0.1766 -0.0665 -0.5452
   76SLPC   O14 6812   4.805   2.744   6.209  0.0497  0.2868  0.1061
   76SLPC   O12 6813   4.585   2.874   6.197 -0.1111 -0.5177  0.9488
   76SLPC   O11 6814   4.752   2.926   6.376  0.3162 -0.3669  0.1976
   76SLPC    C1 6815   4.670   2.973   6.482  0.5258  0.5485 -0.1208
   76SLPC    HA 6816   4.584   3.027   6.439 -0.7539 -2.7249 -2.0143
   76SLPC    HB 6817   4.626   2.889   6.540 -0.8365  0.4071 -1.3071
   76SLPC    C2 6818   4.746   3.058   6.587 -0.7750 -0.3734 -0.0488
   76SLPC    HS 6819   4.770   3.154   6.537 -0.6623 -0.3324  0.0835
   76SLPC   O21 6820   4.857   2.990   6.643 -0.0628  0.1314  0.5387
   76SLPC   C21 6821   4.960   3.067   6.660 -0.6205  1.0777 -0.1019
   76SLPC   O22 6822   4.970   3.186   6.640 -0.5501 -0.1619  0.0280
   76SLPC   C22 6823   5.066   2.989   6.739 -0.7327  0.4375 -0.2857
   76SLPC   H2R 6824   5.020   2.917   6.809 -0.2993 -0.6981 -1.1443
   76SLPC   H2S 6825   5.128   2.935   6.664 -0.6652  1.6492 -1.1508
   76SLPC    C3 6826   4.655   3.108   6.707 -0.2960  0.5106 -0.3577
   76SLPC    HX 6827   4.634   3.009   6.755  0.7895  0.7986  0.7880
   76SLPC    HY 6828   4.565   3.149   6.658 -0.9533 -1.0671 -0.5350
   76SLPC   O31 6829   4.717   3.204   6.792 -0.0989  0.6169 -0.8112
   76SLPC   C31 6830   4.709   3.334   6.773  0.1650 -1.1835 -0.3339
   76SLPC   O32 6831   4.677   3.391   6.668  0.3984  0.3255 -0.5045
   76SLPC   C32 6832   4.748   3.405   6.899  0.0655  0.2785 -0.3249
   76SLPC   H2X 6833   4.766   3.513   6.879 -0.3489  0.5295  0.6384
   76SLPC   H2Y 6834   4.844   3.359   6.930  0.4734  1.0550 -0.4095
   76SLPC   C23 6835   5.152   3.090   6.832 -1.4199 -0.3488  0.3111
   76SLPC   H3R 6836   5.190   3.171   6.767 -0.1639 -2.4930 -1.7888
   76SLPC   H3S 6837   5.237   3.034   6.874  0.7557  0.5377 -2.5594
   76SLPC   C24 6838   5.063   3.144   6.947 -0.0338  0.0910  0.5954
   76SLPC   H4R 6839   4.961   3.170   6.913 -0.3801  0.4644  1.8547
   76SLPC   H4S 6840   5.105   3.240   6.985 -1.0674  1.3744 -1.3493
   76SLPC   C25 6841   5.046   3.043   7.066  0.0981 -0.2019 -0.4452
   76SLPC   H5R 6842   5.150   3.015   7.094 -0.7137 -1.5159  1.4530
   76SLPC   H5S 6843   4.980   2.958   7.040  0.1252  0.1449 -1.6943
   76SLPC   C26 6844   5.004   3.111   7.194 -0.1465  0.9940 -0.3431
   76SLPC   H6R 6845   4.902   3.157   7.190  0.0384  1.7923  2.1002
   76SLPC   H6S 6846   5.078   3.192   7.212 -0.7951  0.9403  3.3609
   76SLPC   C27 6847   5.003   3.008   7.314  0.9864 -0.7337 -0.0235
   76SLPC   H7R 6848   5.112   2.994   7.331  0.9822 -0.0460  0.6288
   76SLPC   H7S 6849   4.953   2.912   7.290 -0.0735  0.2635 -2.0553
   76SLPC   C28 6850   4.948   3.073   7.448  0.1899  0.0265 -0.1433
   76SLPC   H8R 6851   5.009   3.160   7.477 -3.2141  3.7616 -3.0628
   76SLPC   H8S 6852   4.852   3.127   7.437 -0.2639 -0.7829 -0.2650
   76SLPC   C29 6853   4.945   2.966   7.556 -0.2604 -0.2155  0.4395
   76SLPC   H9R 6854   4.921   2.864   7.523 -1.4846  0.7684 -1.9966
   76SLPC  C210 6855   4.944   2.988   7.687 -0.8652 -0.3113 -0.1934
   76SLPC  H10R 6856   4.945   2.899   7.751 -3.8554  0.1122  0.5956
   76SLPC  C211 6857   4.963   3.120   7.751  0.4880  0.9099  1.0761
   76SLPC  H11R 6858   4.917   3.205   7.697 -0.4447 -0.2971 -0.0897
   76SLPC  H11S 6859   5.071   3.135   7.773  1.0549  1.4969 -1.6916
   76SLPC  C212 6860   4.881   3.097   7.881 -0.1763  0.0544  0.2528
   76SLPC  H12R 6861   4.774   3.109   7.861  0.2039  3.0048 -0.5032
   76SLPC  C213 6862   4.913   3.059   8.006  0.0514  0.0651  0.0571
   76SLPC  H13R 6863   4.832   3.063   8.080  0.6467 -0.7933  0.7815
   76SLPC  C214 6864   5.044   3.011   8.045  0.0791  0.2608 -0.5297
   76SLPC  H14R 6865   5.118   3.035   7.966  3.0247 -1.8738  1.3534
   76SLPC  H14S 6866   5.041   2.900   8.045 -1.2969  0.2586 -2.6109
   76SLPC  C215 6867   5.085   3.063   8.180 -0.2398 -0.6318  1.2340
   76SLPC  H15R 6868   5.010   3.042   8.259 -0.2885  0.0940  1.3897
   76SLPC  H15S 6869   5.093   3.174   8.175 -1.7395 -0.5076  0.9786
   76SLPC  C216 6870   5.230   3.013   8.214 -0.0030  0.1146  0.4955
   76SLPC  H16R 6871   5.290   3.060   8.133  0.7254 -1.1949  0.2414
   76SLPC  H16S 6872   5.225   2.906   8.183 -0.6146  0.0202  0.9123
   76SLPC  C217 6873   5.281   3.031   8.351 -0.0458 -0.2523  0.7298
   76SLPC  H17R 6874   5.312   3.136   8.372  1.7163 -0.6085  0.1356
   76SLPC  H17S 6875   5.371   2.967   8.363  0.5408  0.5697  0.8455
   76SLPC  C218 6876   5.197   2.957   8.460  0.0098  0.0197  0.2188
   76SLPC  H18R 6877   5.180   2.849   8.440 -0.7890  0.2600 -0.4059
   76SLPC  H18S 6878   5.103   3.014   8.470  0.4650  0.8286 -0.0102
   76SLPC  H18T 6879   5.255   2.952   8.556  0.8006  0.0246 -0.2482
   76SLPC   C33 6880   4.630   3.385   7.002 -0.7906  0.4916 -0.2949
   76SLPC   H3X 6881   4.614   3.276   7.017 -0.5422  0.0548 -2.7397
   76SLPC   H3Y 6882   4.535   3.422   6.958 -1.4830  1.1748  1.7030
   76SLPC   C34 6883   4.655   3.443   7.144 -0.0717  0.0409 -0.5455
   76SLPC   H4X 6884   4.636   3.552   7.150  0.9276  0.1541  1.2883
   76SLPC   H4Y 6885   4.760   3.419   7.172 -0.4138 -0.5770  0.2674
   76SLPC   C35 6886   4.569   3.368   7.249 -0.2266 -0.2833 -1.0631
   76SLPC   H5X 6887   4.585   3.258   7.247 -0.9419 -0.4409  0.5805
   76SLPC   H5Y 6888   4.461   3.394   7.248  0.1607  1.7349 -3.3803
   76SLPC   C36 6889   4.613   3.414   7.393 -0.1164 -0.4617  0.4149
   76SLPC   H6X 6890   4.569   3.516   7.408 -1.0142 -0.5084 -1.5898
   76SLPC   H6Y 6891   4.724   3.414   7.393 -0.0992 -1.2164  1.5940
   76SLPC   C37 6892   4.562   3.335   7.507  0.5420 -1.1058 -0.6135
   76SLPC   H7X 6893   4.591   3.228   7.507 -0.7639 -1.4816 -1.3722
   76SLPC   H7Y 6894   4.451   3.341   7.499  0.5079  1.1889  0.6312
   76SLPC   C38 6895   4.614   3.401   7.637 -0.1027 -0.2560  0.3248
   76SLPC   H8X 6896   4.614   3.512   7.637  1.7192 -0.2357 -0.6817
   76SLPC   H8Y 6897   4.717   3.371   7.663  0.4163  1.2096  0.0519
   76SLPC   C39 6898   4.530   3.362   7.766  0.1641 -0.2820 -0.6915
   76SLPC   H9X 6899   4.521   3.253   7.780 -0.5282  0.0164  1.6975
   76SLPC   H9Y 6900   4.427   3.400   7.751  0.2056  0.9170  1.6262
   76SLPC  C310 6901   4.588   3.438   7.894 -0.4948 -0.0113 -0.5731
   76SLPC  H10X 6902   4.571   3.548   7.896  1.9093  0.4133  1.0187
   76SLPC  H10Y 6903   4.698   3.418   7.898  0.0648  2.6994  3.1503
   76SLPC  C311 6904   4.532   3.379   8.019 -0.2887  0.0398 -0.1946
   76SLPC  H11X 6905   4.555   3.270   8.015 -0.6981 -0.0348 -0.7762
   76SLPC  H11Y 6906   4.425   3.408   8.019  0.4689  3.3449 -2.1414
   76SLPC  C312 6907   4.592   3.434   8.148 -0.4137 -0.1382  0.0026
   76SLPC  H12X 6908   4.701   3.412   8.147 -0.5476 -0.8303 -0.8525
   76SLPC  H12Y 6909   4.559   3.374   8.235 -1.3286  0.8558  0.3562
   76SLPC  C313 6910   4.570   3.579   8.178  0.0982 -0.3863 -0.0598
   76SLPC  H13X 6911   4.465   3.612   8.161  0.0902  0.1806  1.0408
   76SLPC  H13Y 6912   4.637   3.650   8.124  1.0689 -2.3784 -1.6155
   76SLPC  C314 6913   4.599   3.603   8.327 -0.6446 -0.1786 -0.5942
   76SLPC  H14X 6914   4.708   3.587   8.341 -0.3505 -0.2949 -2.7119
   76SLPC  H14Y 6915   4.544   3.520   8.376  1.2939 -1.0061  0.3122
   76SLPC  C315 6916   4.543   3.735   8.385 -0.8549  0.6504  0.2578
   76SLPC  H15X 6917   4.436   3.742   8.356 -0.4977 -0.5489 -1.5463
   76SLPC  H15Y 6918   4.600   3.810   8.328 -1.3813  1.1274  0.3479
   76SLPC  C316 6919   4.578   3.746   8.535  0.6797 -0.1600  0.4001
   76SLPC  H16X 6920   4.539   3.657   8.588 -3.9565  1.4572  0.2141
   76SLPC  H16Y 6921   4.508   3.823   8.574 -1.5324 -0.3100 -2.7968
   76SLPC  C317 6922   4.725   3.774   8.575 -0.3514 -0.2731 -0.7958
   76SLPC  H17X 6923   4.758   3.873   8.537  3.3833 -0.2107  2.0312
   76SLPC  H17Y 6924   4.790   3.694   8.532  0.6500 -0.3586  0.7781
   76SLPC  C318 6925   4.744   3.791   8.725 -0.2368 -0.0779 -0.0989
   76SLPC  H18X 6926   4.847   3.830   8.739 -0.6507  1.4760 -1.1042
   76SLPC  H18Y 6927   4.735   3.689   8.768  0.1290 -0.6454 -1.3435
   76SLPC  H18Z 6928   4.678   3.864   8.777  1.2640  1.3690 -0.1542
   77SLPC     N 6929   1.145   2.217   6.346  0.6367  0.0405  0.5591
   77SLPC   C13 6930   1.128   2.062   6.322 -0.0464 -0.4334 -0.5375
   77SLPC  H13A 6931   1.212   2.017   6.372  0.4804  1.5381  0.4625
   77SLPC  H13B 6932   1.037   2.029   6.370  0.1958 -0.5502 -0.1538
   77SLPC  H13C 6933   1.132   2.028   6.220 -0.3740  1.0712 -1.0739
   77SLPC   C14 6934   1.161   2.246   6.485 -0.1086  0.4265 -0.0021
   77SLPC  H14A 6935   1.073   2.216   6.540 -0.1451 -0.9128 -0.7443
   77SLPC  H14B 6936   1.245   2.186   6.515 -1.0378 -0.4557  0.8858
   77SLPC  H14C 6937   1.181   2.350   6.505 -0.5610  0.4826  0.1721
   77SLPC   C15 6938   1.015   2.277   6.298 -0.5729 -0.2009  0.0128
   77SLPC  H15A 6939   0.997   2.245   6.197  0.9574 -1.7679  0.1676
   77SLPC  H15B 6940   0.930   2.250   6.358  0.0621  0.1160  1.0858
   77SLPC  H15C 6941   1.023   2.384   6.296 -3.6220  0.1088 -0.1564
   77SLPC   C12 6942   1.265   2.260   6.266  0.0659 -0.3239  0.7601
   77SLPC  H12A 6943   1.258   2.210   6.170 -1.5501  0.3923  0.4627
   77SLPC  H12B 6944   1.358   2.236   6.314  1.1490  0.5298 -0.8298
   77SLPC   C11 6945   1.272   2.415   6.228 -0.4271  0.2113 -0.1565
   77SLPC  H11A 6946   1.206   2.430   6.140  0.6361 -1.6692 -1.3464
   77SLPC  H11B 6947   1.378   2.433   6.198 -0.0928  1.3610  1.5718
   77SLPC     P 6948   1.146   2.622   6.337 -0.1956  0.2856  0.4961
   77SLPC   O13 6949   1.165   2.688   6.208  0.4489  0.0717  0.5162
   77SLPC   O14 6950   1.008   2.582   6.373 -0.2917 -0.0700  0.1642
   77SLPC   O12 6951   1.238   2.494   6.342 -0.1468 -0.2204  0.6286
   77SLPC   O11 6952   1.216   2.712   6.447  0.0014 -0.4600  0.0334
   77SLPC    C1 6953   1.232   2.660   6.581 -0.1593 -0.2618 -0.2446
   77SLPC    HA 6954   1.214   2.550   6.581  0.5566 -0.4148  1.6233
   77SLPC    HB 6955   1.336   2.681   6.612 -0.8952  0.7979  1.7272
   77SLPC    C2 6956   1.130   2.713   6.685 -0.2266 -0.2710 -0.6308
   77SLPC    HS 6957   1.031   2.708   6.636 -0.6216 -1.6427  0.2683
   77SLPC   O21 6958   1.167   2.851   6.717 -0.2220 -0.2263 -0.0139
   77SLPC   C21 6959   1.073   2.937   6.698  0.1168 -0.8428  0.7511
   77SLPC   O22 6960   0.956   2.920   6.665  0.1405  0.2816  0.5327
   77SLPC   C22 6961   1.129   3.078   6.724 -0.2454 -0.8458  0.0236
   77SLPC   H2R 6962   1.238   3.071   6.746  0.3230  0.8310 -1.9577
   77SLPC   H2S 6963   1.131   3.138   6.631  2.2278 -0.7843  0.0605
   77SLPC    C3 6964   1.145   2.623   6.806  0.2138 -0.0724 -0.1604
   77SLPC    HX 6965   1.250   2.613   6.839 -0.5396  2.8022  3.8476
   77SLPC    HY 6966   1.115   2.517   6.791  0.8784 -0.2297 -0.3965
   77SLPC   O31 6967   1.067   2.673   6.917  0.1804  0.1975 -0.1947
   77SLPC   C31 6968   0.934   2.660   6.918 -0.1567  0.6270  1.2027
   77SLPC   O32 6969   0.874   2.597   6.829 -0.5647  0.0550  0.7027
   77SLPC   C32 6970   0.876   2.715   7.051  0.1200 -0.6312  0.9877
   77SLPC   H2X 6971   0.776   2.667   7.053  0.1474 -0.6836  1.2477
   77SLPC   H2Y 6972   0.858   2.824   7.048  0.8985 -0.5172 -0.8572
   77SLPC   C23 6973   1.060   3.155   6.848  0.0931  0.2706  0.5569
   77SLPC   H3R 6974   0.951   3.175   6.840 -0.2724 -1.6796  0.2887
   77SLPC   H3S 6975   1.115   3.252   6.849  1.7634 -0.6096 -0.6591
   77SLPC   C24 6976   1.066   3.075   6.977  0.2148  0.1648 -1.0001
   77SLPC   H4R 6977   1.162   3.021   6.992  0.8717  1.9643  2.3111
   77SLPC   H4S 6978   0.993   2.992   6.986 -0.1789  0.5729 -0.3490
   77SLPC   C25 6979   1.047   3.164   7.104  0.2583 -0.1970  0.2107
   77SLPC   H5R 6980   0.945   3.210   7.099  0.6982  0.7310 -0.6332
   77SLPC   H5S 6981   1.113   3.254   7.105 -0.0635  0.0433  0.9016
   77SLPC   C26 6982   1.063   3.077   7.230  0.3118 -0.2899  0.4800
   77SLPC   H6R 6983   1.165   3.034   7.238  0.0027 -1.4099 -1.2306
   77SLPC   H6S 6984   0.982   3.000   7.232  0.7886 -0.7842  2.1946
   77SLPC   C27 6985   1.034   3.161   7.359 -0.3102 -0.6778 -0.0654
   77SLPC   H7R 6986   0.927   3.191   7.367 -0.0648  0.5025 -0.9491
   77SLPC   H7S 6987   1.080   3.262   7.353  2.5030 -1.9273 -1.7427
   77SLPC   C28 6988   1.077   3.094   7.486 -0.2730 -0.2862 -0.5741
   77SLPC   H8R 6989   1.175   3.046   7.465 -0.8863 -1.8633 -0.0094
   77SLPC   H8S 6990   1.021   2.999   7.499 -1.9171  0.6793 -0.3567
   77SLPC   C29 6991   1.065   3.188   7.605 -0.2449  0.0354  0.3843
   77SLPC   H9R 6992   1.116   3.284   7.592 -1.0371  0.2553 -1.2499
   77SLPC  C210 6993   0.989   3.171   7.721 -0.7431  0.3999  0.7459
   77SLPC  H10R 6994   1.003   3.251   7.796 -1.9950  2.2659 -0.8849
   77SLPC  C211 6995   0.896   3.056   7.754  0.5938  0.8899  0.1097
   77SLPC  H11R 6996   0.961   2.969   7.778 -0.6812 -0.7912 -2.1143
   77SLPC  H11S 6997   0.846   3.012   7.665 -0.4697 -3.0296  2.3762
   77SLPC  C212 6998   0.802   3.090   7.866  0.4178  0.1483 -0.0012
   77SLPC  H12R 6999   0.697   3.083   7.835  0.4504  1.6277 -0.5298
   77SLPC  C213 7000   0.822   3.129   7.995 -0.1640 -0.5631 -0.3907
   77SLPC  H13R 7001   0.733   3.148   8.056 -0.8899 -1.3017 -1.1757
   77SLPC  C214 7002   0.965   3.145   8.058 -0.0251 -0.3586  0.4011
   77SLPC  H14R 7003   0.978   3.254   8.080 -1.2931  0.0348 -0.6835
   77SLPC  H14S 7004   1.045   3.125   7.983  0.8525 -1.4126  1.5708
   77SLPC  C215 7005   1.004   3.068   8.185  0.0538 -0.4677 -0.1032
   77SLPC  H15R 7006   1.107   3.098   8.213  0.5785  2.0052 -3.9423
   77SLPC  H15S 7007   1.002   2.959   8.166  1.1133 -1.0107  2.4327
   77SLPC  C216 7008   0.913   3.096   8.312 -0.2153  1.2453  0.0237
   77SLPC  H16R 7009   0.814   3.051   8.294  0.9626 -3.0563  2.7754
   77SLPC  H16S 7010   0.903   3.205   8.330 -0.1910  0.8367  2.9441
   77SLPC  C217 7011   0.966   3.017   8.438 -0.3328 -0.6093  0.3876
   77SLPC  H17R 7012   1.075   3.035   8.449 -0.4936 -0.1588  1.2617
   77SLPC  H17S 7013   0.956   2.910   8.410  0.2874 -0.2816 -1.2383
   77SLPC  C218 7014   0.895   3.036   8.577 -0.7875 -0.0393  0.2724
   77SLPC  H18R 7015   0.954   3.001   8.664 -1.1680  0.3001  0.6738
   77SLPC  H18S 7016   0.790   2.999   8.576 -0.7101 -0.5432  3.2475
   77SLPC  H18T 7017   0.877   3.144   8.593 -0.8676 -0.0306  0.1270
   77SLPC   C33 7018   0.950   2.676   7.187  0.6751 -0.1511 -0.0986
   77SLPC   H3X 7019   1.052   2.717   7.176  0.4408  0.3214 -0.5500
   77SLPC   H3Y 7020   0.963   2.566   7.182  1.3241 -0.1315  0.8305
   77SLPC   C34 7021   0.874   2.722   7.313  0.3440 -0.4464  0.0549
   77SLPC   H4X 7022   0.763   2.723   7.302  0.3810  2.8932 -1.1887
   77SLPC   H4Y 7023   0.908   2.826   7.335  0.0138 -0.2939 -0.1530
   77SLPC   C35 7024   0.909   2.640   7.438  0.0575  0.3751  0.4298
   77SLPC   H5X 7025   1.019   2.652   7.447 -0.1820  2.0318  1.7417
   77SLPC   H5Y 7026   0.883   2.533   7.423 -0.6496  0.7654 -1.3187
   77SLPC   C36 7027   0.830   2.696   7.565  0.0907 -0.5204  0.4892
   77SLPC   H6X 7028   0.723   2.712   7.543  0.1741  3.8985  2.2175
   77SLPC   H6Y 7029   0.877   2.796   7.582 -0.2252 -0.4033  0.6673
   77SLPC   C37 7030   0.852   2.625   7.696 -0.1748 -0.0600  0.1525
   77SLPC   H7X 7031   0.959   2.633   7.725 -0.2424  0.6045  0.2412
   77SLPC   H7Y 7032   0.830   2.516   7.687 -2.6737  0.5150 -2.5031
   77SLPC   C38 7033   0.773   2.696   7.808 -0.2219  0.1735 -0.0547
   77SLPC   H8X 7034   0.664   2.699   7.789 -0.1542 -1.4369 -0.8945
   77SLPC   H8Y 7035   0.805   2.798   7.837 -0.2332  0.6793 -1.7363
   77SLPC   C39 7036   0.806   2.618   7.939 -0.4838 -0.1009  0.1813
   77SLPC   H9X 7037   0.913   2.598   7.965 -0.4382  1.2087  1.1120
   77SLPC   H9Y 7038   0.752   2.521   7.937  0.0166 -0.3725 -1.0380
   77SLPC  C310 7039   0.750   2.700   8.057  0.0770  0.3052 -0.2697
   77SLPC  H10X 7040   0.639   2.701   8.045  0.1706  0.5703 -1.1727
   77SLPC  H10Y 7041   0.785   2.805   8.066  1.7593 -0.2667  0.0855
   77SLPC  C311 7042   0.782   2.620   8.183 -0.0794  0.9189  0.8473
   77SLPC  H11X 7043   0.892   2.626   8.199  0.5131 -0.4081 -2.0170
   77SLPC  H11Y 7044   0.758   2.514   8.162  0.8878  0.8050  0.2464
   77SLPC  C312 7045   0.703   2.683   8.295  0.3923 -0.0321  0.0085
   77SLPC  H12X 7046   0.732   2.789   8.304  1.8312 -0.4523  0.6461
   77SLPC  H12Y 7047   0.733   2.630   8.389  1.9976  0.2996 -0.2903
   77SLPC  C313 7048   0.551   2.674   8.285  0.2747  0.1855 -0.2798
   77SLPC  H13X 7049   0.512   2.572   8.265  1.3806 -0.2402 -0.3623
   77SLPC  H13Y 7050   0.517   2.748   8.209 -0.1959  0.0759 -0.1719
   77SLPC  C314 7051   0.492   2.705   8.421 -0.0503  0.7803  0.1668
   77SLPC  H14X 7052   0.528   2.806   8.449  1.6617 -0.0770  1.1864
   77SLPC  H14Y 7053   0.521   2.632   8.500  0.0546  0.0460 -0.5430
   77SLPC  C315 7054   0.335   2.698   8.418 -0.0145 -0.2210 -0.4730
   77SLPC  H15X 7055   0.306   2.598   8.381 -2.4780 -0.3902  1.6846
   77SLPC  H15Y 7056   0.305   2.775   8.344 -0.7333  0.3720  0.4140
   77SLPC  C316 7057   0.265   2.723   8.557 -0.3777  0.5988 -0.0712
   77SLPC  H16X 7058   0.284   2.824   8.598 -0.3052  0.4853  0.1774
   77SLPC  H16Y 7059   0.302   2.647   8.629  1.8252  1.6523 -0.0278
   77SLPC  C317 7060   0.113   2.693   8.549 -0.7614  0.1165  0.0390
   77SLPC  H17X 7061   0.087   2.648   8.647  2.1124  0.3740  1.0046
   77SLPC  H17Y 7062   0.095   2.619   8.468 -0.2983  2.1280 -2.0159
   77SLPC  C318 7063   0.032   2.826   8.531  0.5451 -0.1903 -1.2281
   77SLPC  H18X 7064   0.079   2.885   8.450  1.0118 -1.7846 -2.1808
   77SLPC  H18Y 7065   0.041   2.884   8.626 -0.3673 -1.1090 -0.5495
   77SLPC  H18Z 7066  -0.076   2.819   8.505  0.2184  1.5083 -0.4178
   78SLPC     N 7067   0.707   1.725   5.873  0.0813  0.1153 -0.2509
   78SLPC   C13 7068   0.599   1.654   5.794 -0.2139 -0.4772 -0.0488
   78SLPC  H13A 7069   0.507   1.651   5.852 -1.3732  0.5075 -1.7483
   78SLPC  H13B 7070   0.585   1.697   5.696  0.8982 -1.6305 -0.7293
   78SLPC  H13C 7071   0.637   1.556   5.772 -0.7033 -0.9383  1.0605
   78SLPC   C14 7072   0.663   1.868   5.890 -0.0510  0.6616 -0.1259
   78SLPC  H14A 7073   0.735   1.935   5.934 -1.0852  1.3073  0.6203
   78SLPC  H14B 7074   0.647   1.914   5.793  0.8098  1.5711  0.1424
   78SLPC  H14C 7075   0.566   1.874   5.935  1.1854  2.2296  2.5510
   78SLPC   C15 7076   0.830   1.733   5.779  0.6019  0.3422 -0.0892
   78SLPC  H15A 7077   0.915   1.772   5.833  0.5341 -0.6514  0.7780
   78SLPC  H15B 7078   0.866   1.642   5.732  0.9705  0.7765 -0.6604
   78SLPC  H15C 7079   0.805   1.800   5.698  0.2464 -0.5184 -0.7078
   78SLPC   C12 7080   0.739   1.659   6.003 -0.6656  0.7793 -1.0854
   78SLPC  H12A 7081   0.822   1.710   6.049 -2.3776  3.6305 -0.8639
   78SLPC  H12B 7082   0.765   1.558   5.976 -2.3759  0.7075 -2.6962
   78SLPC   C11 7083   0.629   1.629   6.112  0.1162  0.7049 -0.3644
   78SLPC  H11A 7084   0.594   1.725   6.155  0.6459  0.8612 -0.2672
   78SLPC  H11B 7085   0.689   1.585   6.195  0.7731  1.1983 -0.5696
   78SLPC     P 7086   0.384   1.538   6.132  0.0757 -0.3788 -0.0958
   78SLPC   O13 7087   0.293   1.642   6.070  0.6998 -0.0380 -0.3891
   78SLPC   O14 7088   0.329   1.402   6.148 -0.3331 -0.3336 -0.1414
   78SLPC   O12 7089   0.527   1.540   6.065 -0.7890 -0.4696  0.1128
   78SLPC   O11 7090   0.418   1.594   6.281 -0.0470 -0.5143  0.3006
   78SLPC    C1 7091   0.487   1.520   6.377 -0.3843  0.8513 -0.1675
   78SLPC    HA 7092   0.507   1.417   6.341 -1.8913  0.0939  1.0589
   78SLPC    HB 7093   0.582   1.571   6.403  0.2367  0.2324 -1.1544
   78SLPC    C2 7094   0.398   1.500   6.503 -0.2421 -0.4141 -0.3670
   78SLPC    HS 7095   0.301   1.455   6.474 -0.6562  0.9511 -1.1462
   78SLPC   O21 7096   0.377   1.627   6.563  0.1799  0.1041  0.6857
   78SLPC   C21 7097   0.272   1.630   6.645 -0.6421 -0.4441 -0.6910
   78SLPC   O22 7098   0.198   1.535   6.670 -0.0399 -0.7549 -0.7595
   78SLPC   C22 7099   0.255   1.773   6.700  0.3118  0.3698  0.2628
   78SLPC   H2R 7100   0.359   1.811   6.704  1.4745 -1.9659 -3.2213
   78SLPC   H2S 7101   0.197   1.832   6.625  0.7153  0.3275 -0.0860
   78SLPC    C3 7102   0.479   1.401   6.607 -0.1391 -0.4654  0.1956
   78SLPC    HX 7103   0.436   1.410   6.709  2.6293  3.2070  1.2515
   78SLPC    HY 7104   0.581   1.444   6.620  0.7743 -2.2611 -0.6097
   78SLPC   O31 7105   0.505   1.271   6.550 -0.3433 -0.1034  0.1511
   78SLPC   C31 7106   0.441   1.173   6.617  0.4825 -0.6825  0.2896
   78SLPC   O32 7107   0.344   1.184   6.693  0.1180  0.2700  0.3466
   78SLPC   C32 7108   0.509   1.044   6.591  0.1267  0.1116 -0.5336
   78SLPC   H2X 7109   0.574   1.052   6.501 -1.1796  2.2605 -1.3829
   78SLPC   H2Y 7110   0.426   0.971   6.573  1.7202 -1.8133 -0.4046
   78SLPC   C23 7111   0.186   1.809   6.835  0.8764  0.1276  0.6248
   78SLPC   H3R 7112   0.080   1.781   6.849  0.3844  2.0445  0.9424
   78SLPC   H3S 7113   0.189   1.919   6.828 -0.0133  0.2486  1.9332
   78SLPC   C24 7114   0.265   1.761   6.957  0.3689 -0.6540  0.4179
   78SLPC   H4R 7115   0.365   1.809   6.964  1.0099 -1.4951 -2.0128
   78SLPC   H4S 7116   0.264   1.650   6.947 -2.1322 -0.6591  0.0688
   78SLPC   C25 7117   0.182   1.788   7.082 -0.0136  0.2110 -0.4127
   78SLPC   H5R 7118   0.085   1.734   7.077  0.9608 -1.4430 -2.5381
   78SLPC   H5S 7119   0.150   1.894   7.093 -2.1927 -0.4991  0.7949
   78SLPC   C26 7120   0.266   1.751   7.208 -0.1411 -0.8672  0.1738
   78SLPC   H6R 7121   0.357   1.815   7.207 -0.4874 -0.3408 -1.1629
   78SLPC   H6S 7122   0.304   1.647   7.201  2.1862 -0.4081  3.7276
   78SLPC   C27 7123   0.198   1.747   7.339  0.0972 -0.3547 -0.8343
   78SLPC   H7R 7124   0.130   1.660   7.330  1.1164 -1.2338 -0.1891
   78SLPC   H7S 7125   0.141   1.840   7.361  0.5250 -0.6972  2.0358
   78SLPC   C28 7126   0.298   1.739   7.454 -0.0070  0.2569 -0.0004
   78SLPC   H8R 7127   0.247   1.740   7.553 -4.0575 -2.5451 -1.7725
   78SLPC   H8S 7128   0.364   1.828   7.448  0.5734 -0.2469 -1.4925
   78SLPC   C29 7129   0.381   1.615   7.458  0.0208  0.3862 -0.0611
   78SLPC   H9R 7130   0.459   1.615   7.381 -1.7533 -0.6966 -1.9678
   78SLPC  C210 7131   0.366   1.515   7.550 -0.0464 -0.4607  0.1535
   78SLPC  H10R 7132   0.446   1.439   7.556 -1.5095 -2.1312 -0.4391
   78SLPC  C211 7133   0.265   1.504   7.662 -0.0158 -0.6635 -0.8707
   78SLPC  H11R 7134   0.239   1.396   7.668  0.4121 -0.6945  2.9201
   78SLPC  H11S 7135   0.179   1.564   7.625  1.2793  1.9718  0.1415
   78SLPC  C212 7136   0.304   1.562   7.801 -0.4123 -0.2840 -0.5572
   78SLPC  H12R 7137   0.288   1.670   7.807 -2.5317 -0.5753  0.0146
   78SLPC  C213 7138   0.334   1.497   7.917 -0.4145  0.1332  0.0354
   78SLPC  H13R 7139   0.354   1.557   8.008  0.7988  1.6946 -1.1939
   78SLPC  C214 7140   0.326   1.347   7.940  0.4446  0.8280  0.2082
   78SLPC  H14R 7141   0.322   1.300   7.839  1.7022  3.2408 -1.0585
   78SLPC  H14S 7142   0.237   1.313   7.997  0.9207 -0.0912  0.4161
   78SLPC  C215 7143   0.444   1.277   8.015  0.3677 -0.4595  0.0809
   78SLPC  H15R 7144   0.536   1.325   7.976 -0.3823  0.6957 -0.3473
   78SLPC  H15S 7145   0.445   1.169   7.992 -0.6110 -0.5317  0.3419
   78SLPC  C216 7146   0.438   1.305   8.172 -0.4808 -0.1790 -0.3094
   78SLPC  H16R 7147   0.353   1.242   8.206 -0.2439 -0.7837 -0.8025
   78SLPC  H16S 7148   0.406   1.410   8.189 -2.1973 -0.4828 -1.3982
   78SLPC  C217 7149   0.574   1.255   8.233 -0.3248 -0.3968  0.4251
   78SLPC  H17R 7150   0.650   1.315   8.180  1.7975 -1.4011  2.2012
   78SLPC  H17S 7151   0.581   1.149   8.201 -0.8317 -0.3102  0.0140
   78SLPC  C218 7152   0.593   1.268   8.383  0.3013  0.0626  0.2459
   78SLPC  H18R 7153   0.695   1.243   8.419  0.4826  0.2657 -0.1190
   78SLPC  H18S 7154   0.528   1.195   8.436  1.3891 -1.7007 -0.7561
   78SLPC  H18T 7155   0.563   1.371   8.413  3.9124  1.4454 -0.3637
   78SLPC   C33 7156   0.597   1.000   6.709 -0.8326 -0.3479  0.4628
   78SLPC   H3X 7157   0.652   1.076   6.768  3.1073 -1.1230 -1.7849
   78SLPC   H3Y 7158   0.678   0.928   6.680 -1.1912 -0.0891 -1.3413
   78SLPC   C34 7159   0.513   0.928   6.812  0.4220 -0.8290 -0.3916
   78SLPC   H4X 7160   0.440   0.865   6.757  1.6304 -2.9181  0.2659
   78SLPC   H4Y 7161   0.464   1.008   6.871 -0.2137 -1.7704  0.3827
   78SLPC   C35 7162   0.582   0.839   6.917 -0.0905 -0.3718 -0.8353
   78SLPC   H5X 7163   0.671   0.901   6.941 -2.1583  2.4944 -0.0185
   78SLPC   H5Y 7164   0.618   0.744   6.872 -0.2078 -1.4117  1.1631
   78SLPC   C36 7165   0.480   0.816   7.020 -0.8804  0.0791 -0.8058
   78SLPC   H6X 7166   0.402   0.743   6.989 -0.5031 -1.5978  1.8817
   78SLPC   H6Y 7167   0.445   0.919   7.041 -0.5730  0.2672 -1.1935
   78SLPC   C37 7168   0.546   0.770   7.156  0.2513 -0.2584 -0.2769
   78SLPC   H7X 7169   0.647   0.815   7.162  0.1226  0.1831 -1.2340
   78SLPC   H7Y 7170   0.558   0.661   7.169 -1.8367 -0.3615  1.3101
   78SLPC   C38 7171   0.476   0.819   7.281  0.4984  0.5696  0.3569
   78SLPC   H8X 7172   0.427   0.918   7.275 -0.4766  0.1395  0.9314
   78SLPC   H8Y 7173   0.553   0.839   7.359  0.7223 -1.0897  0.6096
   78SLPC   C39 7174   0.372   0.717   7.338 -0.6768 -0.5506  0.3074
   78SLPC   H9X 7175   0.424   0.629   7.381 -0.8433  0.2411  2.2109
   78SLPC   H9Y 7176   0.306   0.686   7.254  1.1226 -1.1679 -0.9463
   78SLPC  C310 7177   0.298   0.781   7.455 -0.9109  0.1079  0.1184
   78SLPC  H10X 7178   0.227   0.711   7.503  0.3742 -0.0603  1.8471
   78SLPC  H10Y 7179   0.236   0.865   7.417 -1.1906 -0.3875 -0.5482
   78SLPC  C311 7180   0.384   0.830   7.577 -0.1101  0.2236  0.0485
   78SLPC  H11X 7181   0.438   0.925   7.558 -0.5059  0.1193 -1.8049
   78SLPC  H11Y 7182   0.456   0.750   7.604  0.5961  0.6345 -0.5485
   78SLPC  C312 7183   0.285   0.842   7.696 -0.4521 -0.0719 -0.9359
   78SLPC  H12X 7184   0.268   0.744   7.744 -1.3805  1.6422  2.5299
   78SLPC  H12Y 7185   0.190   0.894   7.672  0.3213  1.5651 -0.5947
   78SLPC  C313 7186   0.339   0.935   7.813 -0.4417  0.1859 -0.0245
   78SLPC  H13X 7187   0.361   1.034   7.768  0.2103  0.6492  1.2656
   78SLPC  H13Y 7188   0.425   0.883   7.861 -0.7572  2.4152  3.3099
   78SLPC  C314 7189   0.229   0.961   7.918  0.4160 -0.6680 -0.7456
   78SLPC  H14X 7190   0.139   1.014   7.878 -0.9473 -1.1250  1.5279
   78SLPC  H14Y 7191   0.266   1.030   7.997 -2.5719 -4.0519  4.1585
   78SLPC  C315 7192   0.192   0.838   7.999 -1.1225  0.5669 -0.4647
   78SLPC  H15X 7193   0.131   0.768   7.938  2.5703 -2.1098 -1.4453
   78SLPC  H15Y 7194   0.123   0.867   8.081 -2.7287 -2.0371 -0.7662
   78SLPC  C316 7195   0.302   0.755   8.059 -0.0530  0.0979 -0.2392
   78SLPC  H16X 7196   0.373   0.821   8.114 -0.2967  1.2731 -1.2740
   78SLPC  H16Y 7197   0.346   0.690   7.981 -0.4971 -0.5988  0.0882
   78SLPC  C317 7198   0.249   0.665   8.176  0.3213 -0.5700  0.5616
   78SLPC  H17X 7199   0.159   0.617   8.133 -0.0317  1.9045 -1.8176
   78SLPC  H17Y 7200   0.229   0.730   8.264  2.0386  0.7147  0.0567
   78SLPC  C318 7201   0.351   0.559   8.223  0.5208 -0.7024 -0.3300
   78SLPC  H18X 7202   0.320   0.524   8.324  0.7970 -3.9442 -1.2680
   78SLPC  H18Y 7203   0.450   0.604   8.242 -0.5134  0.8280  1.8333
   78SLPC  H18Z 7204   0.368   0.470   8.160  0.3853  0.1157 -1.5630
   79SLPC     N 7205   5.513   4.181   6.073 -0.1371 -0.0675 -0.5506
   79SLPC   C13 7206   5.365   4.217   6.030 -0.7793  0.1944  0.1922
   79SLPC  H13A 7207   5.314   4.257   6.117  0.1532  0.4992  0.6105
   79SLPC  H13B 7208   5.376   4.291   5.952  1.6929 -0.6755 -0.3837
   79SLPC  H13C 7209   5.321   4.126   5.991  0.4139  0.2203 -1.2863
   79SLPC   C14 7210   5.585   4.311   6.099  0.3778  0.8026 -0.2447
   79SLPC  H14A 7211   5.527   4.381   6.157  0.5439  1.4341 -0.8300
   79SLPC  H14B 7212   5.677   4.317   6.155  0.1072  2.6891  0.0685
   79SLPC  H14C 7213   5.613   4.360   6.008  0.5895  1.8078  0.3418
   79SLPC   C15 7214   5.582   4.109   5.965  0.0521 -0.5952 -0.3306
   79SLPC  H15A 7215   5.520   4.027   5.931 -0.8809  0.2448 -0.7090
   79SLPC  H15B 7216   5.589   4.173   5.878  0.5742 -0.1836  0.0126
   79SLPC  H15C 7217   5.678   4.067   5.991  1.3691  1.4952 -1.5499
   79SLPC   C12 7218   5.515   4.094   6.195 -0.3415  0.6514  0.4078
   79SLPC  H12A 7219   5.470   4.152   6.274 -0.0860  1.8029 -0.2786
   79SLPC  H12B 7220   5.620   4.078   6.215 -0.0386  2.5982  0.5485
   79SLPC   C11 7221   5.447   3.959   6.189  0.1758 -0.2069 -0.3494
   79SLPC  H11A 7222   5.340   3.971   6.162 -0.1432  0.5862  1.1467
   79SLPC  H11B 7223   5.464   3.917   6.290  2.2713 -0.5470 -0.8100
   79SLPC     P 7224   5.440   3.754   6.025  0.0719  0.4228  0.3921
   79SLPC   O13 7225   5.348   3.820   5.926 -0.7618  0.3486  0.5398
   79SLPC   O14 7226   5.534   3.655   5.976 -0.5240  0.0978  0.3966
   79SLPC   O12 7227   5.514   3.870   6.106 -0.1835  0.0808 -0.2350
   79SLPC   O11 7228   5.348   3.692   6.134 -0.1211 -0.1684 -0.4673
   79SLPC    C1 7229   5.398   3.634   6.252 -0.3365  0.6854 -0.1257
   79SLPC    HA 7230   5.404   3.526   6.226 -1.3392  1.0573 -2.0456
   79SLPC    HB 7231   5.500   3.668   6.280  1.5914 -1.6222 -3.7195
   79SLPC    C2 7232   5.298   3.654   6.369  0.0206  0.3535  0.2581
   79SLPC    HS 7233   5.207   3.600   6.334 -0.8032  1.6531  0.3368
   79SLPC   O21 7234   5.284   3.796   6.401  0.4839  0.1560  0.2068
   79SLPC   C21 7235   5.160   3.830   6.430 -0.8809  0.5360  0.4840
   79SLPC   O22 7236   5.066   3.746   6.414  0.0797 -0.2712  0.0610
   79SLPC   C22 7237   5.153   3.964   6.497  0.1944  0.0601 -0.2484
   79SLPC   H2R 7238   5.224   3.960   6.582 -0.9379 -0.2668  0.7109
   79SLPC   H2S 7239   5.172   4.053   6.433  3.4783 -0.0055  0.4519
   79SLPC    C3 7240   5.353   3.580   6.490  0.6310 -0.5100 -0.9316
   79SLPC    HX 7241   5.454   3.608   6.526  0.1170 -0.8441  0.9135
   79SLPC    HY 7242   5.366   3.473   6.465  0.5038 -0.4376 -1.3116
   79SLPC   O31 7243   5.258   3.605   6.596  0.4769 -0.0543  0.5163
   79SLPC   C31 7244   5.281   3.542   6.704  0.3718  0.0251  0.1520
   79SLPC   O32 7245   5.374   3.466   6.723  0.1268 -0.0434  0.0826
   79SLPC   C32 7246   5.169   3.560   6.809 -0.1159 -0.3451  0.4466
   79SLPC   H2X 7247   5.078   3.504   6.777  0.1311 -1.1618  1.1376
   79SLPC   H2Y 7248   5.147   3.669   6.820 -1.4250 -0.6820  1.3732
   79SLPC   C23 7249   5.011   3.989   6.562 -0.7195  0.0891 -0.2035
   79SLPC   H3R 7250   4.924   3.962   6.498  0.3486  0.1238 -1.7384
   79SLPC   H3S 7251   4.990   4.096   6.585 -0.8835  0.3868 -1.6108
   79SLPC   C24 7252   4.992   3.912   6.696 -0.2627  0.6955  0.3387
   79SLPC   H4R 7253   5.077   3.949   6.757  1.4412  0.6961 -1.9099
   79SLPC   H4S 7254   5.001   3.802   6.684  0.9880  0.8002  0.1956
   79SLPC   C25 7255   4.855   3.944   6.757  0.1716 -0.6383 -0.5697
   79SLPC   H5R 7256   4.783   3.923   6.675 -0.6322  1.8132 -0.5632
   79SLPC   H5S 7257   4.852   4.053   6.777  1.5705 -0.7083  0.1710
   79SLPC   C26 7258   4.828   3.858   6.887  0.4138 -0.8874  0.5434
   79SLPC   H6R 7259   4.810   3.751   6.862 -1.2282 -0.3805 -0.5825
   79SLPC   H6S 7260   4.734   3.898   6.932  0.7612  0.0753  0.4187
   79SLPC   C27 7261   4.930   3.884   7.004 -1.0872  0.1352  0.1622
   79SLPC   H7R 7262   4.925   3.994   7.017 -1.8980  0.0351  0.8474
   79SLPC   H7S 7263   5.028   3.863   6.958 -2.4254 -1.0510 -2.3345
   79SLPC   C28 7264   4.895   3.803   7.134 -0.7347  0.2858 -0.1387
   79SLPC   H8R 7265   4.969   3.832   7.212  0.5740  1.2874 -1.6820
   79SLPC   H8S 7266   4.910   3.693   7.121  2.4722  0.2602  2.4334
   79SLPC   C29 7267   4.755   3.846   7.185 -0.5416 -0.1795 -0.5658
   79SLPC   H9R 7268   4.664   3.799   7.145 -0.9508  1.0963 -1.1864
   79SLPC  C210 7269   4.732   3.925   7.300 -0.1830  0.1321 -0.0477
   79SLPC  H10R 7270   4.628   3.949   7.325 -0.7051 -0.1163 -1.8598
   79SLPC  C211 7271   4.836   3.983   7.392 -0.0348 -0.2959 -0.0637
   79SLPC  H11R 7272   4.812   4.086   7.428  0.6879  0.6759 -2.2115
   79SLPC  H11S 7273   4.936   3.998   7.346  0.0894  3.4006  1.0157
   79SLPC  C212 7274   4.849   3.884   7.508  0.2505  0.3476 -0.0335
   79SLPC  H12R 7275   4.885   3.786   7.471  1.2138  0.6653  0.0301
   79SLPC  C213 7276   4.841   3.911   7.639  0.6847  0.2448 -0.5844
   79SLPC  H13R 7277   4.862   3.833   7.714 -1.7428  0.4618  0.4194
   79SLPC  C214 7278   4.814   4.048   7.706 -0.1591  0.6834  0.0068
   79SLPC  H14R 7279   4.755   4.111   7.636  2.4413  2.2771 -0.9048
   79SLPC  H14S 7280   4.911   4.097   7.728  0.7363 -0.9014 -0.2304
   79SLPC  C215 7281   4.744   4.053   7.841  0.2002 -0.1677 -0.1075
   79SLPC  H15R 7282   4.740   4.160   7.871 -5.2500 -0.3635  1.0303
   79SLPC  H15S 7283   4.802   3.997   7.917  0.1983 -1.2179 -0.8531
   79SLPC  C216 7284   4.595   4.016   7.832 -0.0630  0.0787  0.7706
   79SLPC  H16R 7285   4.585   3.909   7.805  1.2889  0.0359  0.3777
   79SLPC  H16S 7286   4.562   4.070   7.740  1.4422 -3.0682 -1.8183
   79SLPC  C217 7287   4.517   4.048   7.960 -0.0987  0.3223 -0.1869
   79SLPC  H17R 7288   4.409   4.033   7.939 -0.6429  1.8044  1.2920
   79SLPC  H17S 7289   4.539   4.153   7.990  0.9870 -0.0609  0.3826
   79SLPC  C218 7290   4.567   3.968   8.089 -0.1326 -0.4145 -0.1360
   79SLPC  H18R 7291   4.666   4.015   8.105  0.2403 -0.8785 -0.9699
   79SLPC  H18S 7292   4.583   3.861   8.064  1.3927  0.2149 -2.1937
   79SLPC  H18T 7293   4.500   3.992   8.174 -0.6407  0.5873 -0.7940
   79SLPC   C33 7294   5.233   3.518   6.945 -0.0438  0.1714 -0.6947
   79SLPC   H3X 7295   5.319   3.583   6.971  0.7426 -1.1021  0.0074
   79SLPC   H3Y 7296   5.262   3.411   6.934  0.8614  0.2297  0.8766
   79SLPC   C34 7297   5.133   3.531   7.063  0.1103  0.0781  0.7990
   79SLPC   H4X 7298   5.040   3.479   7.030 -1.5316  2.9495  0.5750
   79SLPC   H4Y 7299   5.100   3.636   7.073  2.2954  0.9586 -0.5972
   79SLPC   C35 7300   5.194   3.482   7.197 -0.1254  0.2897 -0.4490
   79SLPC   H5X 7301   5.293   3.531   7.208  0.6283 -1.2846  0.1367
   79SLPC   H5Y 7302   5.224   3.375   7.203  1.8451  0.6242 -2.8345
   79SLPC   C36 7303   5.109   3.535   7.319 -0.0609  0.5480  0.4389
   79SLPC   H6X 7304   5.003   3.511   7.295 -0.5431  2.4840  0.5228
   79SLPC   H6Y 7305   5.092   3.644   7.316  1.8363  0.9063  1.2559
   79SLPC   C37 7306   5.156   3.481   7.454 -0.0644  0.0676  0.4723
   79SLPC   H7X 7307   5.264   3.505   7.466  0.1393 -0.7599  0.3373
   79SLPC   H7Y 7308   5.139   3.371   7.452 -1.2955  0.2561 -0.1466
   79SLPC   C38 7309   5.075   3.532   7.581 -0.2351 -0.2712  0.3475
   79SLPC   H8X 7310   4.966   3.512   7.569 -0.0600 -1.1268  0.1201
   79SLPC   H8Y 7311   5.084   3.642   7.597 -1.2457  0.3115 -2.5520
   79SLPC   C39 7312   5.108   3.450   7.707 -0.5050 -0.4105 -0.6542
   79SLPC   H9X 7313   5.218   3.458   7.722 -0.5096 -1.8048  0.2581
   79SLPC   H9Y 7314   5.084   3.346   7.676 -1.5704 -0.5576  0.6210
   79SLPC  C310 7315   5.045   3.505   7.832 -0.1307 -0.7701 -0.2811
   79SLPC  H10X 7316   4.934   3.510   7.823 -0.2549  1.1640  1.4425
   79SLPC  H10Y 7317   5.079   3.610   7.845 -0.8082 -0.1048 -3.1149
   79SLPC  C311 7318   5.081   3.430   7.963  0.5746  0.9303  0.2061
   79SLPC  H11X 7319   5.087   3.320   7.949  1.1252  0.8453  1.0742
   79SLPC  H11Y 7320   5.000   3.442   8.038  0.6359  2.1191  0.1016
   79SLPC  C312 7321   5.208   3.491   8.034  0.0952 -0.1188  0.3092
   79SLPC  H12X 7322   5.179   3.596   8.056  0.7994  0.5006 -1.5856
   79SLPC  H12Y 7323   5.294   3.496   7.964 -0.1951  0.7426  0.0014
   79SLPC  C313 7324   5.242   3.413   8.166 -0.4068  0.6235 -0.3793
   79SLPC  H13X 7325   5.288   3.320   8.127 -0.5472  1.3275 -2.3416
   79SLPC  H13Y 7326   5.143   3.389   8.211 -0.2166  0.3622 -0.1035
   79SLPC  C314 7327   5.333   3.487   8.269  0.4953  0.3684  0.6616
   79SLPC  H14X 7328   5.334   3.411   8.350 -1.0851 -0.3453  0.0587
   79SLPC  H14Y 7329   5.267   3.571   8.301 -0.4894  0.2564 -0.9703
   79SLPC  C315 7330   5.464   3.531   8.208 -0.9391  0.2265 -0.7073
   79SLPC  H15X 7331   5.447   3.592   8.116 -0.9769  1.7258  0.2540
   79SLPC  H15Y 7332   5.521   3.439   8.184 -1.3783 -0.1330 -0.3698
   79SLPC  C316 7333   5.548   3.612   8.312 -0.4013 -0.0422  0.1785
   79SLPC  H16X 7334   5.568   3.546   8.399  0.3463 -0.4654 -0.2977
   79SLPC  H16Y 7335   5.486   3.697   8.346  0.3168  0.2399  0.8169
   79SLPC  C317 7336   5.677   3.667   8.265 -0.7749  0.0910  0.2200
   79SLPC  H17X 7337   5.725   3.743   8.330 -0.2292  1.8156 -2.0606
   79SLPC  H17Y 7338   5.663   3.721   8.169 -1.2318  1.1767  0.8769
   79SLPC  C318 7339   5.792   3.567   8.254 -0.1122  0.2071 -0.3157
   79SLPC  H18X 7340   5.882   3.621   8.290  0.4838 -0.1452 -1.2479
   79SLPC  H18Y 7341   5.803   3.530   8.150 -3.2068 -0.1798 -0.5868
   79SLPC  H18Z 7342   5.771   3.484   8.325 -1.1874  1.4781  0.9084
   80SLPC     N 7343   6.516   5.238   6.197 -0.5069  0.1299  0.1109
   80SLPC   C13 7344   6.360   5.223   6.192 -0.2153 -0.3203 -0.2904
   80SLPC  H13A 7345   6.315   5.281   6.271  1.0590  0.4911 -0.1237
   80SLPC  H13B 7346   6.321   5.258   6.098  0.9925  1.2711 -0.2427
   80SLPC  H13C 7347   6.342   5.116   6.191  0.6506 -0.5574  2.2400
   80SLPC   C14 7348   6.532   5.384   6.192 -0.2623  0.4710 -0.3363
   80SLPC  H14A 7349   6.469   5.428   6.116  0.2549  0.4629 -0.7740
   80SLPC  H14B 7350   6.507   5.426   6.288 -0.6777 -0.3669 -0.0692
   80SLPC  H14C 7351   6.634   5.405   6.164  0.1067 -1.5766 -0.6253
   80SLPC   C15 7352   6.575   5.172   6.078  0.7830  0.1625 -0.2480
   80SLPC  H15A 7353   6.681   5.151   6.088  0.3934 -1.9386 -0.0466
   80SLPC  H15B 7354   6.531   5.074   6.063  3.1286 -1.1059  0.6265
   80SLPC  H15C 7355   6.565   5.226   5.985 -1.4328 -1.0180 -0.7704
   80SLPC   C12 7356   6.573   5.184   6.325  0.4773 -0.1467  0.2247
   80SLPC  H12A 7357   6.553   5.078   6.325  2.6388 -0.6377 -1.0724
   80SLPC  H12B 7358   6.527   5.222   6.415  1.4509  0.5689  0.4432
   80SLPC   C11 7359   6.726   5.183   6.341  0.2193  0.4305  0.4944
   80SLPC  H11A 7360   6.751   5.151   6.444 -0.3179 -2.1720 -0.1108
   80SLPC  H11B 7361   6.774   5.283   6.331  0.8742  0.4585  3.2385
   80SLPC     P 7362   6.845   4.946   6.277  0.2308 -0.1782  0.2309
   80SLPC   O13 7363   6.726   4.860   6.303 -0.1852 -0.0016 -0.5262
   80SLPC   O14 7364   6.943   4.912   6.174 -0.0126 -0.3361  0.2217
   80SLPC   O12 7365   6.782   5.088   6.246 -0.5574  0.9862 -0.4537
   80SLPC   O11 7366   6.925   4.975   6.417  0.5324  0.2251 -0.2418
   80SLPC    C1 7367   7.057   5.027   6.411 -0.2821  0.7402 -0.3258
   80SLPC    HA 7368   7.088   5.070   6.313  0.4348  3.5531  1.0348
   80SLPC    HB 7369   7.067   5.113   6.480 -1.9679  0.0657  0.8336
   80SLPC    C2 7370   7.160   4.910   6.452 -0.8753 -0.5396 -0.0480
   80SLPC    HS 7371   7.127   4.823   6.391  0.8301 -1.7648  0.7069
   80SLPC   O21 7372   7.133   4.883   6.585 -0.3290 -0.2760 -0.9780
   80SLPC   C21 7373   7.198   4.772   6.625  0.2622  1.0434  0.4033
   80SLPC   O22 7374   7.257   4.694   6.557 -0.0532 -0.1808 -0.1780
   80SLPC   C22 7375   7.158   4.741   6.768  0.0004  0.4255  0.2397
   80SLPC   H2R 7376   7.227   4.802   6.831  1.7964 -0.7006 -0.5509
   80SLPC   H2S 7377   7.052   4.775   6.774  0.0742  1.2180 -2.0792
   80SLPC    C3 7378   7.312   4.952   6.419  0.2372 -0.1421  0.4911
   80SLPC    HX 7379   7.331   4.971   6.311 -2.4275 -0.9363 -0.2093
   80SLPC    HY 7380   7.376   4.863   6.440  0.1635  0.1650  2.1187
   80SLPC   O31 7381   7.345   5.077   6.484  0.2013 -0.3262 -0.8408
   80SLPC   C31 7382   7.404   5.053   6.601 -0.6294  0.6404 -0.5656
   80SLPC   O32 7383   7.452   4.942   6.635  0.5128 -0.0857 -0.2832
   80SLPC   C32 7384   7.396   5.181   6.689 -0.4600  0.0719 -0.1334
   80SLPC   H2X 7385   7.289   5.210   6.694 -0.6795 -0.8097  0.5232
   80SLPC   H2Y 7386   7.458   5.259   6.639 -0.4619  0.2850  0.1973
   80SLPC   C23 7387   7.157   4.594   6.815  0.2794 -0.0796 -0.3735
   80SLPC   H3R 7388   7.250   4.549   6.775 -0.4568 -1.8910 -0.1504
   80SLPC   H3S 7389   7.071   4.552   6.758 -1.2570  3.0504 -0.5497
   80SLPC   C24 7390   7.147   4.574   6.965  0.1367 -0.6843  0.0168
   80SLPC   H4R 7391   7.048   4.603   7.006  1.2493  2.7473  0.5838
   80SLPC   H4S 7392   7.234   4.610   7.023  0.4023 -0.3317 -0.5913
   80SLPC   C25 7393   7.146   4.421   6.987  0.3531 -0.0667 -0.8130
   80SLPC   H5R 7394   7.229   4.382   6.925 -0.0718 -0.5286 -1.0973
   80SLPC   H5S 7395   7.048   4.379   6.957  0.2566 -3.0121  2.8940
   80SLPC   C26 7396   7.158   4.383   7.132 -0.2236 -0.0428  0.1349
   80SLPC   H6R 7397   7.066   4.423   7.181 -0.2155 -0.1277  0.2202
   80SLPC   H6S 7398   7.249   4.432   7.171 -0.4873  1.3350 -0.8919
   80SLPC   C27 7399   7.180   4.237   7.156 -0.2486 -0.2330  0.3076
   80SLPC   H7R 7400   7.280   4.215   7.114 -0.0422 -0.6301  0.9934
   80SLPC   H7S 7401   7.111   4.182   7.089  1.5884 -1.8187 -0.3767
   80SLPC   C28 7402   7.160   4.189   7.300  0.3619 -0.7594  0.2071
   80SLPC   H8R 7403   7.235   4.239   7.365  0.5386  0.2536 -0.7426
   80SLPC   H8S 7404   7.196   4.084   7.300  0.4236 -0.7940 -1.9768
   80SLPC   C29 7405   7.019   4.208   7.357  0.1028 -0.3356  0.5287
   80SLPC   H9R 7406   6.942   4.226   7.281  2.6447  2.3626 -1.6258
   80SLPC  C210 7407   6.985   4.207   7.491  0.4870 -0.5492  0.8464
   80SLPC  H10R 7408   6.878   4.211   7.516  0.5573  0.8089  0.9933
   80SLPC  C211 7409   7.073   4.204   7.613 -0.0415 -0.0133 -0.0814
   80SLPC  H11R 7410   7.147   4.124   7.588 -1.0004 -1.0239  0.2291
   80SLPC  H11S 7411   7.011   4.185   7.703  1.7245 -1.7349  0.8582
   80SLPC  C212 7412   7.147   4.339   7.634 -0.3198  0.1162  0.2537
   80SLPC  H12R 7413   7.152   4.402   7.544 -0.3808 -0.0856  0.1072
   80SLPC  C213 7414   7.204   4.380   7.746 -0.4093 -0.2880  0.3727
   80SLPC  H13R 7415   7.258   4.476   7.744  1.4654 -1.2888  0.1389
   80SLPC  C214 7416   7.200   4.307   7.880  0.4293  0.5378  0.2590
   80SLPC  H14R 7417   7.239   4.204   7.867  0.6775  0.8370 -1.6394
   80SLPC  H14S 7418   7.096   4.303   7.918 -0.0542 -1.6836 -1.1261
   80SLPC  C215 7419   7.282   4.374   7.996  0.0057  0.7339 -0.4390
   80SLPC  H15R 7420   7.245   4.478   8.012  3.5043  1.7092  2.6615
   80SLPC  H15S 7421   7.391   4.368   7.976 -0.2027 -0.0504 -1.4237
   80SLPC  C216 7422   7.263   4.298   8.130  0.0506 -0.4877  0.6392
   80SLPC  H16R 7423   7.356   4.280   8.188 -0.0889  1.7949  1.6578
   80SLPC  H16S 7424   7.236   4.200   8.084 -0.7246  0.7503 -1.6904
   80SLPC  C217 7425   7.151   4.343   8.224 -0.5277  0.2968 -0.7265
   80SLPC  H17R 7426   7.181   4.418   8.299 -0.7619 -1.1558  0.8919
   80SLPC  H17S 7427   7.129   4.250   8.282 -0.0953  1.4249  1.3373
   80SLPC  C218 7428   7.019   4.387   8.159 -0.3456 -0.2729 -0.6271
   80SLPC  H18R 7429   6.981   4.318   8.081 -0.9555  0.1324 -0.6932
   80SLPC  H18S 7430   7.052   4.480   8.109  0.0127  0.4209  0.8351
   80SLPC  H18T 7431   6.943   4.419   8.233  1.1522  0.2086  0.7770
   80SLPC   C33 7432   7.447   5.150   6.828 -1.3106 -0.2166  0.3658
   80SLPC   H3X 7433   7.465   5.253   6.865 -1.1344 -0.7018  1.7009
   80SLPC   H3Y 7434   7.544   5.096   6.834  0.1700  2.2036 -0.3735
   80SLPC   C34 7435   7.333   5.101   6.923 -1.0899 -1.6636  0.0652
   80SLPC   H4X 7436   7.290   5.005   6.887 -4.5693  0.4346 -1.9685
   80SLPC   H4Y 7437   7.250   5.174   6.911  0.1053 -0.1751  0.4080
   80SLPC   C35 7438   7.377   5.092   7.071 -0.0225 -0.3278 -0.0367
   80SLPC   H5X 7439   7.287   5.099   7.136 -0.6332  1.5488 -1.0300
   80SLPC   H5Y 7440   7.441   5.175   7.109 -2.4049  1.4879  0.2817
   80SLPC   C36 7441   7.434   4.955   7.110  0.0737 -0.0503  0.8617
   80SLPC   H6X 7442   7.534   4.947   7.064  0.5745 -3.3073  2.2582
   80SLPC   H6Y 7443   7.374   4.866   7.081  1.5964 -0.3518 -1.6135
   80SLPC   C37 7444   7.455   4.958   7.267 -0.2088 -0.1220  0.8275
   80SLPC   H7X 7445   7.361   4.936   7.322 -0.3461  0.3335  0.7771
   80SLPC   H7Y 7446   7.499   5.058   7.285  2.2849 -0.8612 -0.5693
   80SLPC   C38 7447   7.564   4.861   7.303 -0.1391  0.2674  0.9772
   80SLPC   H8X 7448   7.632   4.848   7.216 -0.0982 -1.1611  1.1996
   80SLPC   H8Y 7449   7.527   4.757   7.317  2.3371 -0.5457  2.1730
   80SLPC   C39 7450   7.632   4.898   7.437  0.2807 -0.2247  0.2341
   80SLPC   H9X 7451   7.675   4.999   7.419  1.4831 -0.4875  1.4825
   80SLPC   H9Y 7452   7.711   4.821   7.452 -0.4871 -1.2303 -0.7003
   80SLPC  C310 7453   7.545   4.889   7.564  0.0343 -0.1566 -0.3417
   80SLPC  H10X 7454   7.530   4.783   7.594  2.3874 -0.1602  1.0278
   80SLPC  H10Y 7455   7.445   4.932   7.541  1.1168  1.2364 -2.9257
   80SLPC  C311 7456   7.617   4.954   7.680  0.0953  0.1657  0.0631
   80SLPC  H11X 7457   7.648   5.055   7.649 -0.7315 -0.2906 -2.4395
   80SLPC  H11Y 7458   7.707   4.895   7.709 -0.0035 -0.6020 -1.1200
   80SLPC  C312 7459   7.531   4.980   7.799 -0.8291 -0.0259 -0.2150
   80SLPC  H12X 7460   7.436   5.028   7.765  0.5602  1.3085 -2.4993
   80SLPC  H12Y 7461   7.582   5.060   7.856  2.0401  0.9598 -3.8362
   80SLPC  C313 7462   7.504   4.851   7.886  0.2198 -0.3445  0.2594
   80SLPC  H13X 7463   7.599   4.796   7.905  1.2039  1.2002 -0.0616
   80SLPC  H13Y 7464   7.443   4.789   7.817 -1.1400  4.1807 -3.0745
   80SLPC  C314 7465   7.435   4.872   8.019  0.1064 -0.2883  0.0305
   80SLPC  H14X 7466   7.343   4.930   7.999 -0.3981 -0.7545  0.9246
   80SLPC  H14Y 7467   7.504   4.928   8.086 -0.9078  0.4703  0.4656
   80SLPC  C315 7468   7.420   4.747   8.110  0.1584 -0.1042  0.4162
   80SLPC  H15X 7469   7.509   4.683   8.091 -0.0903 -0.4967  0.5591
   80SLPC  H15Y 7470   7.331   4.687   8.082  1.5170 -1.1443 -1.9976
   80SLPC  C316 7471   7.412   4.781   8.257  0.3229 -0.3083 -0.3161
   80SLPC  H16X 7472   7.314   4.830   8.275 -1.7177 -3.9157 -0.5835
   80SLPC  H16Y 7473   7.501   4.843   8.280  0.0127 -0.3294  1.0160
   80SLPC  C317 7474   7.412   4.662   8.355 -0.0391 -0.8895 -0.4905
   80SLPC  H17X 7475   7.511   4.614   8.343  0.5759  0.0383  0.6290
   80SLPC  H17Y 7476   7.328   4.593   8.334 -1.7478  0.9079  0.1129
   80SLPC  C318 7477   7.401   4.719   8.500 -0.6911 -0.7376 -0.5044
   80SLPC  H18X 7478   7.300   4.762   8.516 -0.2952  0.0817 -0.1372
   80SLPC  H18Y 7479   7.481   4.795   8.514 -0.8124 -0.7413  0.2509
   80SLPC  H18Z 7480   7.420   4.628   8.560 -0.9795 -1.2154 -1.1291
   81SAPS     N 7481   2.736   3.330  11.122  0.1289  0.7455 -0.3822
   81SAPS   HN1 7482   2.750   3.402  11.049 -0.2007 -1.5177 -2.8429
   81SAPS   HN2 7483   2.654   3.355  11.180  0.3524 -0.4242  0.4866
   81SAPS   HN3 7484   2.827   3.334  11.173  1.4585  0.2350 -2.5556
   81SAPS   C12 7485   2.712   3.192  11.067  0.2433  0.0819 -1.0270
   81SAPS  H12A 7486   2.717   3.129  11.155  0.8739  1.5982  0.0637
   81SAPS   C13 7487   2.576   3.151  11.010  0.3705 -0.4307 -0.4043
   81SAPS  O13A 7488   2.477   3.213  11.057  0.1427  0.0754 -0.0481
   81SAPS  O13B 7489   2.563   3.032  10.961 -0.3826 -0.3408 -0.1280
   81SAPS   C11 7490   2.838   3.155  10.981 -0.1239  1.0791  0.1583
   81SAPS  H11A 7491   2.823   3.193  10.878 -1.4204  0.8504  0.2412
   81SAPS  H11B 7492   2.839   3.044  10.987 -1.9390  0.9314 -1.4116
   81SAPS     P 7493   3.099   3.134  10.995 -0.2143 -0.0223  0.1213
   81SAPS   O13 7494   3.181   3.120  11.119 -0.4846 -0.1526 -0.0380
   81SAPS   O14 7495   3.074   3.012  10.918 -0.3650  0.2730 -0.1580
   81SAPS   O12 7496   2.964   3.204  11.030  0.2282  0.3270 -0.0031
   81SAPS   O11 7497   3.174   3.243  10.905  0.5277  0.7514 -0.2377
   81SAPS    C1 7498   3.102   3.322  10.809 -0.2772  0.1849  0.0990
   81SAPS    HA 7499   3.005   3.358  10.850  0.4970 -0.0658  2.2445
   81SAPS    HB 7500   3.165   3.401  10.765 -1.3818  0.9665 -0.1297
   81SAPS    C2 7501   3.058   3.225  10.691 -0.0586 -0.1243 -1.1136
   81SAPS    HS 7502   3.004   3.132  10.718 -1.7827  0.8715 -0.9717
   81SAPS   O21 7503   3.181   3.192  10.630 -0.2113 -0.1026  0.1422
   81SAPS   C21 7504   3.180   3.093  10.554  0.2024  0.0283  0.2640
   81SAPS   O22 7505   3.090   3.009  10.555 -0.1467 -0.1376  0.3949
   81SAPS   C22 7506   3.299   3.092  10.460 -0.4314  0.4109 -0.4034
   81SAPS   H2R 7507   3.290   3.181  10.394 -0.6346  0.9882  0.3888
   81SAPS   H2S 7508   3.394   3.117  10.512  0.6669  3.2455 -3.4134
   81SAPS    C3 7509   2.970   3.319  10.595  0.1290  0.5840 -0.7634
   81SAPS    HX 7510   3.050   3.385  10.553  2.2713 -1.1323  0.3932
   81SAPS    HY 7511   2.895   3.379  10.650 -0.7875  0.6841 -2.0674
   81SAPS   O31 7512   2.907   3.242  10.495 -0.6708  0.4719  0.1079
   81SAPS   C31 7513   2.797   3.180  10.535 -0.0081 -0.0279  0.6270
   81SAPS   O32 7514   2.741   3.205  10.637  0.8623 -0.6693  0.0901
   81SAPS   C32 7515   2.780   3.059  10.444  0.1352  0.3668  0.2449
   81SAPS   H2X 7516   2.702   2.999  10.496 -0.6260  1.7112  0.6778
   81SAPS   H2Y 7517   2.874   3.002  10.424 -0.6628 -1.4172  1.3472
   81SAPS   C23 7518   3.309   2.967  10.371 -0.3628 -0.4707  0.1240
   81SAPS   H3R 7519   3.279   2.876  10.428  2.7330 -0.8007  1.4260
   81SAPS   H3S 7520   3.413   2.951  10.336 -0.6671  2.5326 -2.5753
   81SAPS   C24 7521   3.219   2.980  10.247  0.2480 -0.3115 -0.0400
   81SAPS   H4R 7522   3.243   3.067  10.183 -0.4104 -1.7147 -2.3013
   81SAPS   H4S 7523   3.117   3.005  10.285 -0.3294 -2.6193  0.0912
   81SAPS   C25 7524   3.210   2.854  10.164 -0.1770  0.1591  0.1653
   81SAPS   H5R 7525   3.174   2.768  10.222  1.7587 -1.1628 -0.5060
   81SAPS   C26 7526   3.252   2.834  10.038  0.7127 -0.3847  0.6005
   81SAPS   H6R 7527   3.244   2.734   9.992 -1.7626  0.7774 -1.8279
   81SAPS   C27 7528   3.314   2.942   9.953 -0.0701 -0.7886 -0.1783
   81SAPS   H7R 7529   3.412   2.903   9.919  1.4484  3.4477 -1.2463
   81SAPS   H7S 7530   3.334   3.036  10.007 -0.8661 -0.9723  0.4577
   81SAPS   C28 7531   3.216   2.976   9.841 -0.6154  0.4256 -1.0288
   81SAPS   H8R 7532   3.155   3.065   9.862 -0.4341  0.2413  0.4054
   81SAPS   C29 7533   3.213   2.917   9.721 -0.3324  0.3624 -0.1494
   81SAPS   H9R 7534   3.154   2.964   9.641 -0.9879 -0.3778 -0.1240
   81SAPS  C210 7535   3.313   2.804   9.668 -0.0692 -0.3091  0.3170
   81SAPS  H10R 7536   3.257   2.741   9.596 -1.0746  1.6897 -0.7262
   81SAPS  H10S 7537   3.326   2.742   9.760  2.3510 -1.1648 -0.5141
   81SAPS  C211 7538   3.444   2.853   9.625  0.1735 -0.5944 -0.0594
   81SAPS  H11R 7539   3.525   2.871   9.697  0.8275  0.8191 -1.1036
   81SAPS  C212 7540   3.487   2.869   9.500 -0.0426 -0.1995  0.2132
   81SAPS  H12R 7541   3.586   2.916   9.485 -0.6207  1.0770  0.2498
   81SAPS  C213 7542   3.407   2.837   9.382 -0.6802  0.3418  0.0690
   81SAPS  H13R 7543   3.387   2.929   9.323  0.4017  0.2036 -0.5526
   81SAPS  H13S 7544   3.304   2.809   9.415 -0.6038 -0.9606 -0.6925
   81SAPS  C214 7545   3.475   2.738   9.293  0.3605  0.2920 -0.1097
   81SAPS  H14R 7546   3.470   2.638   9.339 -1.1830  0.9822  1.3233
   81SAPS  C215 7547   3.531   2.757   9.172  0.9420  0.1629  0.3803
   81SAPS  H15R 7548   3.563   2.664   9.123 -2.8963 -1.1582  0.0631
   81SAPS  C216 7549   3.541   2.884   9.099 -0.1604  0.3571 -0.3864
   81SAPS  H16R 7550   3.645   2.909   9.067 -0.8883  1.9438 -1.6540
   81SAPS  H16S 7551   3.526   2.971   9.166  2.1880 -1.2526  2.5185
   81SAPS  C217 7552   3.460   2.880   8.971  0.5546 -0.1905 -0.5909
   81SAPS  H17R 7553   3.458   2.982   8.925 -1.7315  0.8205  1.5647
   81SAPS  H17S 7554   3.357   2.853   9.000  0.7463 -0.3902 -0.0849
   81SAPS  C218 7555   3.513   2.779   8.867 -0.4693 -0.0288  0.3137
   81SAPS  H18R 7556   3.434   2.736   8.802  1.3196 -0.7815 -1.4796
   81SAPS  H18S 7557   3.551   2.687   8.916  3.4754  0.1843 -1.9209
   81SAPS  C219 7558   3.618   2.834   8.758 -0.5205 -0.1359 -0.3628
   81SAPS  H19R 7559   3.691   2.891   8.821 -3.3853  3.0643  0.3649
   81SAPS  H19S 7560   3.558   2.911   8.705 -2.0746  0.0343  1.5318
   81SAPS  C220 7561   3.683   2.736   8.667  0.1115  0.5998  0.5320
   81SAPS  H20R 7562   3.752   2.673   8.728  0.2253 -0.7182 -0.9058
   81SAPS  H20S 7563   3.746   2.779   8.586 -1.5176  1.1285 -0.5030
   81SAPS  H20T 7564   3.614   2.667   8.615 -0.4777  0.0317  2.0079
   81SAPS   C33 7565   2.718   3.094  10.304  0.5820  0.3047 -0.2674
   81SAPS   H3X 7566   2.663   3.189  10.323 -0.5011  0.5479 -3.9062
   81SAPS   H3Y 7567   2.642   3.017  10.277 -0.0432  0.6182  0.5646
   81SAPS   C34 7568   2.820   3.117  10.190 -0.0750 -0.1968 -0.4194
   81SAPS   H4X 7569   2.872   3.021  10.168  2.3143  0.7759  0.6021
   81SAPS   H4Y 7570   2.898   3.190  10.219 -0.1413 -0.7632  1.2908
   81SAPS   C35 7571   2.748   3.158  10.065 -0.3044 -0.3131 -0.1814
   81SAPS   H5X 7572   2.699   3.257  10.076 -0.0994 -0.0370 -1.5610
   81SAPS   H5Y 7573   2.666   3.087  10.043 -0.4861  0.0220 -0.6088
   81SAPS   C36 7574   2.833   3.159   9.942 -0.1397 -0.5516  0.4214
   81SAPS   H6X 7575   2.918   3.089   9.954  1.2878  0.9273 -0.6044
   81SAPS   H6Y 7576   2.889   3.255   9.932  0.5226 -0.9039  0.6846
   81SAPS   C37 7577   2.768   3.119   9.812  0.3055  0.1014  0.1883
   81SAPS   H7X 7578   2.699   3.205   9.799 -0.4457 -0.2739  1.5432
   81SAPS   H7Y 7579   2.705   3.028   9.820  1.5067 -0.6610  1.2162
   81SAPS   C38 7580   2.861   3.115   9.693  0.2790 -0.1007  0.5644
   81SAPS   H8X 7581   2.930   3.030   9.716  2.3878  0.3344 -3.3402
   81SAPS   H8Y 7582   2.930   3.201   9.682 -0.4216  0.4634  0.5604
   81SAPS   C39 7583   2.790   3.081   9.559 -0.2087  0.2595 -0.5658
   81SAPS   H9X 7584   2.715   3.001   9.573  2.5106 -2.5188 -0.7860
   81SAPS   H9Y 7585   2.875   3.043   9.498  0.0432  0.2268 -0.1944
   81SAPS  C310 7586   2.735   3.209   9.491  0.7657  0.0996  0.1791
   81SAPS  H10X 7587   2.800   3.299   9.497 -0.3367  1.2732 -3.1073
   81SAPS  H10Y 7588   2.642   3.249   9.537  0.6718  1.4483 -1.0923
   81SAPS  C311 7589   2.711   3.194   9.344 -0.3605 -0.7118  0.0782
   81SAPS  H11X 7590   2.631   3.121   9.317  2.2115 -3.0531 -1.8519
   81SAPS  H11Y 7591   2.799   3.156   9.286 -2.4987 -1.1736 -3.1513
   81SAPS  C312 7592   2.661   3.332   9.286  1.0415 -0.2450  0.5313
   81SAPS  H12X 7593   2.734   3.412   9.312  1.0926 -0.8070  2.2835
   81SAPS  H12Y 7594   2.564   3.356   9.335  1.2618 -1.1091  1.4449
   81SAPS  C313 7595   2.648   3.331   9.129  0.7020  0.2308 -0.4651
   81SAPS  H13X 7596   2.568   3.259   9.101 -0.0519 -0.0565  2.1833
   81SAPS  H13Y 7597   2.742   3.291   9.084  0.2477 -2.2864  0.6375
   81SAPS  C314 7598   2.626   3.465   9.065 -0.9374  0.5976  0.7030
   81SAPS  H14X 7599   2.709   3.526   9.105 -0.3869  0.6874 -0.5155
   81SAPS  H14Y 7600   2.527   3.500   9.100 -2.4585 -0.2966 -2.3569
   81SAPS  C315 7601   2.620   3.471   8.911  0.0303 -0.0749  0.1512
   81SAPS  H15X 7602   2.536   3.403   8.884 -0.8663 -0.7297  4.0078
   81SAPS  H15Y 7603   2.709   3.422   8.866 -0.7125 -0.3869 -1.0444
   81SAPS  C316 7604   2.605   3.613   8.858  0.0537  0.3380 -0.8727
   81SAPS  H16X 7605   2.690   3.680   8.881 -0.9386  1.4553 -0.3646
   81SAPS  H16Y 7606   2.517   3.651   8.915  0.7102  2.1325 -0.9989
   81SAPS  C317 7607   2.586   3.623   8.710 -0.1139  0.5121 -0.8073
   81SAPS  H17X 7608   2.497   3.562   8.682 -0.0096  0.0234 -0.1037
   81SAPS  H17Y 7609   2.676   3.595   8.653  0.9584  1.6759  0.2639
   81SAPS  C318 7610   2.548   3.765   8.660  0.3170 -0.1166 -0.2810
   81SAPS  H18X 7611   2.520   3.763   8.552  2.4341 -1.8190 -0.8671
   81SAPS  H18Y 7612   2.624   3.845   8.673  0.9156 -1.0834  3.4200
   81SAPS  H18Z 7613   2.461   3.806   8.717  0.3771  0.7271 -0.7799
   82SAPS     N 7614   6.268   3.722  11.086 -0.8277  0.5437 -0.1923
   82SAPS   HN1 7615   6.277   3.658  11.167  2.1556 -0.7814 -1.4095
   82SAPS   HN2 7616   6.283   3.824  11.099 -4.2856  1.0189  1.4110
   82SAPS   HN3 7617   6.174   3.721  11.040 -0.2664  2.0127 -1.4644
   82SAPS   C12 7618   6.366   3.682  10.978 -0.8062  0.1004  0.3141
   82SAPS  H12A 7619   6.437   3.761  10.958  0.6222 -1.5245 -1.4016
   82SAPS   C13 7620   6.455   3.560  10.998  0.6504 -0.0074 -0.1044
   82SAPS  O13A 7621   6.412   3.464  11.068 -0.5547 -0.1697  0.1899
   82SAPS  O13B 7622   6.543   3.538  10.914  0.1924  0.3509 -0.3994
   82SAPS   C11 7623   6.283   3.659  10.846 -0.1136  0.4137  0.1366
   82SAPS  H11A 7624   6.197   3.590  10.855 -0.4524  0.9023  0.7061
   82SAPS  H11B 7625   6.348   3.616  10.766  0.7443  2.2092 -0.1919
   82SAPS     P 7626   6.303   3.877  10.704  0.1311  0.2461 -0.3331
   82SAPS   O13 7627   6.238   4.015  10.702  0.2337  0.3943 -0.0866
   82SAPS   O14 7628   6.447   3.877  10.731 -0.4482 -0.4829 -0.3095
   82SAPS   O12 7629   6.228   3.784  10.807  0.0111 -0.3405 -1.3227
   82SAPS   O11 7630   6.294   3.812  10.556 -0.0465  0.2831 -0.5551
   82SAPS    C1 7631   6.186   3.721  10.522  0.2756 -0.4883  0.9139
   82SAPS    HA 7632   6.226   3.624  10.486 -2.3485 -0.9146 -1.2295
   82SAPS    HB 7633   6.112   3.707  10.603  0.6455  1.9659  1.7621
   82SAPS    C2 7634   6.095   3.775  10.407  0.2458 -0.3710 -0.6983
   82SAPS    HS 7635   6.007   3.709  10.391 -1.7068  1.9161  0.0768
   82SAPS   O21 7636   6.171   3.786  10.284  0.2462 -0.2859  0.2051
   82SAPS   C21 7637   6.197   3.674  10.216  0.0506 -0.4512 -0.1354
   82SAPS   O22 7638   6.158   3.561  10.242  0.5640  0.2990  0.5200
   82SAPS   C22 7639   6.299   3.708  10.101  0.4651 -0.0139 -0.1256
   82SAPS   H2R 7640   6.252   3.784  10.034  0.7651 -1.1044 -1.6236
   82SAPS   H2S 7641   6.393   3.744  10.148  0.3842  0.3738 -0.2524
   82SAPS    C3 7642   6.041   3.915  10.435  0.4771 -0.7019  0.4576
   82SAPS    HX 7643   6.131   3.981  10.437 -0.3403  0.5541 -1.1278
   82SAPS    HY 7644   5.995   3.932  10.534 -1.2137  0.0715 -0.4210
   82SAPS   O31 7645   5.959   3.966  10.329 -0.0225  0.2194 -0.2908
   82SAPS   C31 7646   5.827   3.944  10.347 -0.4708 -0.0867 -0.2231
   82SAPS   O32 7647   5.777   3.867  10.428 -0.0275  0.2872  0.2484
   82SAPS   C32 7648   5.748   4.036  10.254  0.4607  0.1771  0.8553
   82SAPS   H2X 7649   5.810   4.068  10.167 -0.2725 -2.8386 -0.9080
   82SAPS   H2Y 7650   5.724   4.126  10.315  0.9196  0.8721  0.0269
   82SAPS   C23 7651   6.314   3.583  10.010  0.0186  0.2844 -0.6945
   82SAPS   H3R 7652   6.339   3.493  10.069 -1.0227  0.6138  0.2903
   82SAPS   H3S 7653   6.394   3.590   9.934  0.2146  0.9131 -0.4362
   82SAPS   C24 7654   6.185   3.545   9.938 -0.1788 -0.1571  0.4063
   82SAPS   H4R 7655   6.099   3.534  10.007  0.0182 -1.2406  0.4892
   82SAPS   H4S 7656   6.194   3.443   9.895  0.0748  0.3702 -0.8542
   82SAPS   C25 7657   6.154   3.636   9.817 -0.3129  0.7182  0.2652
   82SAPS   H5R 7658   6.070   3.705   9.835  0.0641  0.9175  1.3364
   82SAPS   C26 7659   6.227   3.654   9.706 -0.3918  0.2289 -0.4146
   82SAPS   H6R 7660   6.203   3.742   9.644 -1.1667  0.2332 -0.1130
   82SAPS   C27 7661   6.355   3.590   9.657  0.0193  0.6424 -0.5556
   82SAPS   H7R 7662   6.427   3.572   9.740 -0.0062  2.8020 -0.0139
   82SAPS   H7S 7663   6.405   3.669   9.597  0.2863  0.5400 -0.4680
   82SAPS   C28 7664   6.321   3.460   9.584  0.1994 -0.2840  0.4374
   82SAPS   H8R 7665   6.240   3.397   9.625 -0.6246  0.1710 -0.4567
   82SAPS   C29 7666   6.380   3.430   9.466 -0.4304  0.2168 -0.1658
   82SAPS   H9R 7667   6.371   3.327   9.427  0.2237  0.2636 -0.4583
   82SAPS  C210 7668   6.484   3.507   9.391 -0.3585 -0.0189  0.2261
   82SAPS  H10R 7669   6.570   3.438   9.407 -0.2067 -0.3465 -1.7793
   82SAPS  H10S 7670   6.505   3.602   9.446 -1.3840 -0.2074  0.9542
   82SAPS  C211 7671   6.466   3.521   9.240 -0.1081  0.6215  0.0804
   82SAPS  H11R 7672   6.360   3.518   9.210  0.2669  0.7773 -1.3245
   82SAPS  C212 7673   6.562   3.518   9.141 -1.0940  0.2071  0.0145
   82SAPS  H12R 7674   6.525   3.540   9.039 -1.6430 -0.1320  0.1356
   82SAPS  C213 7675   6.718   3.519   9.146 -0.2317  0.2088 -0.2253
   82SAPS  H13R 7676   6.757   3.460   9.231  0.3042 -0.0470 -0.6466
   82SAPS  H13S 7677   6.741   3.625   9.170  1.7940  0.2289 -1.9638
   82SAPS  C214 7678   6.788   3.471   9.023 -0.7618  0.6733 -0.2689
   82SAPS  H14R 7679   6.741   3.384   8.974 -3.4205 -0.2254  3.4677
   82SAPS  C215 7680   6.919   3.491   8.980 -0.0367 -0.0411 -0.2499
   82SAPS  H15R 7681   6.954   3.456   8.882 -1.4525  0.7551 -1.0625
   82SAPS  C216 7682   7.000   3.599   9.045 -0.0725  1.0172  0.3584
   82SAPS  H16R 7683   6.961   3.634   9.143  2.0031  0.4927  1.4370
   82SAPS  H16S 7684   7.014   3.691   8.985  0.9607  1.5697  1.3967
   82SAPS  C217 7685   7.152   3.556   9.072 -0.3536  0.8610 -0.1155
   82SAPS  H17R 7686   7.151   3.460   9.129  1.4964  1.2422  0.6139
   82SAPS  H17S 7687   7.192   3.636   9.138  2.0018 -0.4058  0.0898
   82SAPS  C218 7688   7.241   3.534   8.943 -0.0463  0.2490  0.3578
   82SAPS  H18R 7689   7.240   3.626   8.881 -0.7242  0.9886  1.4343
   82SAPS  H18S 7690   7.196   3.459   8.875  1.4067  0.1319 -0.5081
   82SAPS  C219 7691   7.388   3.518   8.982  0.3130  1.0240  0.3208
   82SAPS  H19R 7692   7.385   3.427   9.046 -0.1990  0.8646  0.0724
   82SAPS  H19S 7693   7.413   3.606   9.046 -1.5929  0.9449  1.2465
   82SAPS  C220 7694   7.490   3.515   8.860 -0.3036  0.3943 -0.2905
   82SAPS  H20R 7695   7.473   3.603   8.795 -3.2608  0.8604  0.9528
   82SAPS  H20S 7696   7.488   3.424   8.797  0.5881  0.0892  0.1040
   82SAPS  H20T 7697   7.593   3.517   8.901  0.0831 -1.1069 -1.1154
   82SAPS   C33 7698   5.615   3.974  10.198 -0.2438 -0.4760  0.0549
   82SAPS   H3X 7699   5.560   4.050  10.139  0.4811 -0.3440 -0.4471
   82SAPS   H3Y 7700   5.556   3.953  10.291  0.8625 -2.3274  0.4033
   82SAPS   C34 7701   5.624   3.844  10.120  0.0155  0.0422  1.1301
   82SAPS   H4X 7702   5.520   3.804  10.123 -0.6722  1.4889 -0.9604
   82SAPS   H4Y 7703   5.686   3.775  10.181 -0.9001  0.2250  2.3200
   82SAPS   C35 7704   5.675   3.848   9.974  0.3720  0.2981  0.3590
   82SAPS   H5X 7705   5.787   3.848   9.972  0.4171 -2.0858  0.2091
   82SAPS   H5Y 7706   5.641   3.944   9.930 -1.7223  1.1261  3.5180
   82SAPS   C36 7707   5.628   3.732   9.883  0.6340 -0.5379  1.0432
   82SAPS   H6X 7708   5.521   3.750   9.856  1.5791  0.0585 -2.8337
   82SAPS   H6Y 7709   5.637   3.633   9.933  1.2743  0.1934  2.4315
   82SAPS   C37 7710   5.723   3.724   9.763 -0.1196 -0.0395  0.4633
   82SAPS   H7X 7711   5.827   3.727   9.804 -0.0171 -1.4406  0.3571
   82SAPS   H7Y 7712   5.710   3.802   9.685  0.9257 -1.5900 -1.3680
   82SAPS   C38 7713   5.705   3.600   9.676  0.2230 -0.0199 -0.1451
   82SAPS   H8X 7714   5.598   3.593   9.646 -0.2272 -2.5857  1.7042
   82SAPS   H8Y 7715   5.726   3.514   9.744 -0.5280  0.5011  0.7598
   82SAPS   C39 7716   5.804   3.595   9.562 -0.9130 -0.0482  0.5888
   82SAPS   H9X 7717   5.908   3.587   9.599 -1.0042 -0.4822  0.7574
   82SAPS   H9Y 7718   5.802   3.692   9.508  2.0810  0.1793  0.7441
   82SAPS  C310 7719   5.786   3.474   9.463  0.3574 -0.1480  0.2913
   82SAPS  H10X 7720   5.756   3.387   9.526 -0.3547  1.4349  2.2642
   82SAPS  H10Y 7721   5.888   3.460   9.423  0.2918  1.0147 -0.3169
   82SAPS  C311 7722   5.680   3.507   9.354  0.6144  0.0064  0.1741
   82SAPS  H11X 7723   5.712   3.602   9.307  1.0250  0.0908  0.6117
   82SAPS  H11Y 7724   5.578   3.523   9.395 -0.3639 -1.1329 -1.7163
   82SAPS  C312 7725   5.683   3.397   9.243  0.6175  0.7553 -0.6584
   82SAPS  H12X 7726   5.635   3.300   9.271  1.8077  0.1588 -0.6127
   82SAPS  H12Y 7727   5.782   3.351   9.221  0.4212  0.1243 -0.2651
   82SAPS  C313 7728   5.630   3.446   9.102  0.0565 -0.3237  0.0109
   82SAPS  H13X 7729   5.689   3.534   9.071  0.4492 -0.8285 -0.7034
   82SAPS  H13Y 7730   5.528   3.486   9.118  1.3815  2.1887  3.4648
   82SAPS  C314 7731   5.662   3.343   8.994 -0.2927  0.0244  0.3183
   82SAPS  H14X 7732   5.603   3.250   9.010 -3.0619  1.4451 -0.9419
   82SAPS  H14Y 7733   5.765   3.305   9.014 -1.4402 -2.9575  1.1633
   82SAPS  C315 7734   5.652   3.396   8.856 -0.5226  0.1804  1.0529
   82SAPS  H15X 7735   5.717   3.349   8.779 -0.0112  2.6565 -0.1278
   82SAPS  H15Y 7736   5.662   3.506   8.846 -1.7019  0.1477 -1.1436
   82SAPS  C316 7737   5.500   3.362   8.809  0.3333  0.0518 -0.1997
   82SAPS  H16X 7738   5.423   3.415   8.870 -0.4011  0.0876 -1.1466
   82SAPS  H16Y 7739   5.490   3.255   8.835  1.6991 -0.1469 -0.4220
   82SAPS  C317 7740   5.472   3.381   8.657  0.9724  0.4388 -0.2111
   82SAPS  H17X 7741   5.478   3.491   8.640 -1.2030  0.6735  0.2678
   82SAPS  H17Y 7742   5.367   3.354   8.636  1.1355  0.5562 -1.2316
   82SAPS  C318 7743   5.571   3.311   8.558  0.1664  0.1213  0.0224
   82SAPS  H18X 7744   5.512   3.298   8.464  0.1280  3.0651 -0.4876
   82SAPS  H18Y 7745   5.600   3.213   8.600  1.0235  0.6202  0.6242
   82SAPS  H18Z 7746   5.654   3.384   8.550 -1.6981  2.3679 -0.1670
   83SAPS     N 7747   2.309   3.177  11.273 -0.6259  0.6752 -0.2585
   83SAPS   HN1 7748   2.367   3.172  11.187 -0.7099 -1.2565 -0.2467
   83SAPS   HN2 7749   2.349   3.129  11.356 -1.2992 -2.3882 -1.5926
   83SAPS   HN3 7750   2.219   3.127  11.260  0.2048 -0.7694 -0.6003
   83SAPS   C12 7751   2.280   3.323  11.310  0.4171  0.1661  0.1717
   83SAPS  H12A 7752   2.212   3.326  11.394 -4.3101  0.2794 -3.1957
   83SAPS   C13 7753   2.409   3.402  11.356 -0.0485  0.2298 -0.7178
   83SAPS  O13A 7754   2.519   3.354  11.326 -0.3556 -0.1864 -0.4296
   83SAPS  O13B 7755   2.391   3.515  11.416  0.0166  0.2615  0.2668
   83SAPS   C11 7756   2.215   3.391  11.189  0.0423  0.2672  0.2375
   83SAPS  H11A 7757   2.294   3.388  11.111  0.6448 -0.1881  0.8513
   83SAPS  H11B 7758   2.204   3.499  11.214 -0.6537 -0.5983  4.6590
   83SAPS     P 7759   2.047   3.328  11.006  0.4493  0.0880 -0.0255
   83SAPS   O13 7760   2.133   3.221  10.954  0.7957  0.6312  0.0830
   83SAPS   O14 7761   1.903   3.302  10.993 -0.3003  0.7149  0.7847
   83SAPS   O12 7762   2.087   3.341  11.156  0.3735 -1.0301 -0.2192
   83SAPS   O11 7763   2.083   3.459  10.937  0.5922 -0.2793 -0.4948
   83SAPS    C1 7764   2.191   3.467  10.848  0.2271 -0.2141  0.2440
   83SAPS    HA 7765   2.277   3.418  10.899 -0.7772 -0.2869  1.9508
   83SAPS    HB 7766   2.168   3.413  10.754  2.1527  0.9279 -0.9417
   83SAPS    C2 7767   2.231   3.613  10.826 -0.1296  0.0956 -0.3986
   83SAPS    HS 7768   2.251   3.658  10.926 -2.8909 -0.8654  0.6689
   83SAPS   O21 7769   2.129   3.670  10.749  0.1807 -0.2873 -0.0087
   83SAPS   C21 7770   2.135   3.803  10.712  0.5247  0.2936  0.1420
   83SAPS   O22 7771   2.221   3.877  10.756  0.0374 -0.3459 -0.6507
   83SAPS   C22 7772   2.032   3.836  10.606  0.5006  0.4023  0.4554
   83SAPS   H2R 7773   2.054   3.779  10.513 -1.7330  1.6696 -0.9509
   83SAPS   H2S 7774   1.933   3.806  10.645  0.6044  1.7984  1.8838
   83SAPS    C3 7775   2.372   3.622  10.753  0.3396  0.4833 -0.2270
   83SAPS    HX 7776   2.448   3.607  10.833  0.2556  1.9701  0.1604
   83SAPS    HY 7777   2.391   3.730  10.738 -0.7101  0.8052  0.6097
   83SAPS   O31 7778   2.387   3.535  10.633 -0.6253 -0.0781  0.3746
   83SAPS   C31 7779   2.358   3.602  10.522  1.0000 -0.0108  0.0080
   83SAPS   O32 7780   2.315   3.715  10.511 -0.2469  0.3247  0.2562
   83SAPS   C32 7781   2.343   3.499  10.411 -0.2853 -0.2913  0.2354
   83SAPS   H2X 7782   2.253   3.439  10.436 -1.6966  1.5340 -0.1657
   83SAPS   H2Y 7783   2.438   3.442  10.420 -0.9604 -1.3438  0.9442
   83SAPS   C23 7784   2.010   3.988  10.563 -0.0799 -0.1855 -0.4398
   83SAPS   H3R 7785   2.107   4.040  10.580 -0.7917  0.4451  2.2273
   83SAPS   H3S 7786   1.944   4.049  10.629 -0.0073 -0.5043 -0.0715
   83SAPS   C24 7787   1.976   4.003  10.417 -0.0705  0.3744 -0.0094
   83SAPS   H4R 7788   2.056   3.942  10.369 -1.0461  0.1905 -1.4502
   83SAPS   H4S 7789   1.981   4.111  10.391  2.6387  0.1220 -0.8686
   83SAPS   C25 7790   1.842   3.939  10.376 -0.7922 -0.0249  0.4517
   83SAPS   H5R 7791   1.766   3.980  10.444 -2.0153 -0.1893 -0.7864
   83SAPS   C26 7792   1.807   3.859  10.272  0.4908  0.2324 -0.4004
   83SAPS   H6R 7793   1.706   3.821  10.252  0.8343 -1.0118  0.0822
   83SAPS   C27 7794   1.903   3.806  10.174 -0.1034  0.5247 -0.5003
   83SAPS   H7R 7795   1.865   3.706  10.143 -0.2117  0.4741 -0.2068
   83SAPS   H7S 7796   1.996   3.765  10.219 -1.0759 -2.1802 -0.7414
   83SAPS   C28 7797   1.936   3.902  10.066  0.1995  0.0737 -0.2475
   83SAPS   H8R 7798   1.973   3.997  10.107 -3.6431  0.6445  2.4139
   83SAPS   C29 7799   1.908   3.881   9.933  0.6955 -0.4877 -0.2829
   83SAPS   H9R 7800   1.940   3.958   9.862 -0.1726  1.1223  0.9955
   83SAPS  C210 7801   1.846   3.759   9.862 -0.5478  0.3652  0.1897
   83SAPS  H10R 7802   1.850   3.663   9.918 -1.4854 -0.7713 -1.5987
   83SAPS  H10S 7803   1.918   3.737   9.780 -1.1527  2.0830 -0.8614
   83SAPS  C211 7804   1.704   3.773   9.811  0.3406 -0.5905 -0.1807
   83SAPS  H11R 7805   1.634   3.772   9.895 -0.8549  1.9896 -1.0341
   83SAPS  C212 7806   1.662   3.772   9.682  0.0273 -0.3521  0.2289
   83SAPS  H12R 7807   1.554   3.768   9.662  0.5872 -0.9602 -3.2067
   83SAPS  C213 7808   1.753   3.769   9.558  0.0263 -0.1388  0.5118
   83SAPS  H13R 7809   1.840   3.834   9.581 -0.8185  0.5535  1.8548
   83SAPS  H13S 7810   1.701   3.812   9.470 -0.7636 -2.7291 -0.3943
   83SAPS  C214 7811   1.808   3.638   9.514  0.0603 -0.3362 -0.0460
   83SAPS  H14R 7812   1.799   3.555   9.586  1.2249  1.0125  1.7587
   83SAPS  C215 7813   1.883   3.623   9.403 -0.0743 -0.2150 -0.4580
   83SAPS  H15R 7814   1.899   3.518   9.375  2.7565 -1.0687  3.5048
   83SAPS  C216 7815   1.920   3.724   9.296 -0.3892 -0.2970  0.6881
   83SAPS  H16R 7816   2.009   3.783   9.325 -1.1410  0.6404  1.1650
   83SAPS  H16S 7817   1.833   3.792   9.286 -1.0534 -1.3616 -1.5774
   83SAPS  C217 7818   1.930   3.669   9.145 -0.6000 -0.1890  0.1100
   83SAPS  H17R 7819   1.825   3.637   9.126 -0.4177 -0.3069 -0.7340
   83SAPS  H17S 7820   2.004   3.586   9.140 -1.0257 -1.0367  4.1435
   83SAPS  C218 7821   1.939   3.790   9.048 -0.5116 -0.7534  0.7338
   83SAPS  H18R 7822   2.023   3.855   9.080 -0.5333 -0.3524 -0.0065
   83SAPS  H18S 7823   1.844   3.842   9.073  0.6147  0.9774  1.5659
   83SAPS  C219 7824   1.943   3.753   8.899  0.3501  0.0381  0.0971
   83SAPS  H19R 7825   1.857   3.687   8.875  0.4348  0.1155 -0.4354
   83SAPS  H19S 7826   2.035   3.694   8.879  1.5501  1.6206  0.6928
   83SAPS  C220 7827   1.956   3.877   8.812 -0.3207 -0.4791  0.2060
   83SAPS  H20R 7828   2.031   3.949   8.851 -1.4749  0.5912  0.5354
   83SAPS  H20S 7829   1.856   3.926   8.815 -0.6628 -1.1711  3.5822
   83SAPS  H20T 7830   1.987   3.852   8.708 -0.3029  2.3507 -0.5562
   83SAPS   C33 7831   2.320   3.558  10.274 -0.3182 -0.0029  0.2188
   83SAPS   H3X 7832   2.405   3.628  10.257 -2.0297  2.4877  1.2671
   83SAPS   H3Y 7833   2.229   3.619  10.257  1.4882  2.4102 -1.4675
   83SAPS   C34 7834   2.317   3.437  10.168 -0.2754 -0.5075  0.0650
   83SAPS   H4X 7835   2.245   3.365  10.212  0.6803 -1.0990  0.7005
   83SAPS   H4Y 7836   2.417   3.388  10.163 -0.1260 -0.1495 -0.6223
   83SAPS   C35 7837   2.291   3.488  10.014 -0.7307  0.1628  0.1807
   83SAPS   H5X 7838   2.370   3.559   9.980  1.4193 -2.2188 -0.0878
   83SAPS   H5Y 7839   2.190   3.532  10.000 -1.2123 -0.3838  1.7673
   83SAPS   C36 7840   2.300   3.361   9.926 -0.0121 -0.0045  0.1637
   83SAPS   H6X 7841   2.205   3.307   9.943 -2.3161  3.2978 -1.1709
   83SAPS   H6Y 7842   2.395   3.308   9.949  0.2117  0.7349  0.9980
   83SAPS   C37 7843   2.299   3.385   9.772 -0.5764 -0.2313 -0.7730
   83SAPS   H7X 7844   2.377   3.459   9.744 -0.0509 -0.7785 -0.7727
   83SAPS   H7Y 7845   2.203   3.441   9.760 -1.0926 -0.6417  1.2173
   83SAPS   C38 7846   2.303   3.262   9.690 -0.4804 -0.1520 -0.3468
   83SAPS   H8X 7847   2.204   3.213   9.708 -0.5195  0.1696  0.3722
   83SAPS   H8Y 7848   2.370   3.188   9.738 -0.2294  0.4877  0.3065
   83SAPS   C39 7849   2.334   3.280   9.546 -0.7167 -0.5970  0.0144
   83SAPS   H9X 7850   2.371   3.182   9.508  1.1388 -0.0273  0.2337
   83SAPS   H9Y 7851   2.420   3.350   9.536 -1.3839  0.2324 -0.0201
   83SAPS  C310 7852   2.221   3.322   9.457  0.6940 -0.5794  0.1041
   83SAPS  H10X 7853   2.161   3.406   9.500 -0.2794 -1.4824  0.5626
   83SAPS  H10Y 7854   2.151   3.236   9.461  0.5689 -0.5614 -1.1248
   83SAPS  C311 7855   2.273   3.333   9.311 -0.2421 -0.4595 -0.7182
   83SAPS  H11X 7856   2.327   3.237   9.297  1.4966  0.6659 -2.1042
   83SAPS  H11Y 7857   2.354   3.408   9.304 -0.0404 -0.7594 -1.7076
   83SAPS  C312 7858   2.172   3.352   9.200  0.4176  0.1416  0.0245
   83SAPS  H12X 7859   2.125   3.450   9.221 -0.4833 -0.3081  0.1246
   83SAPS  H12Y 7860   2.099   3.271   9.220  0.8096 -0.1234  0.4271
   83SAPS  C313 7861   2.235   3.341   9.055  0.4531 -0.2483  0.2645
   83SAPS  H13X 7862   2.274   3.240   9.032 -0.4313 -0.2937 -1.1080
   83SAPS  H13Y 7863   2.317   3.416   9.053  0.3299  0.0980  3.2690
   83SAPS  C314 7864   2.145   3.389   8.941 -0.2962  0.1137  0.2783
   83SAPS  H14X 7865   2.102   3.486   8.973 -1.2725 -1.0589  2.7917
   83SAPS  H14Y 7866   2.047   3.336   8.936 -1.0280  1.4759 -0.1858
   83SAPS  C315 7867   2.212   3.395   8.801  0.4441 -0.1250 -0.3453
   83SAPS  H15X 7868   2.315   3.436   8.814  0.0475  0.7392  0.1418
   83SAPS  H15Y 7869   2.147   3.465   8.745 -0.2122 -0.4400  0.0080
   83SAPS  C316 7870   2.211   3.267   8.721 -0.6580 -0.3063 -0.0810
   83SAPS  H16X 7871   2.122   3.206   8.750 -0.6130  0.0268  0.7917
   83SAPS  H16Y 7872   2.297   3.212   8.765 -0.3490  0.2008 -0.0524
   83SAPS  C317 7873   2.231   3.295   8.573 -0.4852  0.9448  0.6928
   83SAPS  H17X 7874   2.327   3.346   8.548 -1.0010  0.8315 -1.8277
   83SAPS  H17Y 7875   2.144   3.356   8.543 -0.7899  0.9217  1.5219
   83SAPS  C318 7876   2.228   3.160   8.488  0.1379  0.1116 -0.5272
   83SAPS  H18X 7877   2.250   3.188   8.383 -0.3568 -0.1259 -0.6976
   83SAPS  H18Y 7878   2.130   3.109   8.502  0.4621 -0.6806 -1.0778
   83SAPS  H18Z 7879   2.310   3.090   8.514 -1.4047 -1.8843 -0.8268
   84SAPS     N 7880   4.036   3.091  11.124 -0.3917 -0.2363  0.1645
   84SAPS   HN1 7881   4.107   3.015  11.135 -0.0923  0.0246  0.0493
   84SAPS   HN2 7882   3.991   3.082  11.030  0.2009  1.0860 -0.2620
   84SAPS   HN3 7883   4.081   3.183  11.138  2.1566 -1.3005 -0.4217
   84SAPS   C12 7884   3.937   3.082  11.233  0.4460 -0.0495  0.1569
   84SAPS  H12A 7885   3.863   3.008  11.206 -3.1848  2.0321  3.4771
   84SAPS   C13 7886   4.004   3.044  11.368 -0.6902  0.0371 -0.0226
   84SAPS  O13A 7887   4.123   3.018  11.364 -0.2109  0.0223 -0.0080
   84SAPS  O13B 7888   3.932   3.009  11.466  0.5132 -0.1140 -0.1275
   84SAPS   C11 7889   3.848   3.204  11.233  0.4476 -0.2038 -0.4616
   84SAPS  H11A 7890   3.906   3.288  11.277  0.1319  1.0697 -2.3402
   84SAPS  H11B 7891   3.767   3.181  11.305  0.4887  0.9930 -0.0096
   84SAPS     P 7892   3.682   3.338  11.094  0.4788 -0.0064  0.0358
   84SAPS   O13 7893   3.560   3.256  11.088  0.2160  0.1570 -0.8511
   84SAPS   O14 7894   3.693   3.442  11.201  0.0598 -0.4799 -0.3889
   84SAPS   O12 7895   3.802   3.239  11.095 -0.5778  0.1152 -0.8457
   84SAPS   O11 7896   3.697   3.397  10.947  0.3268 -0.1578  0.0318
   84SAPS    C1 7897   3.812   3.475  10.912  0.4373  0.0757  1.0912
   84SAPS    HA 7898   3.856   3.527  10.999  0.6637  0.3943  0.7933
   84SAPS    HB 7899   3.889   3.409  10.866  0.7918  1.8134 -0.9844
   84SAPS    C2 7900   3.773   3.594  10.812  0.0236  0.2622  0.2314
   84SAPS    HS 7901   3.702   3.658  10.868  0.8306  1.6273 -0.2568
   84SAPS   O21 7902   3.719   3.531  10.693 -0.2853 -0.4859 -0.0521
   84SAPS   C21 7903   3.619   3.603  10.637 -0.7272  0.0133 -0.0508
   84SAPS   O22 7904   3.591   3.718  10.657 -0.2148 -0.0132 -0.2692
   84SAPS   C22 7905   3.537   3.513  10.545 -0.3410 -0.0026  0.5178
   84SAPS   H2R 7906   3.611   3.447  10.495  1.2470  1.1393  1.2775
   84SAPS   H2S 7907   3.483   3.454  10.623  0.1891  0.0749  0.9464
   84SAPS    C3 7908   3.890   3.693  10.778  0.1085 -0.2058  0.0275
   84SAPS    HX 7909   3.913   3.740  10.876 -0.7390 -1.9228  1.1169
   84SAPS    HY 7910   3.841   3.773  10.719  0.4727  0.1926  0.2642
   84SAPS   O31 7911   4.005   3.630  10.711 -0.6513 -0.2674 -0.0486
   84SAPS   C31 7912   4.012   3.636  10.578 -0.7899  0.2882 -0.2298
   84SAPS   O32 7913   3.926   3.685  10.503  0.0937  0.0982 -0.3535
   84SAPS   C32 7914   4.145   3.585  10.532 -0.0220 -0.5037 -0.4379
   84SAPS   H2X 7915   4.143   3.473  10.534  0.7771 -0.5968  3.0166
   84SAPS   H2Y 7916   4.231   3.608  10.599  0.7657 -3.6264 -0.2141
   84SAPS   C23 7917   3.444   3.591  10.447 -0.2875 -0.0284 -1.0660
   84SAPS   H3R 7918   3.500   3.665  10.385 -3.7040  3.0924 -0.7430
   84SAPS   H3S 7919   3.387   3.666  10.506  1.2089 -0.1049  0.5850
   84SAPS   C24 7920   3.349   3.502  10.373 -1.0072 -0.1457  0.6248
   84SAPS   H4R 7921   3.297   3.439  10.448 -0.4124 -1.2462  0.1463
   84SAPS   H4S 7922   3.409   3.436  10.306 -1.5143 -0.9310  0.9299
   84SAPS   C25 7923   3.250   3.577  10.287 -0.3237 -0.8356 -1.0725
   84SAPS   H5R 7924   3.210   3.664  10.342 -1.7744 -2.3781  0.4285
   84SAPS   C26 7925   3.231   3.564  10.154  1.1255 -0.3573 -0.3428
   84SAPS   H6R 7926   3.148   3.622  10.110 -1.2293 -2.1911  1.4220
   84SAPS   C27 7927   3.290   3.461  10.067 -0.3701  0.0192  0.2632
   84SAPS   H7R 7928   3.365   3.396  10.116  0.4649 -0.1525 -1.1814
   84SAPS   H7S 7929   3.341   3.518   9.987 -0.6494  0.7344  0.5876
   84SAPS   C28 7930   3.189   3.367  10.013  0.9618  0.1063 -0.2408
   84SAPS   H8R 7931   3.124   3.328  10.093  0.8933  0.1931 -0.2542
   84SAPS   C29 7932   3.175   3.323   9.884  0.3891 -0.2850  0.5064
   84SAPS   H9R 7933   3.102   3.244   9.862  1.2846 -0.3500 -2.5971
   84SAPS  C210 7934   3.263   3.370   9.771 -0.1584  0.2074 -0.1348
   84SAPS  H10R 7935   3.332   3.452   9.800 -0.9601  1.9775 -2.8322
   84SAPS  H10S 7936   3.203   3.408   9.685 -1.7667 -1.3116  0.2673
   84SAPS  C211 7937   3.356   3.266   9.712  0.6873  0.1111  0.4706
   84SAPS  H11R 7938   3.443   3.231   9.770 -0.2405 -1.3841  1.0207
   84SAPS  C212 7939   3.336   3.209   9.589  0.2569  0.3085  0.5534
   84SAPS  H12R 7940   3.411   3.136   9.556 -0.3700 -0.9028  1.6856
   84SAPS  C213 7941   3.230   3.250   9.491  0.4320  0.0320  0.6599
   84SAPS  H13R 7942   3.239   3.357   9.464  2.0080 -0.5294 -1.2365
   84SAPS  H13S 7943   3.132   3.248   9.543 -0.0510  3.6319  0.1719
   84SAPS  C214 7944   3.225   3.172   9.358  0.1650 -0.1057 -0.6551
   84SAPS  H14R 7945   3.161   3.083   9.361 -0.0714  0.0783 -0.1185
   84SAPS  C215 7946   3.272   3.202   9.239  0.3273 -1.0175 -0.3239
   84SAPS  H15R 7947   3.256   3.134   9.154 -1.2413 -1.8779  0.6224
   84SAPS  C216 7948   3.339   3.331   9.194 -1.1272 -0.2056 -0.4429
   84SAPS  H16R 7949   3.345   3.409   9.274  1.3792  0.6584 -1.3807
   84SAPS  H16S 7950   3.298   3.387   9.108 -0.1164  0.2340 -0.6601
   84SAPS  C217 7951   3.489   3.309   9.146  0.2701  0.0317 -0.2380
   84SAPS  H17R 7952   3.534   3.392   9.088  1.0720 -0.9603 -1.0753
   84SAPS  H17S 7953   3.482   3.224   9.075 -0.0046 -1.0370  1.0162
   84SAPS  C218 7954   3.589   3.263   9.257  0.3570 -1.3633  0.0244
   84SAPS  H18R 7955   3.556   3.161   9.287  1.4993 -1.2096  1.9392
   84SAPS  H18S 7956   3.591   3.329   9.346  0.7322 -1.4267  0.0663
   84SAPS  C219 7957   3.739   3.247   9.219  0.3954 -1.0454  0.3945
   84SAPS  H19R 7958   3.754   3.159   9.154 -1.0129 -0.3317 -0.9782
   84SAPS  H19S 7959   3.797   3.215   9.308  1.0919 -3.2488 -0.7830
   84SAPS  C220 7960   3.833   3.365   9.175 -0.1837 -0.3432 -0.3880
   84SAPS  H20R 7961   3.859   3.442   9.250 -3.1109  0.7524 -0.3323
   84SAPS  H20S 7962   3.782   3.418   9.092  1.3900 -0.2505 -1.3234
   84SAPS  H20T 7963   3.920   3.318   9.124 -0.0389 -1.6179  0.9612
   84SAPS   C33 7964   4.186   3.635  10.399  0.2748 -0.3495  0.6976
   84SAPS   H3X 7965   4.205   3.745  10.402 -1.5071 -0.0005  0.1045
   84SAPS   H3Y 7966   4.106   3.604  10.329 -0.1386  0.9314  0.5641
   84SAPS   C34 7967   4.320   3.569  10.370  0.7862  0.0369 -0.0258
   84SAPS   H4X 7968   4.302   3.460  10.369 -0.2898  0.1997 -1.3791
   84SAPS   H4Y 7969   4.392   3.594  10.452  1.2643 -2.4394  0.3920
   84SAPS   C35 7970   4.379   3.619  10.235  0.5435  0.8683  0.2881
   84SAPS   H5X 7971   4.486   3.589  10.234  0.2447 -0.2424 -1.6069
   84SAPS   H5Y 7972   4.370   3.730  10.235  1.7311  0.9825  0.4629
   84SAPS   C36 7973   4.309   3.567  10.112 -0.1856  0.2303  0.2280
   84SAPS   H6X 7974   4.202   3.595  10.106  0.6780  4.9691  1.8632
   84SAPS   H6Y 7975   4.312   3.456  10.117 -3.9283  0.0480  1.4254
   84SAPS   C37 7976   4.386   3.618   9.990  0.8000 -0.1713 -0.4910
   84SAPS   H7X 7977   4.477   3.555   9.984  0.1326 -1.0160 -3.2326
   84SAPS   H7Y 7978   4.407   3.726  10.002 -2.3041  0.4092  0.7205
   84SAPS   C38 7979   4.304   3.585   9.866  0.8208  0.3383 -0.5999
   84SAPS   H8X 7980   4.198   3.614   9.883  0.7829 -1.5888  4.2919
   84SAPS   H8Y 7981   4.297   3.475   9.852 -0.2956  0.1675  0.9630
   84SAPS   C39 7982   4.356   3.647   9.742  0.0729  0.0697  0.0764
   84SAPS   H9X 7983   4.462   3.628   9.714 -0.4220 -2.2765 -0.4287
   84SAPS   H9Y 7984   4.362   3.757   9.751  0.2062  0.2635 -1.8588
   84SAPS  C310 7985   4.267   3.631   9.623  0.4980 -0.2476  0.6084
   84SAPS  H10X 7986   4.293   3.719   9.559 -2.3079 -1.7409 -2.9601
   84SAPS  H10Y 7987   4.159   3.637   9.646  0.2753 -2.0474  0.1758
   84SAPS  C311 7988   4.305   3.501   9.553  0.5513  0.2566 -0.9748
   84SAPS  H11X 7989   4.277   3.409   9.609 -0.8877 -0.8889 -3.4033
   84SAPS  H11Y 7990   4.415   3.489   9.541  0.4820  0.3244 -1.7988
   84SAPS  C312 7991   4.224   3.481   9.420 -0.0181  0.2273  0.1826
   84SAPS  H12X 7992   4.217   3.583   9.376  2.8333 -0.1564 -1.4281
   84SAPS  H12Y 7993   4.124   3.441   9.447 -1.4343  3.2873 -0.1165
   84SAPS  C313 7994   4.291   3.396   9.313  0.0066  0.3891  0.8997
   84SAPS  H13X 7995   4.298   3.294   9.357 -2.5901  0.4464  1.5818
   84SAPS  H13Y 7996   4.396   3.423   9.289  0.0479 -0.7562 -0.3491
   84SAPS  C314 7997   4.212   3.392   9.177  0.0948 -0.3195 -0.3884
   84SAPS  H14X 7998   4.208   3.488   9.122 -0.2383  0.6122  1.1977
   84SAPS  H14Y 7999   4.113   3.364   9.219  0.3823 -1.1167 -0.2162
   84SAPS  C315 8000   4.271   3.282   9.087 -0.6393 -0.1968 -0.5222
   84SAPS  H15X 8001   4.275   3.185   9.141 -0.0484 -0.1085 -0.4026
   84SAPS  H15Y 8002   4.377   3.314   9.074 -0.4146 -1.3768 -1.9687
   84SAPS  C316 8003   4.218   3.261   8.942 -0.2346 -0.2169  0.4019
   84SAPS  H16X 8004   4.146   3.344   8.925 -0.4636 -0.3301  0.8125
   84SAPS  H16Y 8005   4.167   3.163   8.927 -0.2354 -0.1931  0.2416
   84SAPS  C317 8006   4.329   3.261   8.832  0.3599  0.2129 -0.0338
   84SAPS  H17X 8007   4.416   3.195   8.851  0.3352  0.7052  1.9888
   84SAPS  H17Y 8008   4.378   3.360   8.821 -0.9417  1.0971  1.6362
   84SAPS  C318 8009   4.266   3.226   8.696 -0.3547  0.3355 -0.6546
   84SAPS  H18X 8010   4.190   3.306   8.682  1.8052  2.2099 -2.4616
   84SAPS  H18Y 8011   4.216   3.126   8.694 -1.0492  0.6544  0.1071
   84SAPS  H18Z 8012   4.334   3.234   8.609  0.8229  0.8289  0.2908
   85SAPS     N 8013   1.856   6.492  11.192  0.1824  0.6711  0.7583
   85SAPS   HN1 8014   1.886   6.442  11.106 -2.3814  0.3906 -0.0568
   85SAPS   HN2 8015   1.772   6.548  11.168  0.3634  0.4645 -0.4522
   85SAPS   HN3 8016   1.936   6.548  11.227  0.5734  0.0179  0.9274
   85SAPS   C12 8017   1.817   6.386  11.290 -0.1133 -0.0538  0.4263
   85SAPS  H12A 8018   1.905   6.334  11.326  1.1699  0.8902 -1.2331
   85SAPS   C13 8019   1.757   6.455  11.415 -0.1866  0.3412  0.3813
   85SAPS  O13A 8020   1.758   6.579  11.434 -0.3552  0.6674  0.5391
   85SAPS  O13B 8021   1.740   6.388  11.523 -0.1836 -0.1253 -0.2573
   85SAPS   C11 8022   1.716   6.294  11.222 -0.0552  0.7227 -0.6617
   85SAPS  H11A 8023   1.628   6.355  11.192  1.5941  3.3059 -0.5410
   85SAPS  H11B 8024   1.683   6.218  11.296  1.1425  0.0695 -0.7595
   85SAPS     P 8025   1.731   6.121  11.015  0.3236  0.0188  0.0302
   85SAPS   O13 8026   1.842   6.031  10.983 -0.4469 -0.2372 -0.2262
   85SAPS   O14 8027   1.614   6.057  11.070 -0.2995  0.2645 -0.2337
   85SAPS   O12 8028   1.787   6.232  11.116  0.3002  0.4919  0.0275
   85SAPS   O11 8029   1.675   6.211  10.894  0.4269  0.1047  0.3540
   85SAPS    C1 8030   1.770   6.261  10.798  0.0341  0.2410  0.1778
   85SAPS    HA 8031   1.759   6.371  10.783  0.2319  0.4307  1.3904
   85SAPS    HB 8032   1.875   6.231  10.814 -0.3137 -1.0778  0.0880
   85SAPS    C2 8033   1.741   6.203  10.652  0.1791  0.4814 -0.3373
   85SAPS    HS 8034   1.811   6.261  10.589  0.6129 -0.2232 -0.5107
   85SAPS   O21 8035   1.599   6.208  10.614 -0.2567 -0.0622 -0.0199
   85SAPS   C21 8036   1.566   6.324  10.566  0.6340  0.2489 -0.4717
   85SAPS   O22 8037   1.622   6.432  10.575 -0.4251 -0.3788  0.0435
   85SAPS   C22 8038   1.424   6.317  10.516 -0.3064  0.8498 -0.0943
   85SAPS   H2R 8039   1.401   6.210  10.495 -2.4101  1.3608 -0.6334
   85SAPS   H2S 8040   1.363   6.362  10.597  0.7895 -0.1943  1.3648
   85SAPS    C3 8041   1.787   6.049  10.652 -0.2808 -0.2547 -0.1222
   85SAPS    HX 8042   1.741   5.990  10.734  0.5570  1.2217  1.4639
   85SAPS    HY 8043   1.895   6.060  10.676 -0.4215  0.9905 -0.0270
   85SAPS   O31 8044   1.786   5.991  10.516 -0.4326  0.4876  0.0293
   85SAPS   C31 8045   1.665   5.939  10.483 -0.4112  0.2045  0.1597
   85SAPS   O32 8046   1.563   5.955  10.551  0.3455 -0.8111  0.5590
   85SAPS   C32 8047   1.665   5.870  10.349  0.1470  0.1354 -0.0729
   85SAPS   H2X 8048   1.614   5.773  10.370  0.5459  0.1374  0.9993
   85SAPS   H2Y 8049   1.771   5.848  10.324  0.3530  2.1708 -1.1771
   85SAPS   C23 8050   1.410   6.385  10.376  0.0653  0.3753 -0.5596
   85SAPS   H3R 8051   1.493   6.344  10.314  0.4753  0.1188  0.1422
   85SAPS   H3S 8052   1.422   6.492  10.402  2.0048  0.0555  0.0778
   85SAPS   C24 8053   1.271   6.384  10.303 -0.2470  0.2425  0.7532
   85SAPS   H4R 8054   1.277   6.438  10.205  0.9981 -1.7653 -0.3352
   85SAPS   H4S 8055   1.194   6.425  10.372 -1.1890 -1.9538  1.0954
   85SAPS   C25 8056   1.230   6.246  10.282 -0.0060  0.4472  0.0137
   85SAPS   H5R 8057   1.232   6.183  10.372 -0.4286 -0.5996 -0.6859
   85SAPS   C26 8058   1.197   6.181  10.165  0.2542 -0.4725  0.0953
   85SAPS   H6R 8059   1.186   6.072  10.160 -0.0957 -0.3896 -1.9461
   85SAPS   C27 8060   1.215   6.250  10.031 -0.2900 -0.2337 -0.1370
   85SAPS   H7R 8061   1.320   6.233   9.998 -0.4587 -0.8114 -0.3934
   85SAPS   H7S 8062   1.213   6.360  10.045 -0.7301 -0.2000 -0.4211
   85SAPS   C28 8063   1.110   6.199   9.937  0.7049 -0.2225  0.2901
   85SAPS   H8R 8064   1.041   6.123   9.974  0.4734 -0.0575  0.2016
   85SAPS   C29 8065   1.119   6.217   9.806  0.4230 -0.0850 -0.3229
   85SAPS   H9R 8066   1.049   6.173   9.733  1.5545 -0.7129 -1.0529
   85SAPS  C210 8067   1.217   6.294   9.724  0.4780  0.5029 -0.0956
   85SAPS  H10R 8068   1.315   6.316   9.772  0.1351  0.2049  0.7668
   85SAPS  H10S 8069   1.168   6.389   9.693 -0.6681 -0.1512 -0.3782
   85SAPS  C211 8070   1.253   6.212   9.600  0.8615 -0.0101  0.2399
   85SAPS  H11R 8071   1.331   6.136   9.609 -0.2317 -1.1380  0.4954
   85SAPS  C212 8072   1.195   6.238   9.480 -0.1838  0.4350  0.8732
   85SAPS  H12R 8073   1.239   6.186   9.393 -0.2068 -2.2206  2.3225
   85SAPS  C213 8074   1.079   6.331   9.448  0.5862  0.1229  0.1319
   85SAPS  H13R 8075   1.119   6.429   9.414 -0.5036  0.7591  0.6650
   85SAPS  H13S 8076   1.011   6.344   9.535 -2.6173 -0.3369 -2.1232
   85SAPS  C214 8077   0.993   6.284   9.336  0.5172  0.7527 -0.0187
   85SAPS  H14R 8078   0.996   6.174   9.327  0.7493  0.7340  0.2834
   85SAPS  C215 8079   0.913   6.357   9.254 -0.6837  0.4758 -0.5164
   85SAPS  H15R 8080   0.841   6.309   9.187 -2.0486  1.8649 -0.1037
   85SAPS  C216 8081   0.893   6.504   9.274 -0.0054  1.0231 -0.5330
   85SAPS  H16R 8082   0.960   6.560   9.205  2.2566  0.6748  1.2339
   85SAPS  H16S 8083   0.923   6.524   9.379 -1.6350 -3.9796  1.1781
   85SAPS  C217 8084   0.750   6.549   9.252  0.9086 -0.1648  0.6607
   85SAPS  H17R 8085   0.736   6.655   9.279  1.0932 -0.5353  2.3853
   85SAPS  H17S 8086   0.686   6.490   9.321 -0.6993 -3.7573 -3.4082
   85SAPS  C218 8087   0.703   6.517   9.113 -0.0410  0.0929  0.1592
   85SAPS  H18R 8088   0.698   6.408   9.093 -1.5505  0.7144 -3.9153
   85SAPS  H18S 8089   0.777   6.567   9.047  0.1991  0.5141  0.7368
   85SAPS  C219 8090   0.565   6.576   9.082  0.7368  0.1807  0.2166
   85SAPS  H19R 8091   0.572   6.687   9.084 -1.1949  0.4160 -1.8994
   85SAPS  H19S 8092   0.485   6.548   9.154 -1.5232  2.3784 -1.2773
   85SAPS  C220 8093   0.515   6.525   8.942 -0.6604  0.1447 -0.5777
   85SAPS  H20R 8094   0.470   6.615   8.894  2.3563  0.8155 -2.4441
   85SAPS  H20S 8095   0.436   6.449   8.951  0.7729 -1.3460 -0.0930
   85SAPS  H20T 8096   0.593   6.486   8.872  0.9087  2.2530 -0.1365
   85SAPS   C33 8097   1.581   5.938  10.233 -0.4249  0.3951 -0.2427
   85SAPS   H3X 8098   1.482   5.976  10.266 -0.0981  0.4730  0.6736
   85SAPS   H3Y 8099   1.567   5.867  10.149 -1.3120  0.0421  0.1902
   85SAPS   C34 8100   1.661   6.057  10.164 -0.3888  0.3528 -0.2270
   85SAPS   H4X 8101   1.770   6.036  10.149 -0.2852 -1.1509  2.0155
   85SAPS   H4Y 8102   1.661   6.134  10.244 -0.6618 -0.9871  1.1233
   85SAPS   C35 8103   1.602   6.119  10.039  0.9313  0.3015 -0.7934
   85SAPS   H5X 8104   1.632   6.226  10.041 -1.4843  1.0341 -0.2809
   85SAPS   H5Y 8105   1.492   6.107  10.050  0.7965  1.5236 -0.6235
   85SAPS   C36 8106   1.646   6.044   9.912  0.7737 -0.2664  0.1100
   85SAPS   H6X 8107   1.611   5.940   9.925  1.4677 -0.5583 -0.3232
   85SAPS   H6Y 8108   1.756   6.041   9.902  0.8289  1.7489 -0.4320
   85SAPS   C37 8109   1.581   6.123   9.799  0.3278  0.6018  0.9700
   85SAPS   H7X 8110   1.559   6.227   9.831 -1.8151 -0.2020  2.3397
   85SAPS   H7Y 8111   1.481   6.077   9.781 -0.3412  1.0854  3.1595
   85SAPS   C38 8112   1.667   6.105   9.670  0.6515  0.6127  0.1345
   85SAPS   H8X 8113   1.666   5.999   9.634 -1.9955  1.5115 -2.9021
   85SAPS   H8Y 8114   1.775   6.124   9.689  0.5007  1.8372 -0.1472
   85SAPS   C39 8115   1.615   6.192   9.555 -0.2159  0.4649 -0.9000
   85SAPS   H9X 8116   1.592   6.298   9.578 -0.5416  0.6272 -1.9280
   85SAPS   H9Y 8117   1.523   6.138   9.522  0.2646  0.9032 -3.1247
   85SAPS  C310 8118   1.705   6.198   9.430  0.0245 -0.2024  0.3190
   85SAPS  H10X 8119   1.721   6.095   9.393  1.2548  0.7894 -2.2026
   85SAPS  H10Y 8120   1.805   6.239   9.452 -0.3955 -0.0233  1.9793
   85SAPS  C311 8121   1.643   6.276   9.313 -0.3924 -0.8011 -0.3268
   85SAPS  H11X 8122   1.641   6.383   9.345  2.2049 -0.5903 -0.7215
   85SAPS  H11Y 8123   1.536   6.246   9.306 -0.6170 -0.3145  0.7875
   85SAPS  C312 8124   1.709   6.260   9.175 -0.1711 -0.4462  0.4513
   85SAPS  H12X 8125   1.702   6.157   9.132 -1.1054 -0.9655  1.7892
   85SAPS  H12Y 8126   1.818   6.276   9.183 -0.3866  1.1764  0.4329
   85SAPS  C313 8127   1.657   6.367   9.078  0.2921  0.1408  0.5146
   85SAPS  H13X 8128   1.676   6.464   9.128  0.2551  0.1155  0.5769
   85SAPS  H13Y 8129   1.546   6.357   9.077  0.1841  1.1197 -0.5691
   85SAPS  C314 8130   1.711   6.357   8.931 -0.3762 -0.1620  0.8267
   85SAPS  H14X 8131   1.821   6.350   8.936 -0.0479  2.5159 -0.7968
   85SAPS  H14Y 8132   1.697   6.458   8.888  1.9084  0.0967  0.5815
   85SAPS  C315 8133   1.637   6.256   8.832  0.2376 -0.2312 -0.0324
   85SAPS  H15X 8134   1.527   6.267   8.843  0.1462 -2.0355  1.2864
   85SAPS  H15Y 8135   1.665   6.150   8.848  1.8835  0.0628 -0.6775
   85SAPS  C316 8136   1.678   6.285   8.686  0.6880  0.4584 -0.5344
   85SAPS  H16X 8137   1.788   6.282   8.678  1.2491  0.9285  4.0611
   85SAPS  H16Y 8138   1.653   6.392   8.676 -2.5849 -0.1312  0.2033
   85SAPS  C317 8139   1.605   6.198   8.576  0.4718  0.1646  0.6292
   85SAPS  H17X 8140   1.496   6.216   8.581  0.2941 -0.8810  0.8423
   85SAPS  H17Y 8141   1.617   6.091   8.604 -1.3656  0.2622  1.9429
   85SAPS  C318 8142   1.658   6.235   8.437  0.4844 -0.0254 -0.6418
   85SAPS  H18X 8143   1.607   6.178   8.356  0.4091  0.0036 -0.6151
   85SAPS  H18Y 8144   1.765   6.205   8.437  1.1459  2.0443  1.3794
   85SAPS  H18Z 8145   1.638   6.344   8.427 -0.0719  0.1782  2.0104
   86SAPS     N 8146   2.301   0.025  11.125  0.2547 -0.0074  0.1935
   86SAPS   HN1 8147   2.343  -0.033  11.049 -0.7064 -0.9493  0.3608
   86SAPS   HN2 8148   2.294   0.122  11.089  2.3932 -0.5752 -2.0772
   86SAPS   HN3 8149   2.367   0.021  11.205  1.1825  1.0938 -0.4906
   86SAPS   C12 8150   2.171  -0.044  11.163 -0.1595  0.1654  0.7323
   86SAPS  H12A 8151   2.140  -0.092  11.071 -0.1334 -0.1823  0.9054
   86SAPS   C13 8152   2.189  -0.156  11.272 -0.1682 -0.6432  0.1893
   86SAPS  O13A 8153   2.296  -0.172  11.325 -0.4515 -0.5058  0.0108
   86SAPS  O13B 8154   2.086  -0.221  11.308 -0.6669  0.0441 -0.0766
   86SAPS   C11 8155   2.062   0.062  11.203  0.4146 -0.2646  0.4361
   86SAPS  H11A 8156   2.113   0.121  11.283  2.4383 -1.7407  0.3353
   86SAPS  H11B 8157   1.979   0.010  11.254 -0.5054  0.9386  0.2038
   86SAPS     P 8158   1.903   0.083  10.987  0.6230 -0.0447  0.1175
   86SAPS   O13 8159   1.955  -0.037  10.928  0.2255  0.4671  0.0673
   86SAPS   O14 8160   1.771   0.082  11.057 -0.3831  0.1404 -0.1691
   86SAPS   O12 8161   2.015   0.145  11.090 -0.4711 -0.1073  0.0902
   86SAPS   O11 8162   1.892   0.197  10.870 -0.2377 -0.1713 -0.4467
   86SAPS    C1 8163   2.001   0.241  10.795 -0.2554  0.1478  0.0659
   86SAPS    HA 8164   1.991   0.349  10.771 -0.2444 -0.1968 -1.6052
   86SAPS    HB 8165   2.099   0.217  10.842 -0.1850 -1.1845 -0.7064
   86SAPS    C2 8166   1.994   0.169  10.659 -0.1727 -0.0827 -1.0700
   86SAPS    HS 8167   2.017   0.060  10.663  0.0849  0.0072  1.2276
   86SAPS   O21 8168   2.082   0.231  10.561 -0.2954 -0.0340  0.2986
   86SAPS   C21 8169   2.207   0.232  10.590 -0.0096  0.6602  0.1407
   86SAPS   O22 8170   2.268   0.154  10.659 -0.2441  0.4123 -0.0183
   86SAPS   C22 8171   2.270   0.354  10.529 -0.4840 -0.3416  0.1142
   86SAPS   H2R 8172   2.197   0.401  10.459 -0.9367 -0.1120  0.7312
   86SAPS   H2S 8173   2.280   0.422  10.617 -0.9437  1.2311 -1.0059
   86SAPS    C3 8174   1.851   0.182  10.597 -0.9236 -0.2107 -0.2562
   86SAPS    HX 8175   1.841   0.290  10.573  1.9548  0.1834 -0.0226
   86SAPS    HY 8176   1.775   0.146  10.669 -0.9213  0.7530  0.2566
   86SAPS   O31 8177   1.845   0.110  10.474 -0.5766  0.0109  0.3415
   86SAPS   C31 8178   1.841  -0.021  10.476  0.8218 -0.7286 -0.4368
   86SAPS   O32 8179   1.820  -0.089  10.574 -0.5157 -0.1385 -0.1385
   86SAPS   C32 8180   1.861  -0.093  10.339 -0.7233 -0.4238 -0.2006
   86SAPS   H2X 8181   1.928  -0.179  10.358 -2.5253 -1.4249  2.0924
   86SAPS   H2Y 8182   1.914  -0.017  10.278 -0.2492 -1.1213 -0.6579
   86SAPS   C23 8183   2.414   0.337  10.466 -0.4039 -1.1887 -0.1500
   86SAPS   H3R 8184   2.486   0.280  10.528  1.2958  2.1102  1.1697
   86SAPS   H3S 8185   2.460   0.437  10.452  0.1331 -1.4205 -0.0495
   86SAPS   C24 8186   2.404   0.274  10.334  0.4478  0.3428  0.4049
   86SAPS   H4R 8187   2.367   0.170  10.347 -1.6505  0.7276 -1.8107
   86SAPS   H4S 8188   2.502   0.273  10.282  0.4929 -0.3573  0.4988
   86SAPS   C25 8189   2.310   0.343  10.239 -1.0423  0.1953 -0.0900
   86SAPS   H5R 8190   2.328   0.451  10.254  2.4442  0.0091 -1.8685
   86SAPS   C26 8191   2.225   0.291  10.151 -0.5055  0.8358 -0.7360
   86SAPS   H6R 8192   2.155   0.355  10.095 -2.6413 -0.7120  0.0001
   86SAPS   C27 8193   2.209   0.138  10.135 -0.4874  0.3693  1.0044
   86SAPS   H7R 8194   2.123   0.099  10.077  1.6711 -1.0254 -1.4656
   86SAPS   H7S 8195   2.195   0.096  10.237  2.3357  1.7880  2.0664
   86SAPS   C28 8196   2.334   0.070  10.094  0.1849  0.1583  0.8426
   86SAPS   H8R 8197   2.384   0.025  10.181 -0.7929  1.1983  1.9748
   86SAPS   C29 8198   2.397   0.068   9.977 -0.3499 -0.7026  0.3737
   86SAPS   H9R 8199   2.486   0.003   9.970 -0.2995 -0.9994  2.8889
   86SAPS  C210 8200   2.355   0.133   9.851  0.1699 -0.2349 -0.1928
   86SAPS  H10R 8201   2.259   0.185   9.872 -0.0982 -0.8322  0.0714
   86SAPS  H10S 8202   2.308   0.065   9.777  0.9627 -0.4289 -0.5285
   86SAPS  C211 8203   2.456   0.230   9.801  0.1625 -0.1537  0.1395
   86SAPS  H11R 8204   2.518   0.279   9.877 -2.6247  2.3878  0.9683
   86SAPS  C212 8205   2.469   0.267   9.673 -0.0191 -0.4837 -0.3616
   86SAPS  H12R 8206   2.545   0.344   9.653 -1.2122  0.7235 -0.3257
   86SAPS  C213 8207   2.395   0.216   9.554  0.2684 -0.5846 -0.4746
   86SAPS  H13R 8208   2.331   0.129   9.582 -1.7787  1.7064  2.6677
   86SAPS  H13S 8209   2.476   0.193   9.482 -0.2195 -1.0053 -0.9017
   86SAPS  C214 8210   2.314   0.323   9.489  0.8728 -0.1385 -0.2399
   86SAPS  H14R 8211   2.332   0.424   9.528  0.5216 -0.2810  0.3140
   86SAPS  C215 8212   2.229   0.308   9.378 -0.7903  0.2295  0.6435
   86SAPS  H15R 8213   2.162   0.391   9.347 -1.5561 -2.2737 -6.0630
   86SAPS  C216 8214   2.193   0.178   9.303 -0.0654 -0.3077 -0.3953
   86SAPS  H16R 8215   2.084   0.165   9.318 -0.6301  1.8535 -2.1570
   86SAPS  H16S 8216   2.250   0.093   9.346  1.7410  1.0191 -0.0105
   86SAPS  C217 8217   2.222   0.193   9.155 -0.2804 -0.1746  0.4760
   86SAPS  H17R 8218   2.170   0.288   9.130  0.1378  0.0788  0.5654
   86SAPS  H17S 8219   2.178   0.111   9.094  0.2365 -0.3088  0.2722
   86SAPS  C218 8220   2.375   0.193   9.118 -0.6134  0.3687  0.5979
   86SAPS  H18R 8221   2.417   0.103   9.167 -0.8989 -0.2149 -0.2180
   86SAPS  H18S 8222   2.429   0.281   9.159  0.7514  0.4791 -1.3310
   86SAPS  C219 8223   2.403   0.189   8.973  0.6297  0.2193 -0.3294
   86SAPS  H19R 8224   2.365   0.288   8.938 -0.1640 -0.4608 -1.4666
   86SAPS  H19S 8225   2.337   0.115   8.923 -0.3323 -0.7665  2.2484
   86SAPS  C220 8226   2.549   0.157   8.940 -1.0289  0.4181 -0.6163
   86SAPS  H20R 8227   2.559   0.154   8.829  0.7622  0.2251 -0.4668
   86SAPS  H20S 8228   2.572   0.064   8.995  0.0798  1.1122  0.1442
   86SAPS  H20T 8229   2.613   0.234   8.988 -1.2043  0.4158 -0.3787
   86SAPS   C33 8230   1.735  -0.143  10.273  0.3536 -0.0828  0.3852
   86SAPS   H3X 8231   1.689  -0.226  10.332  0.6729 -0.4589  0.1100
   86SAPS   H3Y 8232   1.755  -0.195  10.177 -2.5564  0.4957 -0.6389
   86SAPS   C34 8233   1.618  -0.044  10.249 -0.1246 -0.1762 -0.0798
   86SAPS   H4X 8234   1.669   0.049  10.218 -0.8500  0.2335 -0.0481
   86SAPS   H4Y 8235   1.557  -0.027  10.341 -0.3419 -1.1360 -0.0276
   86SAPS   C35 8236   1.511  -0.100  10.144 -0.4716 -0.3613 -0.5865
   86SAPS   H5X 8237   1.420  -0.040  10.162  0.1307  1.1941 -2.3667
   86SAPS   H5Y 8238   1.496  -0.206  10.173 -2.4331  0.5841  2.2629
   86SAPS   C36 8239   1.560  -0.084  10.001  0.3215  0.0172  0.6337
   86SAPS   H6X 8240   1.651  -0.146   9.983  0.8563  1.2150 -1.0494
   86SAPS   H6Y 8241   1.597   0.021   9.992 -1.4153  0.6731  0.8390
   86SAPS   C37 8242   1.453  -0.134   9.899 -1.3682  0.2059  0.8698
   86SAPS   H7X 8243   1.351  -0.149   9.940 -0.5401 -2.6754  2.1130
   86SAPS   H7Y 8244   1.481  -0.236   9.866  0.6608  0.9085  0.2398
   86SAPS   C38 8245   1.456  -0.049   9.766  0.4357 -0.0040  0.2008
   86SAPS   H8X 8246   1.550  -0.004   9.730 -0.4745  1.1421 -0.8171
   86SAPS   H8Y 8247   1.384   0.033   9.788 -0.7898 -0.9419 -0.2250
   86SAPS   C39 8248   1.411  -0.146   9.655 -0.2812  0.6385  0.6578
   86SAPS   H9X 8249   1.308  -0.179   9.680  0.3381 -3.8713 -1.7169
   86SAPS   H9Y 8250   1.483  -0.231   9.662  0.7280  1.1886 -1.8978
   86SAPS  C310 8251   1.430  -0.097   9.518 -0.0901 -0.0187 -0.5881
   86SAPS  H10X 8252   1.523  -0.141   9.475 -1.1590 -2.1206 -0.8734
   86SAPS  H10Y 8253   1.439   0.014   9.518 -0.6838  0.0327 -0.4322
   86SAPS  C311 8254   1.323  -0.149   9.424  0.6749  0.7509 -0.2984
   86SAPS  H11X 8255   1.223  -0.163   9.469  1.6552  0.8240  2.0714
   86SAPS  H11Y 8256   1.361  -0.243   9.377  1.5872  1.4646 -1.0363
   86SAPS  C312 8257   1.317  -0.068   9.292 -0.0270  0.6985  0.1469
   86SAPS  H12X 8258   1.305   0.040   9.316  2.2813  1.6861 -2.4967
   86SAPS  H12Y 8259   1.225  -0.108   9.244 -1.3531  0.3241  2.7848
   86SAPS  C313 8260   1.442  -0.089   9.199 -0.2190  0.1577 -0.2984
   86SAPS  H13X 8261   1.457  -0.197   9.177 -1.5363  0.0950 -1.0160
   86SAPS  H13Y 8262   1.530  -0.055   9.257 -0.6162  0.7039 -0.0091
   86SAPS  C314 8263   1.430  -0.015   9.075 -0.1935 -1.0822  0.4029
   86SAPS  H14X 8264   1.443   0.094   9.093  2.2699 -1.3826  0.8768
   86SAPS  H14Y 8265   1.330  -0.021   9.028  0.9647  0.6026 -2.6111
   86SAPS  C315 8266   1.547  -0.055   8.980  0.4532  0.8450 -0.0650
   86SAPS  H15X 8267   1.503  -0.069   8.879 -0.7429  1.7729  0.3050
   86SAPS  H15Y 8268   1.601  -0.146   9.016 -1.6200 -0.9571 -1.2619
   86SAPS  C316 8269   1.653   0.052   8.971 -0.3792 -0.5816  0.2713
   86SAPS  H16X 8270   1.697   0.080   9.070  3.6835 -2.0508 -0.8979
   86SAPS  H16Y 8271   1.609   0.144   8.928  0.2055 -0.8180 -0.8872
   86SAPS  C317 8272   1.769   0.009   8.883  0.5360  0.4789  0.4104
   86SAPS  H17X 8273   1.807   0.100   8.832  0.8542  2.5152  3.9270
   86SAPS  H17Y 8274   1.730  -0.068   8.813  2.0622  1.0081 -1.0884
   86SAPS  C318 8275   1.887  -0.067   8.951  1.1909 -0.4750 -0.6398
   86SAPS  H18X 8276   1.862  -0.151   9.019 -1.7242  2.0681  1.7084
   86SAPS  H18Y 8277   1.942  -0.003   9.024 -0.5687 -0.2010  0.5135
   86SAPS  H18Z 8278   1.955  -0.108   8.873  1.4453 -0.3695 -0.4784
   87SAPS     N 8279   2.718   0.021  10.990 -0.2525 -0.0453  0.1660
   87SAPS   HN1 8280   2.803  -0.036  10.973  1.9412  3.1619 -0.6105
   87SAPS   HN2 8281   2.714   0.069  11.083  0.2040 -0.6560  0.5004
   87SAPS   HN3 8282   2.633  -0.036  10.972  1.0285 -2.4627  1.4223
   87SAPS   C12 8283   2.732   0.117  10.883 -0.0045 -0.3938  0.4744
   87SAPS  H12A 8284   2.829   0.165  10.892  0.4740 -1.1891 -0.3009
   87SAPS   C13 8285   2.761   0.063  10.740 -0.6060 -0.0174 -0.1551
   87SAPS  O13A 8286   2.783  -0.059  10.731 -0.4941 -0.0906  0.1338
   87SAPS  O13B 8287   2.774   0.141  10.641 -0.7574  0.1598 -0.0054
   87SAPS   C11 8288   2.605   0.218  10.880 -0.4313 -0.1313  0.3465
   87SAPS  H11A 8289   2.509   0.162  10.874  0.6367 -2.0026 -0.1949
   87SAPS  H11B 8290   2.616   0.275  10.786  0.6026  0.6592  0.9219
   87SAPS     P 8291   2.469   0.374  11.037  0.0737  0.0062 -0.0029
   87SAPS   O13 8292   2.368   0.271  11.044  0.0193  0.1011  0.1410
   87SAPS   O14 8293   2.490   0.453  11.160  0.0022  0.3312 -0.4656
   87SAPS   O12 8294   2.603   0.296  11.002 -0.4216 -0.4987  0.5093
   87SAPS   O11 8295   2.443   0.468  10.919 -0.0668 -0.2078  0.5721
   87SAPS    C1 8296   2.540   0.534  10.842 -0.2382 -0.7422  0.2058
   87SAPS    HA 8297   2.638   0.535  10.895 -0.4852  0.3596  0.6571
   87SAPS    HB 8298   2.551   0.480  10.745  1.6437 -0.6249  0.3090
   87SAPS    C2 8299   2.502   0.685  10.802 -0.4650 -0.1357 -0.1998
   87SAPS    HS 8300   2.466   0.730  10.897 -0.9038  0.8275 -0.8097
   87SAPS   O21 8301   2.403   0.684  10.697  0.1399 -0.2883 -0.1003
   87SAPS   C21 8302   2.362   0.800  10.646 -0.3557  0.3959 -0.6077
   87SAPS   O22 8303   2.403   0.911  10.682 -0.7473 -0.1352  1.0928
   87SAPS   C22 8304   2.243   0.780  10.560  0.0427 -0.2747  0.0984
   87SAPS   H2R 8305   2.172   0.704  10.600 -1.4090 -0.2066 -2.1494
   87SAPS   H2S 8306   2.203   0.882  10.575 -0.2621  0.0368 -2.4130
   87SAPS    C3 8307   2.638   0.754  10.759  0.1445  0.9982 -0.5188
   87SAPS    HX 8308   2.709   0.739  10.844  0.1651  1.8509 -0.3747
   87SAPS    HY 8309   2.628   0.863  10.742 -1.2604  1.1135  0.8083
   87SAPS   O31 8310   2.695   0.680  10.650  0.0342  0.1753  0.1070
   87SAPS   C31 8311   2.698   0.739  10.524 -0.8758  0.6715 -0.3399
   87SAPS   O32 8312   2.674   0.853  10.498  0.2789 -0.2937 -0.0072
   87SAPS   C32 8313   2.781   0.651  10.442 -0.6133 -0.1959 -0.0251
   87SAPS   H2X 8314   2.765   0.544  10.467  2.8765 -0.7182  0.4894
   87SAPS   H2Y 8315   2.886   0.680  10.467  0.4336 -0.6305 -3.3888
   87SAPS   C23 8316   2.278   0.744  10.418  0.9768 -0.3969  0.7348
   87SAPS   H3R 8317   2.190   0.713  10.358  0.1158  1.3429  1.0481
   87SAPS   H3S 8318   2.350   0.660  10.421  0.2630 -1.1513 -1.5779
   87SAPS   C24 8319   2.350   0.852  10.336  0.5522  0.1548 -0.7018
   87SAPS   H4R 8320   2.381   0.794  10.247  0.2954  1.9009 -1.9925
   87SAPS   H4S 8321   2.433   0.902  10.390  3.0488 -2.9524 -1.4003
   87SAPS   C25 8322   2.259   0.966  10.310 -0.0456 -0.2920 -0.1729
   87SAPS   H5R 8323   2.227   1.033  10.391  1.2905 -0.8182  0.8273
   87SAPS   C26 8324   2.220   1.005  10.188  0.2786  0.1171  0.0243
   87SAPS   H6R 8325   2.157   1.094  10.177 -0.5989 -0.4468  0.3795
   87SAPS   C27 8326   2.260   0.936  10.056 -0.2541  0.0319  0.5204
   87SAPS   H7R 8327   2.263   0.825  10.061 -0.7429  0.0611  2.0488
   87SAPS   H7S 8328   2.364   0.974  10.043 -0.8564  1.7563  0.4419
   87SAPS   C28 8329   2.187   0.977   9.931  0.1123 -0.3243  0.2748
   87SAPS   H8R 8330   2.131   1.071   9.929 -0.9673 -0.9201 -2.8520
   87SAPS   C29 8331   2.177   0.904   9.819  0.1302 -0.0630  0.2348
   87SAPS   H9R 8332   2.119   0.949   9.736  0.9459  0.8212  0.1230
   87SAPS  C210 8333   2.250   0.776   9.782 -0.0593 -0.1829  0.4449
   87SAPS  H10R 8334   2.182   0.697   9.744  1.9082 -0.5089 -2.6682
   87SAPS  H10S 8335   2.295   0.732   9.873  2.3743 -0.1654 -0.6866
   87SAPS  C211 8336   2.364   0.803   9.689 -0.3808 -0.1273  0.3139
   87SAPS  H11R 8337   2.459   0.836   9.734 -0.4495 -0.8343  0.9884
   87SAPS  C212 8338   2.367   0.793   9.551 -0.1083  0.1305 -0.8901
   87SAPS  H12R 8339   2.457   0.826   9.498  0.2181  0.6774 -0.0091
   87SAPS  C213 8340   2.243   0.755   9.474 -0.3792  0.0719  0.1969
   87SAPS  H13R 8341   2.149   0.767   9.532 -0.9059  2.1732 -0.9864
   87SAPS  H13S 8342   2.252   0.650   9.438  4.1796  1.0126 -2.2189
   87SAPS  C214 8343   2.219   0.836   9.351 -0.2574  0.3310  0.2327
   87SAPS  H14R 8344   2.153   0.922   9.368  0.1556  0.7980 -0.4526
   87SAPS  C215 8345   2.261   0.801   9.228  0.6385  0.2669  0.2180
   87SAPS  H15R 8346   2.218   0.865   9.149  0.8835  0.4729  0.2516
   87SAPS  C216 8347   2.340   0.680   9.192  0.2170  0.5855  0.5000
   87SAPS  H16R 8348   2.352   0.600   9.268 -2.0644  1.2428  1.6174
   87SAPS  H16S 8349   2.444   0.712   9.171  1.1235 -1.2575  1.8804
   87SAPS  C217 8350   2.293   0.600   9.066 -0.5218 -0.5711 -0.6127
   87SAPS  H17R 8351   2.199   0.544   9.087  0.1072 -1.6093 -0.5433
   87SAPS  H17S 8352   2.373   0.524   9.056 -0.2381 -0.9357  2.9553
   87SAPS  C218 8353   2.265   0.685   8.948 -1.0382 -0.2252  0.1642
   87SAPS  H18R 8354   2.173   0.746   8.963  0.7817  2.0448  3.5858
   87SAPS  H18S 8355   2.253   0.612   8.865 -1.6978  1.2758 -1.1136
   87SAPS  C219 8356   2.384   0.781   8.905  0.1862  0.6450 -0.4876
   87SAPS  H19R 8357   2.472   0.713   8.901  0.2485  0.7773 -2.4583
   87SAPS  H19S 8358   2.389   0.848   8.993  0.9737 -2.0646  1.6711
   87SAPS  C220 8359   2.364   0.855   8.774 -0.3620  0.2666  0.1367
   87SAPS  H20R 8360   2.463   0.898   8.748 -0.8013 -0.2169 -2.6480
   87SAPS  H20S 8361   2.288   0.932   8.752 -0.1216  0.5759  0.3792
   87SAPS  H20T 8362   2.360   0.781   8.692  1.0657 -0.7100  0.8915
   87SAPS   C33 8363   2.754   0.665  10.289 -0.0986 -0.2498 -0.1574
   87SAPS   H3X 8364   2.842   0.630  10.231  0.0740 -0.5680  0.2908
   87SAPS   H3Y 8365   2.756   0.765  10.241  0.4587 -0.7666 -1.2326
   87SAPS   C34 8366   2.630   0.591  10.244  0.6618  0.0915 -0.5201
   87SAPS   H4X 8367   2.552   0.599  10.323  0.5947 -0.4928 -0.5245
   87SAPS   H4Y 8368   2.645   0.481  10.237  0.8522 -0.0997  1.8545
   87SAPS   C35 8369   2.576   0.631  10.107 -0.2911  0.2915  0.1573
   87SAPS   H5X 8370   2.575   0.741  10.094  1.3196  0.4857  1.3676
   87SAPS   H5Y 8371   2.480   0.589  10.070  1.4788 -2.3907 -1.7835
   87SAPS   C36 8372   2.681   0.580   9.994  0.1345 -0.7581  0.2191
   87SAPS   H6X 8373   2.666   0.470  10.007 -1.7941 -0.3661  1.8800
   87SAPS   H6Y 8374   2.785   0.615  10.009 -0.4297  0.7661  0.7163
   87SAPS   C37 8375   2.633   0.620   9.856  0.3536 -0.1033  0.1084
   87SAPS   H7X 8376   2.623   0.730   9.861  0.3422 -0.0863 -0.2914
   87SAPS   H7Y 8377   2.530   0.583   9.837  1.1476 -2.5627  0.2323
   87SAPS   C38 8378   2.731   0.572   9.747 -0.0724  0.0324 -0.4154
   87SAPS   H8X 8379   2.730   0.461   9.744 -1.3622  0.0145  0.3135
   87SAPS   H8Y 8380   2.835   0.603   9.770  0.6375 -1.3646 -1.5332
   87SAPS   C39 8381   2.703   0.620   9.607 -0.2899  0.8643 -0.0772
   87SAPS   H9X 8382   2.730   0.728   9.599  0.7916  0.8870  2.7023
   87SAPS   H9Y 8383   2.598   0.594   9.581  0.1597 -2.2866  0.8128
   87SAPS  C310 8384   2.779   0.543   9.502 -0.3537 -0.2170 -0.7843
   87SAPS  H10X 8385   2.769   0.434   9.520  2.6386  0.0472  4.2606
   87SAPS  H10Y 8386   2.889   0.556   9.505 -0.0612 -2.3409 -0.6338
   87SAPS  C311 8387   2.723   0.572   9.365 -0.0442  0.2906 -0.0975
   87SAPS  H11X 8388   2.753   0.677   9.341 -0.5782  0.1389 -1.5168
   87SAPS  H11Y 8389   2.614   0.554   9.362  0.1717 -1.5499  1.1577
   87SAPS  C312 8390   2.787   0.491   9.250  0.1588  0.0549  0.0333
   87SAPS  H12X 8391   2.786   0.384   9.280 -0.7728  0.7394  2.7514
   87SAPS  H12Y 8392   2.897   0.504   9.240  0.2636 -0.2222  0.7672
   87SAPS  C313 8393   2.723   0.519   9.110 -0.2221  0.2861 -0.1908
   87SAPS  H13X 8394   2.718   0.629   9.095 -1.0708  0.6367  2.2075
   87SAPS  H13Y 8395   2.627   0.465   9.106  1.1439 -2.2088 -1.5361
   87SAPS  C314 8396   2.807   0.451   8.999 -0.1083 -0.3462  0.4529
   87SAPS  H14X 8397   2.751   0.440   8.904  2.1286 -0.5597 -0.9141
   87SAPS  H14Y 8398   2.830   0.348   9.033 -0.0955 -0.5949 -0.3086
   87SAPS  C315 8399   2.937   0.530   8.960  0.3581  0.5266  0.5091
   87SAPS  H15X 8400   2.998   0.547   9.051  1.7973 -1.9791  0.1260
   87SAPS  H15Y 8401   2.922   0.634   8.925 -2.3505  0.6626  1.8139
   87SAPS  C316 8402   3.022   0.454   8.859  0.6512 -0.5301 -0.3114
   87SAPS  H16X 8403   3.080   0.373   8.908  0.2104 -0.0929  0.9663
   87SAPS  H16Y 8404   3.100   0.531   8.842  0.3743 -0.5087 -1.6042
   87SAPS  C317 8405   2.955   0.421   8.726 -0.3811  1.0754 -0.0503
   87SAPS  H17X 8406   2.879   0.342   8.746  1.1755 -0.0731  1.6740
   87SAPS  H17Y 8407   3.036   0.374   8.666  0.0123  0.5134  0.8816
   87SAPS  C318 8408   2.892   0.540   8.656 -0.3601  0.9170  0.0771
   87SAPS  H18X 8409   2.851   0.518   8.555 -1.1254  0.6768  0.4282
   87SAPS  H18Y 8410   2.974   0.613   8.649 -0.2646  0.8516  0.4636
   87SAPS  H18Z 8411   2.802   0.584   8.706 -1.5239 -0.8038 -0.3782
   88SAPS     N 8412   3.585   5.643  10.861 -0.7609  0.1217 -0.9523
   88SAPS   HN1 8413   3.622   5.562  10.807  0.6149 -1.1383  1.6881
   88SAPS   HN2 8414   3.567   5.622  10.962 -0.7677  2.5828 -0.3754
   88SAPS   HN3 8415   3.499   5.682  10.816  0.3900  2.1266 -1.5377
   88SAPS   C12 8416   3.690   5.743  10.855 -0.1198  0.0696 -0.5861
   88SAPS  H12A 8417   3.713   5.751  10.750 -0.0187  2.7243 -0.4387
   88SAPS   C13 8418   3.656   5.888  10.902  0.2005  0.3126  0.1057
   88SAPS  O13A 8419   3.533   5.911  10.919  0.0936 -0.4264 -0.0170
   88SAPS  O13B 8420   3.740   5.982  10.883 -0.7897  0.4995 -0.6934
   88SAPS   C11 8421   3.807   5.698  10.947 -0.5557 -0.8839 -0.2282
   88SAPS  H11A 8422   3.766   5.688  11.050 -1.0196 -0.0440 -0.3295
   88SAPS  H11B 8423   3.885   5.775  10.960  0.9180 -2.3200 -0.2386
   88SAPS     P 8424   3.969   5.493  10.993 -0.1245 -0.0125  0.0436
   88SAPS   O13 8425   4.078   5.587  11.034  0.4768 -0.3751  0.6316
   88SAPS   O14 8426   3.892   5.424  11.099  0.2421 -0.2574 -0.2205
   88SAPS   O12 8427   3.865   5.574  10.905 -0.4118 -0.1676 -0.1412
   88SAPS   O11 8428   4.020   5.379  10.886  0.5220  0.2908 -0.1862
   88SAPS    C1 8429   4.129   5.414  10.805  0.3401 -0.4843  1.1936
   88SAPS    HA 8430   4.221   5.446  10.857  0.1714  2.1551  0.0547
   88SAPS    HB 8431   4.155   5.320  10.751 -3.1222 -1.6577  1.3078
   88SAPS    C2 8432   4.101   5.529  10.699  0.3922 -0.0283  0.3289
   88SAPS    HS 8433   4.080   5.625  10.751  0.4856 -0.1442  0.5836
   88SAPS   O21 8434   3.987   5.493  10.615  0.0562 -0.5846  0.2146
   88SAPS   C21 8435   3.926   5.592  10.563 -0.1918 -0.9822 -0.5411
   88SAPS   O22 8436   3.952   5.713  10.591 -0.0545  0.5797 -0.5825
   88SAPS   C22 8437   3.815   5.546  10.471  0.5782  0.1551 -0.2572
   88SAPS   H2R 8438   3.810   5.435  10.479  1.7322  0.1694  5.7879
   88SAPS   H2S 8439   3.732   5.606  10.513  1.3618  3.6022 -3.1689
   88SAPS    C3 8440   4.227   5.552  10.620  0.1200 -0.4164 -0.5864
   88SAPS    HX 8441   4.311   5.565  10.691  0.4874 -1.6756 -0.7727
   88SAPS    HY 8442   4.221   5.645  10.559 -0.2486  0.1350  0.2631
   88SAPS   O31 8443   4.251   5.433  10.539  0.5997  0.4031 -0.0558
   88SAPS   C31 8444   4.368   5.429  10.488  0.1691 -0.4036  0.2552
   88SAPS   O32 8445   4.458   5.514  10.500  0.0964  0.2897 -0.8060
   88SAPS   C32 8446   4.391   5.297  10.405 -0.1817 -1.1048 -1.1845
   88SAPS   H2X 8447   4.343   5.320  10.307 -0.3897 -0.2938 -0.9013
   88SAPS   H2Y 8448   4.341   5.210  10.454 -0.9841  0.1949  0.3762
   88SAPS   C23 8449   3.841   5.604  10.328 -0.0616 -0.3624 -0.2831
   88SAPS   H3R 8450   3.831   5.714  10.325  0.4066 -0.3382 -2.3774
   88SAPS   H3S 8451   3.765   5.572  10.253 -0.4752 -1.5156  0.5855
   88SAPS   C24 8452   3.981   5.575  10.276 -0.3881  0.0163  0.0675
   88SAPS   H4R 8453   4.054   5.612  10.351 -2.1028  0.6026  1.5152
   88SAPS   H4S 8454   3.997   5.630  10.180  1.4595  1.1664  0.9767
   88SAPS   C25 8455   4.020   5.433  10.259  0.5548 -0.0421  0.2969
   88SAPS   H5R 8456   3.996   5.369  10.345 -0.4157 -0.7686 -0.4958
   88SAPS   C26 8457   4.051   5.373  10.143  0.4067 -0.3726 -0.7541
   88SAPS   H6R 8458   4.062   5.264  10.149  0.2345 -0.3197  2.8902
   88SAPS   C27 8459   4.069   5.436  10.004 -0.7229 -0.0829 -0.2054
   88SAPS   H7R 8460   4.155   5.383   9.958  1.3004  0.3086  2.8453
   88SAPS   H7S 8461   4.090   5.544  10.019 -3.6119  0.6473 -0.7612
   88SAPS   C28 8462   3.953   5.416   9.906 -0.5537  0.2549 -0.0115
   88SAPS   H8R 8463   3.868   5.485   9.919  0.6549  1.4979  1.7475
   88SAPS   C29 8464   3.943   5.322   9.808 -0.6119  0.4881 -0.0639
   88SAPS   H9R 8465   3.855   5.337   9.744 -1.3697  0.4129  0.9248
   88SAPS  C210 8466   4.049   5.227   9.761 -0.3004  0.2788 -0.0338
   88SAPS  H10R 8467   4.006   5.147   9.697 -0.3351 -0.8751  1.3802
   88SAPS  H10S 8468   4.092   5.180   9.853 -0.2657  0.3227 -0.0275
   88SAPS  C211 8469   4.156   5.292   9.677  0.4067  0.7010  0.1187
   88SAPS  H11R 8470   4.221   5.358   9.737 -0.1911  0.2673  1.2875
   88SAPS  C212 8471   4.172   5.289   9.538  0.8034  0.5772  0.8956
   88SAPS  H12R 8472   4.252   5.350   9.494  0.7270  0.4880  0.6304
   88SAPS  C213 8473   4.084   5.222   9.437 -0.8130  0.6179 -0.9504
   88SAPS  H13R 8474   3.999   5.163   9.478 -0.1974  0.0757 -0.4250
   88SAPS  H13S 8475   4.145   5.140   9.394 -2.5244 -2.1507  1.5029
   88SAPS  C214 8476   4.034   5.324   9.333 -0.3795  0.7471 -0.3440
   88SAPS  H14R 8477   4.044   5.432   9.352 -1.2047  0.4465  2.1645
   88SAPS  C215 8478   3.981   5.297   9.216 -0.3527 -0.3216  0.4968
   88SAPS  H15R 8479   3.947   5.385   9.160 -1.8510 -1.0718  0.1766
   88SAPS  C216 8480   3.972   5.157   9.156  0.2726  0.1769  0.5092
   88SAPS  H16R 8481   3.870   5.115   9.159  0.5467 -0.4631  1.5899
   88SAPS  H16S 8482   4.020   5.092   9.232  1.2255 -0.7486 -0.8431
   88SAPS  C217 8483   4.032   5.144   9.011 -0.1241 -0.6236  0.6076
   88SAPS  H17R 8484   4.005   5.039   8.987 -0.0184 -0.6239  0.4922
   88SAPS  H17S 8485   4.141   5.158   9.027 -0.3193  1.8754  0.1532
   88SAPS  C218 8486   3.968   5.232   8.909  0.2197 -0.0403 -0.4673
   88SAPS  H18R 8487   4.026   5.327   8.902 -1.4348  1.0291 -0.2009
   88SAPS  H18S 8488   3.866   5.258   8.946  0.6606  2.8428 -0.9901
   88SAPS  C219 8489   3.964   5.177   8.768 -0.5455 -0.7420  0.1456
   88SAPS  H19R 8490   3.898   5.087   8.768 -0.2799 -0.9481  1.1602
   88SAPS  H19S 8491   4.063   5.154   8.724 -1.4455 -0.7874 -1.9925
   88SAPS  C220 8492   3.885   5.271   8.672  0.2750  0.6110 -0.3967
   88SAPS  H20R 8493   3.788   5.291   8.722  1.4716  0.6184  2.0798
   88SAPS  H20S 8494   3.872   5.226   8.572 -0.3133  1.1370 -0.5590
   88SAPS  H20T 8495   3.938   5.368   8.661  2.2894 -0.3846 -0.0618
   88SAPS   C33 8496   4.545   5.281  10.373  0.5204 -0.2458 -0.4830
   88SAPS   H3X 8497   4.588   5.251  10.472 -0.6895  0.2679  0.2146
   88SAPS   H3Y 8498   4.591   5.380  10.351 -0.9875  0.8252  0.9514
   88SAPS   C34 8499   4.584   5.193  10.255 -0.1458  0.7867  0.0874
   88SAPS   H4X 8500   4.515   5.106  10.254 -0.1920  0.8219 -0.8084
   88SAPS   H4Y 8501   4.690   5.158  10.256  0.6624  3.0453  2.1989
   88SAPS   C35 8502   4.561   5.249  10.117  0.2315 -0.0727 -0.6415
   88SAPS   H5X 8503   4.605   5.350  10.102 -1.1384  0.3822 -1.8525
   88SAPS   H5Y 8504   4.451   5.244  10.109  0.2462 -0.2556 -0.7274
   88SAPS   C36 8505   4.617   5.155  10.011  0.3449 -0.3195 -0.0895
   88SAPS   H6X 8506   4.585   5.050  10.026 -1.1315  0.2297  0.7861
   88SAPS   H6Y 8507   4.727   5.165   9.994  0.5635 -0.2606  1.2766
   88SAPS   C37 8508   4.574   5.194   9.871  0.3639  0.5670  0.1367
   88SAPS   H7X 8509   4.604   5.297   9.843  0.5349  0.6018  0.4543
   88SAPS   H7Y 8510   4.464   5.191   9.855  0.3767 -0.5609  0.1754
   88SAPS   C38 8511   4.641   5.108   9.756  0.2938  0.2218 -0.5421
   88SAPS   H8X 8512   4.629   4.999   9.776 -1.0038  0.3411 -0.5887
   88SAPS   H8Y 8513   4.747   5.141   9.747  0.6138 -0.5141  0.3031
   88SAPS   C39 8514   4.566   5.134   9.622  0.2103  0.2682  0.4611
   88SAPS   H9X 8515   4.588   5.237   9.587 -1.1755 -0.2117 -2.0148
   88SAPS   H9Y 8516   4.458   5.113   9.636 -0.0033  0.3316 -1.0047
   88SAPS  C310 8517   4.626   5.046   9.511 -0.0927  0.2464 -0.2228
   88SAPS  H10X 8518   4.643   4.940   9.540 -2.3605 -0.2021 -0.3146
   88SAPS  H10Y 8519   4.720   5.084   9.467 -0.9482  1.3986 -1.1011
   88SAPS  C311 8520   4.531   5.050   9.389 -0.3271 -0.5518  0.4329
   88SAPS  H11X 8521   4.534   5.152   9.343  0.5223 -0.4570  0.6919
   88SAPS  H11Y 8522   4.428   5.020   9.416  0.0852 -3.5894 -0.9500
   88SAPS  C312 8523   4.573   4.955   9.267 -0.3328 -0.7359  0.6321
   88SAPS  H12X 8524   4.545   4.852   9.298  0.2335 -1.2771 -0.5806
   88SAPS  H12Y 8525   4.684   4.953   9.253 -0.2174 -2.2571  1.5019
   88SAPS  C313 8526   4.506   4.995   9.141 -0.0470 -0.1725 -0.0315
   88SAPS  H13X 8527   4.515   5.103   9.115 -1.5114 -0.3425 -1.3981
   88SAPS  H13Y 8528   4.397   4.985   9.161  0.1137 -0.8166  0.5716
   88SAPS  C314 8529   4.554   4.910   9.023  0.2665 -0.0208 -0.6796
   88SAPS  H14X 8530   4.662   4.927   9.005  0.6466 -1.7800 -0.3305
   88SAPS  H14Y 8531   4.500   4.958   8.939 -0.6158  1.7230  0.8108
   88SAPS  C315 8532   4.507   4.770   9.030 -0.0872  0.8611  0.0545
   88SAPS  H15X 8533   4.397   4.762   9.045  0.0362 -1.7236  0.0961
   88SAPS  H15Y 8534   4.554   4.709   9.111  1.2767 -0.8292 -1.9051
   88SAPS  C316 8535   4.541   4.702   8.895 -1.1586  0.4735  0.3826
   88SAPS  H16X 8536   4.651   4.706   8.882 -0.9467 -0.2492  1.7773
   88SAPS  H16Y 8537   4.502   4.745   8.801 -0.5551 -2.4817 -1.3751
   88SAPS  C317 8538   4.512   4.556   8.886 -0.4164 -0.5951 -0.6713
   88SAPS  H17X 8539   4.405   4.545   8.916 -0.2561  0.5562  0.4073
   88SAPS  H17Y 8540   4.578   4.502   8.957  0.1210  1.4585  0.4524
   88SAPS  C318 8541   4.530   4.498   8.743  0.4545 -0.0138 -0.7201
   88SAPS  H18X 8542   4.636   4.479   8.719  0.5325 -2.0282  0.8832
   88SAPS  H18Y 8543   4.496   4.561   8.658 -0.4033 -0.0436 -0.4136
   88SAPS  H18Z 8544   4.482   4.397   8.744  2.7782 -1.1821 -0.3803
   89SAPS     N 8545   5.177   0.227  10.884 -0.1234  0.1735  0.6269
   89SAPS   HN1 8546   5.158   0.290  10.804 -0.2612  2.0225  2.0339
   89SAPS   HN2 8547   5.090   0.226  10.941  1.3531  0.6310  3.0437
   89SAPS   HN3 8548   5.252   0.263  10.947 -1.2658 -2.1046  3.5591
   89SAPS   C12 8549   5.205   0.082  10.841  0.0771 -0.3033  0.4335
   89SAPS  H12A 8550   5.280   0.079  10.763  0.4837  0.5579  0.7634
   89SAPS   C13 8551   5.264  -0.007  10.952 -0.1202 -0.1283 -0.2178
   89SAPS  O13A 8552   5.267   0.042  11.067 -0.2058 -0.4771  0.1214
   89SAPS  O13B 8553   5.331  -0.109  10.923  0.4660  0.1316  0.4293
   89SAPS   C11 8554   5.076   0.023  10.778 -0.1935  0.6443 -0.1896
   89SAPS  H11A 8555   5.118  -0.062  10.720  0.2284  0.3838  0.4934
   89SAPS  H11B 8556   5.037   0.089  10.698  0.1990 -0.1334 -1.0401
   89SAPS     P 8557   4.871   0.071  10.926 -0.0224  0.6276  0.0170
   89SAPS   O13 8558   4.783  -0.006  11.022  0.1885 -0.2102  0.3550
   89SAPS   O14 8559   4.936   0.189  10.983  0.4611  0.5615 -0.2407
   89SAPS   O12 8560   4.983  -0.025  10.872 -0.0584 -0.1582  0.7583
   89SAPS   O11 8561   4.784   0.112  10.797 -0.7276  0.2761 -0.5676
   89SAPS    C1 8562   4.709   0.009  10.725 -0.0237 -0.2157 -0.2455
   89SAPS    HA 8563   4.766  -0.082  10.699 -1.7613 -1.8068  1.2351
   89SAPS    HB 8564   4.621  -0.024  10.784 -0.0866 -0.6663 -0.5850
   89SAPS    C2 8565   4.661   0.072  10.591  0.1558 -0.5012 -0.3552
   89SAPS    HS 8566   4.754   0.113  10.546 -1.0407  0.8165 -1.7442
   89SAPS   O21 8567   4.573   0.180  10.624 -0.2057 -0.1648  0.1885
   89SAPS   C21 8568   4.553   0.275  10.527 -0.5112  0.0035  0.0839
   89SAPS   O22 8569   4.630   0.282  10.430 -0.1917  0.1230 -0.1491
   89SAPS   C22 8570   4.423   0.359  10.544 -0.2651 -0.0385  0.1912
   89SAPS   H2R 8571   4.340   0.285  10.550 -0.2096 -0.0336  1.3944
   89SAPS   H2S 8572   4.435   0.403  10.645  1.6693  1.7331 -0.7448
   89SAPS    C3 8573   4.603  -0.035  10.497  0.0904  0.2874  0.3404
   89SAPS    HX 8574   4.502  -0.056  10.540  0.6704  0.7965  2.0383
   89SAPS    HY 8575   4.657  -0.130  10.514  0.8065  0.3772 -1.2466
   89SAPS   O31 8576   4.606  -0.003  10.352 -0.2670 -0.2852 -0.0351
   89SAPS   C31 8577   4.727  -0.002  10.304 -0.0841 -0.0206  0.3621
   89SAPS   O32 8578   4.832  -0.040  10.353  0.1651 -0.4274  0.4461
   89SAPS   C32 8579   4.725   0.042  10.158  0.0840 -0.4475  0.2020
   89SAPS   H2X 8580   4.812  -0.011  10.112  1.2314  2.1818 -0.8500
   89SAPS   H2Y 8581   4.746   0.150  10.149 -2.0621  0.1158  1.1709
   89SAPS   C23 8582   4.406   0.471  10.437 -0.3094  0.2359 -0.2095
   89SAPS   H3R 8583   4.501   0.528  10.440 -1.0565  1.5076  0.3133
   89SAPS   H3S 8584   4.334   0.546  10.478  0.7781  2.6985 -2.5303
   89SAPS   C24 8585   4.375   0.422  10.295  0.0044 -0.0838 -0.1480
   89SAPS   H4R 8586   4.405   0.316  10.285 -0.1947 -0.1150 -0.4335
   89SAPS   H4S 8587   4.427   0.492  10.226 -1.9008  2.5319  0.8796
   89SAPS   C25 8588   4.226   0.422  10.264  0.3914  0.8377  0.2792
   89SAPS   H5R 8589   4.155   0.389  10.342 -0.3848  1.9424  0.0738
   89SAPS   C26 8590   4.169   0.469  10.149  0.4019 -1.0990  0.1078
   89SAPS   H6R 8591   4.060   0.478  10.132  0.7224  1.1830 -1.1012
   89SAPS   C27 8592   4.251   0.528  10.034  0.3739  0.5686 -0.2957
   89SAPS   H7R 8593   4.337   0.466  10.001 -0.0419 -0.4555  0.4762
   89SAPS   H7S 8594   4.298   0.618  10.078  2.0380 -0.5087  0.2353
   89SAPS   C28 8595   4.169   0.582   9.919  0.1074 -0.0187  0.1196
   89SAPS   H8R 8596   4.065   0.610   9.940 -0.4750 -0.7569 -1.5909
   89SAPS   C29 8597   4.211   0.598   9.789 -0.6501  0.1823  0.3622
   89SAPS   H9R 8598   4.148   0.651   9.717  0.8388  1.4939 -0.0172
   89SAPS  C210 8599   4.356   0.564   9.740 -0.2268 -0.0887 -0.0340
   89SAPS  H10R 8600   4.370   0.459   9.705  2.2605 -0.3808  1.5667
   89SAPS  H10S 8601   4.423   0.576   9.828  2.0458  0.4403 -1.7485
   89SAPS  C211 8602   4.409   0.668   9.635  0.2830 -0.8063  0.2551
   89SAPS  H11R 8603   4.454   0.759   9.677  3.4588 -2.1039 -0.0415
   89SAPS  C212 8604   4.399   0.652   9.504 -0.2321 -0.7181  0.9375
   89SAPS  H12R 8605   4.419   0.741   9.442 -0.8980 -0.8563  0.5140
   89SAPS  C213 8606   4.332   0.533   9.434  0.6049  0.5316  0.3397
   89SAPS  H13R 8607   4.275   0.580   9.352 -2.0569 -0.5436  1.4666
   89SAPS  H13S 8608   4.247   0.498   9.497 -1.0407  0.2266 -1.9399
   89SAPS  C214 8609   4.412   0.419   9.383  0.4101  0.3768  0.1032
   89SAPS  H14R 8610   4.500   0.398   9.445  3.8393  2.6905 -3.5157
   89SAPS  C215 8611   4.383   0.337   9.283  0.7782 -0.1134  0.3235
   89SAPS  H15R 8612   4.446   0.249   9.264  0.4225 -0.0410 -1.4108
   89SAPS  C216 8613   4.263   0.355   9.190 -0.5588  0.0288 -0.1101
   89SAPS  H16R 8614   4.182   0.402   9.251  1.8216  0.6681  2.7888
   89SAPS  H16S 8615   4.221   0.255   9.166  0.8118 -0.3801 -0.8616
   89SAPS  C217 8616   4.281   0.445   9.071 -0.4602  0.1238  0.0604
   89SAPS  H17R 8617   4.275   0.549   9.109  2.8168 -0.2798  2.0215
   89SAPS  H17S 8618   4.201   0.425   8.995  0.5231 -1.5054 -0.6113
   89SAPS  C218 8619   4.417   0.444   8.999 -0.6818 -0.1847  0.2451
   89SAPS  H18R 8620   4.509   0.436   9.062 -0.0569  2.5728 -0.1749
   89SAPS  H18S 8621   4.426   0.541   8.945 -0.4024 -0.9061 -1.0554
   89SAPS  C219 8622   4.417   0.340   8.882  0.4227  0.3479 -0.6981
   89SAPS  H19R 8623   4.396   0.242   8.931 -2.5028  1.0749 -0.2818
   89SAPS  H19S 8624   4.519   0.345   8.840  1.1674  2.3484  1.1477
   89SAPS  C220 8625   4.306   0.359   8.774 -0.6150 -0.2329 -0.0741
   89SAPS  H20R 8626   4.329   0.305   8.679 -2.9107  0.0077 -0.8155
   89SAPS  H20S 8627   4.304   0.467   8.749  1.6836 -0.3111 -0.9164
   89SAPS  H20T 8628   4.207   0.327   8.811  0.9697 -2.3918  2.7519
   89SAPS   C33 8629   4.595   0.009  10.080 -0.0575 -0.2658  0.8851
   89SAPS   H3X 8630   4.515   0.066  10.131  0.8893  0.6976  1.3151
   89SAPS   H3Y 8631   4.559  -0.096  10.089 -2.9858  0.4809 -0.9212
   89SAPS   C34 8632   4.610   0.042   9.931 -0.3936  0.4925  0.7962
   89SAPS   H4X 8633   4.671  -0.032   9.874  1.0671  2.9680 -1.0472
   89SAPS   H4Y 8634   4.668   0.136   9.930 -0.8911  0.8304 -1.3644
   89SAPS   C35 8635   4.479   0.069   9.856  0.2479 -0.2748  0.1767
   89SAPS   H5X 8636   4.434   0.150   9.918  3.5979  1.8578  0.0434
   89SAPS   H5Y 8637   4.413  -0.019   9.844  0.6134 -0.5499  0.1611
   89SAPS   C36 8638   4.488   0.126   9.710 -0.4890  0.0857  0.8408
   89SAPS   H6X 8639   4.545   0.221   9.704  1.8868 -1.3006  0.1251
   89SAPS   H6Y 8640   4.382   0.137   9.677 -0.2200 -0.5276 -0.2469
   89SAPS   C37 8641   4.570   0.048   9.610 -0.5755  0.3481  0.3949
   89SAPS   H7X 8642   4.520  -0.051   9.608 -2.3425  1.2095 -1.3805
   89SAPS   H7Y 8643   4.678   0.041   9.638 -0.6754 -0.6568  0.5674
   89SAPS   C38 8644   4.568   0.103   9.465  0.0659  0.3573 -0.8994
   89SAPS   H8X 8645   4.590   0.211   9.474 -0.5681  0.3167  1.8389
   89SAPS   H8Y 8646   4.471   0.069   9.424 -1.6818  3.4283  0.3948
   89SAPS   C39 8647   4.673   0.039   9.371  0.4381  0.4336  0.0179
   89SAPS   H9X 8648   4.633  -0.063   9.355  1.0661 -0.3999  3.0181
   89SAPS   H9Y 8649   4.778   0.030   9.406  0.0939  2.8182  1.9911
   89SAPS  C310 8650   4.693   0.111   9.234 -0.2613  0.2225  0.3556
   89SAPS  H10X 8651   4.725   0.217   9.244 -1.3673  0.7910 -1.5594
   89SAPS  H10Y 8652   4.601   0.108   9.171  1.0972 -0.9242 -1.6843
   89SAPS  C311 8653   4.783   0.024   9.147  0.0944  0.5405 -0.0269
   89SAPS  H11X 8654   4.749  -0.081   9.142  1.1069  0.2502 -1.3657
   89SAPS  H11Y 8655   4.876   0.016   9.206  2.1837 -0.0749 -3.1392
   89SAPS  C312 8656   4.806   0.091   9.006 -0.5320 -0.2084  0.4919
   89SAPS  H12X 8657   4.909   0.061   8.975 -0.5885  0.0555  0.0401
   89SAPS  H12Y 8658   4.809   0.200   9.027 -0.4008 -0.2969  0.9348
   89SAPS  C313 8659   4.697   0.047   8.906  0.7440  0.3609  0.4642
   89SAPS  H13X 8660   4.599   0.077   8.949  1.5289  1.5999  1.4919
   89SAPS  H13Y 8661   4.713  -0.059   8.878  0.1118  0.5777 -0.7758
   89SAPS  C314 8662   4.713   0.117   8.767  0.2052  0.5384  0.3450
   89SAPS  H14X 8663   4.821   0.118   8.742  0.7607  0.4228  2.5469
   89SAPS  H14Y 8664   4.692   0.224   8.787 -0.0977  1.2512 -3.2089
   89SAPS  C315 8665   4.621   0.060   8.660 -0.6053  0.0137 -0.4291
   89SAPS  H15X 8666   4.613   0.134   8.577 -1.2978  0.3431 -0.0761
   89SAPS  H15Y 8667   4.520   0.037   8.699 -0.6492  0.9040  0.0084
   89SAPS  C316 8668   4.689  -0.064   8.591 -0.2735  0.3159  0.6622
   89SAPS  H16X 8669   4.697  -0.158   8.649  1.4716  0.4772  0.7337
   89SAPS  H16Y 8670   4.788  -0.021   8.565  0.4094 -1.7128 -0.3417
   89SAPS  C317 8671   4.627  -0.103   8.454  0.0301  0.5671  0.1578
   89SAPS  H17X 8672   4.517  -0.091   8.463  0.1930  1.2194  1.5069
   89SAPS  H17Y 8673   4.643  -0.213   8.444  0.1765  0.2510  3.0401
   89SAPS  C318 8674   4.690  -0.029   8.331 -0.3331  0.0690 -0.1421
   89SAPS  H18X 8675   4.800  -0.041   8.326 -0.2573  1.0220 -1.2797
   89SAPS  H18Y 8676   4.674   0.081   8.338  0.3560  0.0664  2.0285
   89SAPS  H18Z 8677   4.654  -0.076   8.237  1.6074 -1.6599 -0.0831
   90SAPS     N 8678   6.380   6.607  10.612  0.1145  0.5838  0.0608
   90SAPS   HN1 8679   6.348   6.655  10.526  0.0031 -0.4414 -0.4785
   90SAPS   HN2 8680   6.426   6.519  10.583 -2.2066  0.7392 -5.1529
   90SAPS   HN3 8681   6.302   6.596  10.680  1.2219  0.3238  1.3503
   90SAPS   C12 8682   6.469   6.687  10.697 -0.6832 -0.2994 -0.8574
   90SAPS  H12A 8683   6.539   6.727  10.625 -0.4860 -0.9787 -1.0436
   90SAPS   C13 8684   6.408   6.809  10.778  0.2399  0.6444  0.6325
   90SAPS  O13A 8685   6.296   6.853  10.748  0.0629  0.0822  0.0916
   90SAPS  O13B 8686   6.489   6.884  10.845  0.2275 -0.5530  0.7040
   90SAPS   C11 8687   6.534   6.591  10.807 -0.3704 -0.3748  0.4386
   90SAPS  H11A 8688   6.455   6.537  10.865 -2.0741 -1.0119 -2.3037
   90SAPS  H11B 8689   6.598   6.650  10.876 -0.3486 -1.5940  1.5050
   90SAPS     P 8690   6.751   6.471  10.708 -0.0917 -0.0550  0.2810
   90SAPS   O13 8691   6.824   6.535  10.818 -0.4331 -0.3209  0.5122
   90SAPS   O14 8692   6.783   6.326  10.697  0.3388  0.1850  0.2202
   90SAPS   O12 8693   6.600   6.491  10.730  0.4981  0.3975  0.0128
   90SAPS   O11 8694   6.769   6.546  10.570  0.3479 -0.6989 -0.3782
   90SAPS    C1 8695   6.723   6.481  10.451 -0.0676 -0.3145 -0.4098
   90SAPS    HA 8696   6.810   6.421  10.419  1.5334  1.0503  1.2023
   90SAPS    HB 8697   6.650   6.398  10.466  1.4836 -2.1392 -2.3260
   90SAPS    C2 8698   6.682   6.571  10.334 -0.4515 -0.3739  0.1195
   90SAPS    HS 8699   6.597   6.631  10.373  0.4627 -0.0385  1.6829
   90SAPS   O21 8700   6.677   6.495  10.214  0.0448  0.3999 -0.4556
   90SAPS   C21 8701   6.567   6.521  10.146 -0.2368  0.3377  0.1020
   90SAPS   O22 8702   6.471   6.588  10.182 -0.2101  0.5519  0.4080
   90SAPS   C22 8703   6.573   6.446  10.013 -0.0120  0.1191 -0.3329
   90SAPS   H2R 8704   6.550   6.340  10.035 -0.8167  0.8393  2.7000
   90SAPS   H2S 8705   6.486   6.486   9.955  1.8054  1.6943 -2.1352
   90SAPS    C3 8706   6.791   6.686  10.322 -0.5697 -0.6470 -0.6599
   90SAPS    HX 8707   6.887   6.637  10.297  0.6171  1.4353 -0.3456
   90SAPS    HY 8708   6.804   6.739  10.418 -0.5656  1.5454 -1.8181
   90SAPS   O31 8709   6.772   6.780  10.218  0.4456 -0.3460 -0.0176
   90SAPS   C31 8710   6.694   6.877  10.240  0.2739  0.9913 -0.3748
   90SAPS   O32 8711   6.627   6.893  10.342 -0.3253  0.3240  0.3208
   90SAPS   C32 8712   6.681   6.956  10.113  0.0638 -0.4058 -0.2029
   90SAPS   H2X 8713   6.646   6.892  10.029 -0.2965  0.0058 -0.3681
   90SAPS   H2Y 8714   6.780   7.003  10.093  0.4644 -1.3251 -0.4246
   90SAPS   C23 8715   6.695   6.485   9.926  0.0022  0.0688  0.5873
   90SAPS   H3R 8716   6.675   6.440   9.826  0.4038 -0.8109  0.8932
   90SAPS   H3S 8717   6.780   6.428   9.967 -1.5775 -2.1488  0.9566
   90SAPS   C24 8718   6.733   6.633   9.917  0.4302  1.0282  0.2325
   90SAPS   H4R 8719   6.750   6.651  10.026  0.0127 -2.1075  0.9300
   90SAPS   H4S 8720   6.640   6.690   9.897  0.0852  0.5196  0.3553
   90SAPS   C25 8721   6.855   6.655   9.827  0.1096  0.4709  0.0689
   90SAPS   H5R 8722   6.956   6.624   9.857  1.4681  2.0504 -2.4929
   90SAPS   C26 8723   6.845   6.717   9.709  0.6535  0.3177  0.2119
   90SAPS   H6R 8724   6.938   6.726   9.650  1.3319  1.2077  1.3612
   90SAPS   C27 8725   6.723   6.768   9.640 -0.2417  0.0645 -0.5573
   90SAPS   H7R 8726   6.631   6.718   9.678  1.6874 -0.7701  3.5923
   90SAPS   H7S 8727   6.729   6.733   9.535 -2.1072 -0.2495 -0.6050
   90SAPS   C28 8728   6.704   6.919   9.663 -0.2244  0.4284  0.2526
   90SAPS   H8R 8729   6.765   6.967   9.740  1.1985 -0.6870 -0.1369
   90SAPS   C29 8730   6.642   6.994   9.569  0.1569 -0.4576 -0.2183
   90SAPS   H9R 8731   6.622   7.098   9.598  0.3342 -0.0744 -1.3929
   90SAPS  C210 8732   6.583   6.946   9.442  0.3095 -0.8275  0.3082
   90SAPS  H10R 8733   6.472   6.957   9.439  0.5101  2.9706  1.2482
   90SAPS  H10S 8734   6.596   6.836   9.429 -0.5389 -0.9701  0.5527
   90SAPS  C211 8735   6.630   7.016   9.315 -0.0534  0.0441  0.1468
   90SAPS  H11R 8736   6.669   7.118   9.329 -0.3146  0.8962 -4.0751
   90SAPS  C212 8737   6.625   6.964   9.191 -0.6840 -0.7535  0.1128
   90SAPS  H12R 8738   6.654   7.027   9.106 -1.4436  1.8504  1.6478
   90SAPS  C213 8739   6.585   6.821   9.154  0.2271 -0.2484 -0.1813
   90SAPS  H13R 8740   6.536   6.829   9.054  1.4164  1.0621 -0.6937
   90SAPS  H13S 8741   6.515   6.773   9.225  1.6003 -1.8847  0.1240
   90SAPS  C214 8742   6.698   6.733   9.141 -0.4438 -0.8738  0.2618
   90SAPS  H14R 8743   6.798   6.777   9.154 -1.1663  0.9954 -0.1672
   90SAPS  C215 8744   6.689   6.602   9.121 -0.0242  0.2367  0.3708
   90SAPS  H15R 8745   6.781   6.541   9.130 -0.3079 -0.4144 -0.9572
   90SAPS  C216 8746   6.555   6.523   9.108  0.7016  0.2875  0.5830
   90SAPS  H16R 8747   6.471   6.586   9.071  1.2066  0.4928 -0.2259
   90SAPS  H16S 8748   6.526   6.500   9.213  1.0206  0.9266  0.8146
   90SAPS  C217 8749   6.553   6.397   9.019 -0.0407 -0.7562  0.8974
   90SAPS  H17R 8750   6.469   6.333   9.051  0.7847 -1.2743  2.1422
   90SAPS  H17S 8751   6.648   6.348   9.050 -0.2711 -0.8391  1.4816
   90SAPS  C218 8752   6.555   6.436   8.869  0.1972  0.6208 -0.0177
   90SAPS  H18R 8753   6.547   6.344   8.807  0.5573  0.9189 -0.5143
   90SAPS  H18S 8754   6.648   6.492   8.849  1.6079 -1.5366  0.1530
   90SAPS  C219 8755   6.452   6.524   8.821 -0.7781 -0.2399 -0.3500
   90SAPS  H19R 8756   6.476   6.624   8.864  3.5545 -1.3425  0.3053
   90SAPS  H19S 8757   6.352   6.481   8.845 -0.4672 -1.4248 -1.0832
   90SAPS  C220 8758   6.472   6.534   8.668  0.1017  0.4470  0.4118
   90SAPS  H20R 8759   6.577   6.551   8.637  0.3385 -0.4548  0.6821
   90SAPS  H20S 8760   6.399   6.607   8.628 -1.8147 -1.9431 -0.7806
   90SAPS  H20T 8761   6.450   6.435   8.620 -1.3918  0.6667  0.5905
   90SAPS   C33 8762   6.585   7.068  10.151  0.3467 -0.2870 -0.6077
   90SAPS   H3X 8763   6.640   7.125  10.229  0.6841 -1.1296 -0.2252
   90SAPS   H3Y 8764   6.497   7.030  10.207  1.6053 -2.4464 -0.0070
   90SAPS   C34 8765   6.549   7.162  10.032 -0.3462  0.8319 -0.9957
   90SAPS   H4X 8766   6.488   7.110   9.955  0.2090 -0.3572 -0.6564
   90SAPS   H4Y 8767   6.636   7.220   9.995  1.8185  0.2777  2.7091
   90SAPS   C35 8768   6.454   7.279  10.075  0.7527  0.2648 -0.0268
   90SAPS   H5X 8769   6.500   7.330  10.162  1.1352  2.2104 -1.3252
   90SAPS   H5Y 8770   6.366   7.220  10.109  0.8965 -0.8285 -1.4452
   90SAPS   C36 8771   6.403   7.368   9.964 -0.5369  0.0871  0.2742
   90SAPS   H6X 8772   6.484   7.419   9.906 -1.5412 -0.3301 -1.5438
   90SAPS   H6Y 8773   6.356   7.453  10.018  1.1715  0.9535  0.4624
   90SAPS   C37 8774   6.306   7.305   9.867 -0.3008 -0.1365  0.3144
   90SAPS   H7X 8775   6.217   7.259   9.917 -0.2912  0.3227  0.7568
   90SAPS   H7Y 8776   6.358   7.215   9.827 -1.5920 -1.3677  1.3002
   90SAPS   C38 8777   6.249   7.397   9.761 -0.3317 -0.6070 -0.0738
   90SAPS   H8X 8778   6.330   7.446   9.704 -1.6521  1.2618 -0.4452
   90SAPS   H8Y 8779   6.215   7.488   9.815  2.1594  1.4119 -1.6748
   90SAPS   C39 8780   6.150   7.333   9.668 -0.1425 -0.0788 -0.6649
   90SAPS   H9X 8781   6.081   7.406   9.619 -0.8324  0.1292  0.5642
   90SAPS   H9Y 8782   6.085   7.267   9.729  2.2785 -0.1198  2.0577
   90SAPS  C310 8783   6.224   7.246   9.568 -0.8245  0.4122  0.2592
   90SAPS  H10X 8784   6.288   7.167   9.613 -2.3600 -1.0543 -0.0363
   90SAPS  H10Y 8785   6.297   7.308   9.512 -0.8137  1.0364  0.9492
   90SAPS  C311 8786   6.123   7.182   9.474  0.6360  0.4460 -0.1608
   90SAPS  H11X 8787   6.050   7.255   9.432 -0.6655 -0.5781  0.2257
   90SAPS  H11Y 8788   6.068   7.102   9.529  1.3866  0.1889  0.2226
   90SAPS  C312 8789   6.192   7.119   9.358 -0.4509 -0.0191  0.5208
   90SAPS  H12X 8790   6.275   7.057   9.398 -0.5847 -1.0383 -0.7233
   90SAPS  H12Y 8791   6.239   7.204   9.304 -3.5105  0.9792 -0.8232
   90SAPS  C313 8792   6.100   7.033   9.271 -0.2278 -0.1205 -0.1133
   90SAPS  H13X 8793   6.027   7.100   9.221 -1.5244 -0.9409  0.6251
   90SAPS  H13Y 8794   6.041   6.968   9.339 -0.5491 -0.3637 -0.6180
   90SAPS  C314 8795   6.178   6.947   9.169 -0.2984 -0.1703  0.1399
   90SAPS  H14X 8796   6.096   6.895   9.114  0.6738 -0.2528 -1.3013
   90SAPS  H14Y 8797   6.233   6.872   9.230 -1.7847 -1.1835  0.2876
   90SAPS  C315 8798   6.251   7.016   9.062 -0.3258  0.2217  0.1856
   90SAPS  H15X 8799   6.339   7.063   9.111  1.8813 -0.9822 -2.4003
   90SAPS  H15Y 8800   6.191   7.100   9.020 -0.4561 -0.4810 -1.0811
   90SAPS  C316 8801   6.301   6.931   8.947  0.5349  0.5855  0.2903
   90SAPS  H16X 8802   6.207   6.904   8.894  1.8111 -1.3617 -1.1534
   90SAPS  H16Y 8803   6.331   6.832   8.986 -0.0076 -0.3646 -1.5919
   90SAPS  C317 8804   6.417   6.997   8.866 -0.0855  0.2264  0.3184
   90SAPS  H17X 8805   6.496   7.014   8.942 -0.4694 -0.3131  0.8488
   90SAPS  H17Y 8806   6.381   7.091   8.819  2.9965  0.0089 -2.9232
   90SAPS  C318 8807   6.471   6.917   8.746  0.3985 -0.2564 -0.5495
   90SAPS  H18X 8808   6.533   6.831   8.779  1.0080  0.1438 -0.6474
   90SAPS  H18Y 8809   6.515   6.977   8.664 -1.9119  2.3879 -0.0017
   90SAPS  H18Z 8810   6.387   6.854   8.710 -0.4392  0.2741  0.4276
   91SAPS     N 8811   2.180   5.439   6.310  0.1489 -0.2808 -0.6063
   91SAPS   HN1 8812   2.136   5.400   6.395  1.7246  1.7534  1.2450
   91SAPS   HN2 8813   2.284   5.442   6.315  0.0723  2.0312  0.3938
   91SAPS   HN3 8814   2.148   5.538   6.306  0.8699 -0.0406 -0.5777
   91SAPS   C12 8815   2.141   5.379   6.176 -0.0961  0.4143 -0.6883
   91SAPS  H12A 8816   2.212   5.408   6.101 -0.9220 -0.8232 -2.0064
   91SAPS   C13 8817   2.150   5.220   6.175  0.1659 -0.1159 -0.5769
   91SAPS  O13A 8818   2.198   5.162   6.275 -0.0028  0.3825 -0.3848
   91SAPS  O13B 8819   2.077   5.162   6.093 -0.6507  0.4382 -0.1171
   91SAPS   C11 8820   1.991   5.425   6.134 -0.4384 -0.8700  0.3014
   91SAPS  H11A 8821   1.926   5.377   6.209 -1.2812 -1.2553 -0.6598
   91SAPS  H11B 8822   1.977   5.369   6.039  2.1462  0.2638 -0.8575
   91SAPS     P 8823   1.951   5.674   6.218 -0.0147 -0.3956  0.2759
   91SAPS   O13 8824   2.082   5.693   6.287  0.5978 -1.0280  0.3624
   91SAPS   O14 8825   1.877   5.795   6.160 -0.5755 -0.2987 -0.7093
   91SAPS   O12 8826   1.985   5.567   6.104  0.4757 -0.0991  0.4485
   91SAPS   O11 8827   1.851   5.592   6.302 -1.3037  0.2585  0.2840
   91SAPS    C1 8828   1.793   5.639   6.425  0.2513  0.6945  0.5250
   91SAPS    HA 8829   1.813   5.748   6.422  0.1687  0.7054  0.4006
   91SAPS    HB 8830   1.684   5.624   6.410 -0.0092  3.7763 -1.4199
   91SAPS    C2 8831   1.861   5.569   6.550  0.0417  0.2726 -0.2214
   91SAPS    HS 8832   1.819   5.610   6.645 -1.5878  0.9215 -1.1896
   91SAPS   O21 8833   2.003   5.587   6.552 -0.1403 -0.0234 -0.1060
   91SAPS   C21 8834   2.060   5.707   6.577 -0.9886  0.4376  0.4756
   91SAPS   O22 8835   2.002   5.814   6.595  0.2734 -0.3538  0.0720
   91SAPS   C22 8836   2.211   5.681   6.584  0.8590 -0.0677  0.6450
   91SAPS   H2R 8837   2.222   5.582   6.632 -2.4740 -0.5498  0.6326
   91SAPS   H2S 8838   2.251   5.666   6.481 -0.9776 -1.2375  0.0426
   91SAPS    C3 8839   1.854   5.413   6.534  0.1938  0.3426  0.3985
   91SAPS    HX 8840   1.899   5.391   6.435 -1.0242 -1.0889  0.1142
   91SAPS    HY 8841   1.748   5.386   6.514  0.3074  1.0803 -1.4124
   91SAPS   O31 8842   1.894   5.329   6.648  0.1868  0.1941 -0.3384
   91SAPS   C31 8843   2.016   5.290   6.641  0.1129 -0.3588 -1.0555
   91SAPS   O32 8844   2.094   5.306   6.551 -0.4731 -0.0378  0.5737
   91SAPS   C32 8845   2.057   5.217   6.771 -0.5236 -0.7514  0.2201
   91SAPS   H2X 8846   2.102   5.118   6.749  0.4654 -0.9534  2.8732
   91SAPS   H2Y 8847   1.963   5.203   6.828 -0.7976  2.4695  0.7443
   91SAPS   C23 8848   2.295   5.786   6.662  0.6721  0.1823  0.2195
   91SAPS   H3R 8849   2.285   5.889   6.620  1.7612  0.3135  0.2598
   91SAPS   H3S 8850   2.402   5.759   6.649  0.1092 -2.3543  0.4215
   91SAPS   C24 8851   2.274   5.775   6.814  0.0606  0.2056  0.4016
   91SAPS   H4R 8852   2.309   5.672   6.834 -1.4803 -0.7793 -1.4987
   91SAPS   H4S 8853   2.162   5.776   6.818  0.0318 -1.4836  0.4624
   91SAPS   C25 8854   2.345   5.890   6.891  0.4508  0.2564 -0.1984
   91SAPS   H5R 8855   2.385   5.960   6.816  1.4037  0.5954  0.5988
   91SAPS   C26 8856   2.375   5.896   7.016  0.3475 -0.1628 -0.0308
   91SAPS   H6R 8857   2.420   5.985   7.063 -1.5021  0.4839  0.6050
   91SAPS   C27 8858   2.332   5.785   7.117  0.0338  0.6590  0.7807
   91SAPS   H7R 8859   2.303   5.682   7.089 -1.2293  0.8739  1.2248
   91SAPS   H7S 8860   2.240   5.820   7.168  0.2088  2.0449  0.1918
   91SAPS   C28 8861   2.444   5.769   7.213  0.2996  0.1214  0.3980
   91SAPS   H8R 8862   2.536   5.725   7.173  0.8356 -0.5753  2.2911
   91SAPS   C29 8863   2.437   5.806   7.344  0.1307  0.3220 -0.3062
   91SAPS   H9R 8864   2.525   5.780   7.405 -1.0800 -1.8369  0.6343
   91SAPS  C210 8865   2.328   5.879   7.422 -0.0922 -0.2801 -0.1597
   91SAPS  H10R 8866   2.266   5.946   7.359  0.7861  1.3334  0.6555
   91SAPS  H10S 8867   2.380   5.953   7.486 -1.7766  0.5536  0.3006
   91SAPS  C211 8868   2.240   5.780   7.498  0.0381 -0.3768  0.4214
   91SAPS  H11R 8869   2.179   5.717   7.433  0.9911 -2.2414  1.2521
   91SAPS  C212 8870   2.224   5.760   7.632 -0.0848 -0.0933  0.0178
   91SAPS  H12R 8871   2.151   5.684   7.664 -1.4709  0.6196 -1.3335
   91SAPS  C213 8872   2.295   5.830   7.741 -0.5862 -0.2446  0.1577
   91SAPS  H13R 8873   2.403   5.815   7.722 -0.5746 -2.3853  1.4568
   91SAPS  H13S 8874   2.272   5.769   7.832  0.3413 -1.0876 -0.1599
   91SAPS  C214 8875   2.271   5.971   7.760 -0.0136 -0.1422 -0.4084
   91SAPS  H14R 8876   2.277   6.028   7.666  0.2736  0.4615 -0.0355
   91SAPS  C215 8877   2.246   6.045   7.869 -0.4602  0.3298  0.4222
   91SAPS  H15R 8878   2.226   6.154   7.865 -0.9185  0.3255  2.1377
   91SAPS  C216 8879   2.226   5.983   8.000 -0.1858  0.1164 -0.5699
   91SAPS  H16R 8880   2.309   5.921   8.040  0.4151 -0.2520 -2.2857
   91SAPS  H16S 8881   2.132   5.928   7.981  0.0418 -0.0617 -1.2259
   91SAPS  C217 8882   2.174   6.075   8.107 -0.3654 -0.0918  0.5068
   91SAPS  H17R 8883   2.106   6.154   8.069 -1.1196 -0.4189  1.1525
   91SAPS  H17S 8884   2.254   6.137   8.154 -1.3915  1.4918  0.2451
   91SAPS  C218 8885   2.105   6.011   8.224 -0.2750 -0.0297 -1.0579
   91SAPS  H18R 8886   2.111   6.079   8.311 -1.3660 -0.6536 -0.4720
   91SAPS  H18S 8887   2.151   5.914   8.253 -2.0189 -0.2263  1.3760
   91SAPS  C219 8888   1.952   5.983   8.208 -0.5583  0.6721 -0.2811
   91SAPS  H19R 8889   1.933   5.909   8.127 -2.5429  1.6770 -0.7953
   91SAPS  H19S 8890   1.904   6.072   8.162 -1.4328  0.2376 -0.2275
   91SAPS  C220 8891   1.893   5.932   8.340 -0.0180  0.4737 -0.0137
   91SAPS  H20R 8892   1.814   5.859   8.311 -0.9915  1.2675  0.5792
   91SAPS  H20S 8893   1.859   6.018   8.402 -0.1660  2.1582 -2.3193
   91SAPS  H20T 8894   1.963   5.863   8.393  0.8800  1.1924 -0.2486
   91SAPS   C33 8895   2.162   5.305   6.839  0.3341 -0.7017  0.3988
   91SAPS   H3X 8896   2.244   5.336   6.772 -1.6460  1.2948 -1.2828
   91SAPS   H3Y 8897   2.203   5.250   6.926  3.0943  1.0863  0.3506
   91SAPS   C34 8898   2.096   5.431   6.899 -0.0960 -0.1740  0.2033
   91SAPS   H4X 8899   2.041   5.489   6.821  0.8045 -0.6993 -0.8554
   91SAPS   H4Y 8900   2.177   5.493   6.943 -1.2057  0.1048  1.9575
   91SAPS   C35 8901   1.994   5.406   7.015 -0.4033 -0.3453 -0.0602
   91SAPS   H5X 8902   2.044   5.349   7.096  2.5271  2.3074  0.1770
   91SAPS   H5Y 8903   1.912   5.339   6.978 -2.4668  2.6871 -1.3572
   91SAPS   C36 8904   1.925   5.533   7.064  0.2709  0.5225  0.4323
   91SAPS   H6X 8905   1.869   5.577   6.979 -0.2740 -1.2926 -0.1871
   91SAPS   H6Y 8906   1.994   5.613   7.100  1.3356  0.2105 -0.8282
   91SAPS   C37 8907   1.837   5.495   7.188  0.3056 -0.0934 -0.1081
   91SAPS   H7X 8908   1.787   5.397   7.181  0.0692  0.0011  0.2219
   91SAPS   H7Y 8909   1.753   5.567   7.193 -0.2726 -0.8108  0.8786
   91SAPS   C38 8910   1.911   5.509   7.321  0.1776 -0.3496 -0.4456
   91SAPS   H8X 8911   1.937   5.617   7.314 -0.9022 -0.1051 -1.0647
   91SAPS   H8Y 8912   2.005   5.452   7.327  0.9798  1.0358  0.7847
   91SAPS   C39 8913   1.827   5.485   7.442 -0.7915  0.0980 -0.1836
   91SAPS   H9X 8914   1.798   5.378   7.444  1.2194 -0.4793  1.0009
   91SAPS   H9Y 8915   1.736   5.546   7.425 -1.7180 -0.6411  1.7983
   91SAPS  C310 8916   1.908   5.522   7.569 -0.1341 -0.0280  0.2332
   91SAPS  H10X 8917   1.977   5.605   7.542  1.3155 -1.4771 -0.7383
   91SAPS  H10Y 8918   1.976   5.433   7.577  0.7460  0.5436 -0.6763
   91SAPS  C311 8919   1.827   5.528   7.700  0.0681  0.7700 -0.2414
   91SAPS  H11X 8920   1.771   5.433   7.710  0.8409  0.2923 -0.4283
   91SAPS  H11Y 8921   1.760   5.616   7.685 -0.8461  0.2695  0.8044
   91SAPS  C312 8922   1.917   5.541   7.821  0.1581  0.0663 -0.5582
   91SAPS  H12X 8923   1.975   5.633   7.801 -1.0256  0.9256 -0.1377
   91SAPS  H12Y 8924   1.982   5.451   7.815  0.2238  0.1363 -0.9499
   91SAPS  C313 8925   1.858   5.538   7.962  0.0325 -0.0097  0.4909
   91SAPS  H13X 8926   1.778   5.461   7.966  0.8430 -0.8347  1.2051
   91SAPS  H13Y 8927   1.814   5.638   7.978  1.8402  1.4182 -2.4992
   91SAPS  C314 8928   1.972   5.522   8.061  0.8049  0.0166  0.0745
   91SAPS  H14X 8929   2.061   5.577   8.023  0.6072 -0.8110 -1.6839
   91SAPS  H14Y 8930   2.010   5.418   8.055  0.5702 -0.1337  1.0807
   91SAPS  C315 8931   1.945   5.548   8.208  0.3095 -0.1886 -0.8247
   91SAPS  H15X 8932   1.941   5.658   8.226 -0.1143 -0.1167 -1.3183
   91SAPS  H15Y 8933   2.023   5.509   8.277  0.7414  0.7826 -0.7459
   91SAPS  C316 8934   1.809   5.503   8.257 -0.3281 -0.5799  0.2576
   91SAPS  H16X 8935   1.771   5.414   8.203  1.3905 -1.1885 -0.0177
   91SAPS  H16Y 8936   1.734   5.583   8.243  0.9469  0.4860 -0.7195
   91SAPS  C317 8937   1.821   5.454   8.406  0.6192 -0.4602  0.2751
   91SAPS  H17X 8938   1.906   5.383   8.413  0.1847 -0.8769  1.4810
   91SAPS  H17Y 8939   1.723   5.409   8.430  0.5275 -0.2006  0.3977
   91SAPS  C318 8940   1.844   5.570   8.509 -0.4610 -0.0387  0.2301
   91SAPS  H18X 8941   1.933   5.633   8.487 -0.6114 -0.7484 -2.7953
   91SAPS  H18Y 8942   1.868   5.519   8.605 -0.2610 -1.7838 -0.6882
   91SAPS  H18Z 8943   1.766   5.648   8.507 -0.4075  0.0052 -1.0914
   92SAPS     N 8944   1.579   3.839   6.031 -0.4818  0.2861  0.1915
   92SAPS   HN1 8945   1.562   3.913   5.960  2.0622 -0.9494 -1.8645
   92SAPS   HN2 8946   1.514   3.758   6.030  0.3605 -0.4381  1.5180
   92SAPS   HN3 8947   1.563   3.880   6.125 -0.2542 -0.0019  0.3566
   92SAPS   C12 8948   1.726   3.814   6.015  0.4115 -0.2363  0.0408
   92SAPS  H12A 8949   1.741   3.744   5.934 -1.6481  0.5036 -1.0353
   92SAPS   C13 8950   1.806   3.936   5.969 -0.5189 -0.4014 -0.1908
   92SAPS  O13A 8951   1.736   4.040   5.937  0.2317  0.5459  0.4625
   92SAPS  O13B 8952   1.927   3.931   5.945  0.5738 -0.1088 -0.3028
   92SAPS   C11 8953   1.794   3.758   6.138 -0.2354 -0.3963  0.3676
   92SAPS  H11A 8954   1.778   3.814   6.233  1.4010 -0.1889  0.5379
   92SAPS  H11B 8955   1.900   3.764   6.108  0.1219  2.3622  1.8583
   92SAPS     P 8956   1.812   3.483   6.123 -0.4397 -0.5485  0.3071
   92SAPS   O13 8957   1.700   3.383   6.136  0.4180 -0.3266 -0.6794
   92SAPS   O14 8958   1.877   3.493   5.991 -0.7548 -0.3878  0.2762
   92SAPS   O12 8959   1.739   3.621   6.149  0.4352 -0.0547 -0.2797
   92SAPS   O11 8960   1.913   3.463   6.238  0.0344 -0.6844 -0.1751
   92SAPS    C1 8961   1.865   3.446   6.374 -0.1437  1.0478  0.0121
   92SAPS    HA 8962   1.766   3.395   6.376  0.4403 -0.1708 -1.1651
   92SAPS    HB 8963   1.929   3.368   6.420 -1.8330 -0.1924  0.3811
   92SAPS    C2 8964   1.874   3.573   6.464  0.5767  0.2860 -0.0963
   92SAPS    HS 8965   1.815   3.647   6.406  1.4575  0.9737 -0.1283
   92SAPS   O21 8966   2.011   3.611   6.480  0.3438  0.2720  0.0788
   92SAPS   C21 8967   2.029   3.739   6.529 -0.4852 -0.1846  0.6268
   92SAPS   O22 8968   1.943   3.822   6.541  0.0267  0.2518  0.6139
   92SAPS   C22 8969   2.171   3.758   6.574 -0.2942 -0.3691  0.0221
   92SAPS   H2R 8970   2.230   3.675   6.530 -0.0060  0.1042 -0.4935
   92SAPS   H2S 8971   2.212   3.854   6.536  0.3449  0.5150  2.7261
   92SAPS    C3 8972   1.812   3.555   6.606 -0.5450 -0.1663  0.5672
   92SAPS    HX 8973   1.819   3.650   6.664 -2.6141  0.3276  0.1111
   92SAPS    HY 8974   1.892   3.497   6.655  1.0400  2.6755  1.5698
   92SAPS   O31 8975   1.680   3.495   6.606  0.2551 -0.4042  0.0715
   92SAPS   C31 8976   1.671   3.388   6.687  0.1946 -0.2264 -0.2684
   92SAPS   O32 8977   1.763   3.318   6.727  0.1492  0.3786  0.1717
   92SAPS   C32 8978   1.524   3.363   6.711 -0.1977 -0.4415 -0.5689
   92SAPS   H2X 8979   1.489   3.301   6.625 -1.7428  0.7517 -0.8536
   92SAPS   H2Y 8980   1.455   3.450   6.705 -2.1263 -1.8492  0.1169
   92SAPS   C23 8981   2.181   3.758   6.726 -0.0538 -0.0444 -0.2729
   92SAPS   H3R 8982   2.284   3.743   6.767 -0.1446 -1.5039 -0.5160
   92SAPS   H3S 8983   2.122   3.671   6.762  0.9567  0.2274  2.2633
   92SAPS   C24 8984   2.129   3.885   6.785 -0.3029 -0.0064  0.7440
   92SAPS   H4R 8985   2.119   3.861   6.894 -1.5459 -0.5280  0.5384
   92SAPS   H4S 8986   2.029   3.913   6.746  0.3831  0.5756 -0.6190
   92SAPS   C25 8987   2.238   3.991   6.767  0.7259 -0.0894  0.2590
   92SAPS   H5R 8988   2.256   4.029   6.665  3.8263  1.6315  1.3516
   92SAPS   C26 8989   2.331   4.016   6.860 -0.4574  0.2230  0.0554
   92SAPS   H6R 8990   2.409   4.088   6.833 -1.9672  1.5461 -0.9544
   92SAPS   C27 8991   2.354   3.943   6.996  0.7375  0.7174 -0.2146
   92SAPS   H7R 8992   2.336   3.837   6.969 -0.7266  1.6773 -3.5119
   92SAPS   H7S 8993   2.281   3.982   7.070  0.7452  0.3728 -0.0192
   92SAPS   C28 8994   2.491   3.970   7.044  0.3319 -0.4296  0.2785
   92SAPS   H8R 8995   2.574   3.942   6.977  0.5467  0.4650  0.1602
   92SAPS   C29 8996   2.522   4.021   7.166 -0.3018  0.6983 -0.4052
   92SAPS   H9R 8997   2.631   4.037   7.177 -0.4815  1.3267  0.5521
   92SAPS  C210 8998   2.437   4.071   7.279  0.4410 -0.3059 -0.1536
   92SAPS  H10R 8999   2.335   4.091   7.242  0.0934  0.8694  1.3567
   92SAPS  H10S 9000   2.477   4.172   7.302 -1.8430  0.3841  1.0501
   92SAPS  C211 9001   2.419   3.975   7.404 -1.1079 -0.8525  0.2833
   92SAPS  H11R 9002   2.393   3.871   7.381 -0.7554 -0.5618 -1.5815
   92SAPS  C212 9003   2.415   3.999   7.531  0.0359 -0.6936  0.6631
   92SAPS  H12R 9004   2.396   3.919   7.605  1.7123 -0.9640  0.8378
   92SAPS  C213 9005   2.430   4.135   7.606 -0.1021  0.0952  0.1141
   92SAPS  H13R 9006   2.330   4.149   7.653 -0.3125 -1.2769  0.1292
   92SAPS  H13S 9007   2.432   4.221   7.536  1.3544 -0.3668 -0.4445
   92SAPS  C214 9008   2.534   4.137   7.708  0.0950  0.4433 -0.2517
   92SAPS  H14R 9009   2.632   4.182   7.684 -0.9768  3.1438  0.1549
   92SAPS  C215 9010   2.522   4.091   7.831 -0.5083  0.6705  0.1879
   92SAPS  H15R 9011   2.600   4.117   7.905  0.1907 -2.7625  0.8625
   92SAPS  C216 9012   2.396   4.022   7.885  0.4021 -0.4434 -0.3724
   92SAPS  H16R 9013   2.419   3.916   7.906  0.8366 -0.2323  0.2595
   92SAPS  H16S 9014   2.308   4.031   7.818  0.5738  0.9285 -0.4473
   92SAPS  C217 9015   2.359   4.100   8.017 -0.7854  0.0137  0.1872
   92SAPS  H17R 9016   2.256   4.079   8.054 -1.6649  1.5351 -1.2194
   92SAPS  H17S 9017   2.355   4.211   8.004  0.1815  0.4813  3.1669
   92SAPS  C218 9018   2.462   4.066   8.132 -0.1479  0.0753  0.2422
   92SAPS  H18R 9019   2.559   4.120   8.122  0.0437 -0.0889  1.2047
   92SAPS  H18S 9020   2.478   3.958   8.153  1.3469  0.7107  2.7782
   92SAPS  C219 9021   2.410   4.125   8.268 -0.3113  0.5542  0.5499
   92SAPS  H19R 9022   2.306   4.096   8.290 -1.1839 -0.1408 -3.6601
   92SAPS  H19S 9023   2.433   4.234   8.271  0.7094  0.4097 -0.7835
   92SAPS  C220 9024   2.488   4.065   8.389 -0.3468 -0.1189 -0.9767
   92SAPS  H20R 9025   2.453   3.964   8.419 -0.5787  0.2029 -0.1473
   92SAPS  H20S 9026   2.469   4.133   8.474  0.5369  0.3260 -1.1194
   92SAPS  H20T 9027   2.599   4.075   8.381 -0.2011  1.9972  2.0227
   92SAPS   C33 9028   1.505   3.285   6.838 -0.1124  0.8751 -0.2092
   92SAPS   H3X 9029   1.563   3.191   6.851  1.5716  2.1386  2.4006
   92SAPS   H3Y 9030   1.403   3.242   6.824  0.4285 -1.1322  1.3916
   92SAPS   C34 9031   1.501   3.365   6.970  0.1504  0.7059 -0.4860
   92SAPS   H4X 9032   1.449   3.462   6.984  0.6932  0.8508  0.7174
   92SAPS   H4Y 9033   1.602   3.400   7.000  0.1790 -0.2247  0.5838
   92SAPS   C35 9034   1.440   3.283   7.086 -0.0925  0.3673 -0.0527
   92SAPS   H5X 9035   1.501   3.190   7.089 -0.9233 -0.2170 -0.7991
   92SAPS   H5Y 9036   1.341   3.254   7.045  0.6265  0.0795 -1.6799
   92SAPS   C36 9037   1.439   3.349   7.220 -0.9018  0.0271 -0.7397
   92SAPS   H6X 9038   1.348   3.412   7.231 -0.9001 -0.2741  1.5956
   92SAPS   H6Y 9039   1.531   3.409   7.236 -1.3412  1.1539 -2.2694
   92SAPS   C37 9040   1.439   3.249   7.343 -0.2224 -0.6362 -0.2734
   92SAPS   H7X 9041   1.531   3.187   7.334 -0.1384 -0.4000 -1.0801
   92SAPS   H7Y 9042   1.348   3.186   7.338 -1.6819  1.4376 -1.3998
   92SAPS   C38 9043   1.438   3.318   7.484 -0.4117  0.0462 -0.9387
   92SAPS   H8X 9044   1.349   3.385   7.491 -0.3595  0.0047  0.2297
   92SAPS   H8Y 9045   1.536   3.369   7.489 -0.8947  1.1560 -2.1796
   92SAPS   C39 9046   1.433   3.217   7.596  0.6425  0.1185  0.0281
   92SAPS   H9X 9047   1.525   3.156   7.582 -0.9169 -2.0282 -1.5196
   92SAPS   H9Y 9048   1.352   3.143   7.580  1.7144 -0.8484 -1.0337
   92SAPS  C310 9049   1.443   3.284   7.732  0.1680 -0.3798  0.1883
   92SAPS  H10X 9050   1.368   3.364   7.748  1.0400  0.6040 -0.4784
   92SAPS  H10Y 9051   1.542   3.335   7.734 -0.5541  1.0560  1.5459
   92SAPS  C311 9052   1.438   3.185   7.846  0.3388 -1.3557  0.0586
   92SAPS  H11X 9053   1.523   3.114   7.835  3.7734  1.6519  3.8825
   92SAPS  H11Y 9054   1.335   3.143   7.850 -0.7990  1.2627  2.5416
   92SAPS  C312 9055   1.471   3.262   7.979  0.2413  0.6769 -0.2892
   92SAPS  H12X 9056   1.421   3.361   7.992  0.2506  1.0756 -2.7741
   92SAPS  H12Y 9057   1.576   3.293   7.960  1.3984 -1.7664  1.5777
   92SAPS  C313 9058   1.437   3.168   8.105 -0.3637  0.6386  0.1997
   92SAPS  H13X 9059   1.497   3.078   8.080 -0.8295  0.4387 -0.2172
   92SAPS  H13Y 9060   1.328   3.146   8.101 -0.3092 -0.1382  1.8752
   92SAPS  C314 9061   1.477   3.230   8.238  0.3150 -0.0736 -0.1536
   92SAPS  H14X 9062   1.408   3.312   8.269 -0.8413 -0.8622 -0.5733
   92SAPS  H14Y 9063   1.577   3.278   8.231  0.0105  0.3998 -1.8733
   92SAPS  C315 9064   1.495   3.126   8.347 -0.3120  0.0660 -0.1432
   92SAPS  H15X 9065   1.575   3.051   8.328 -0.2973  0.0609 -0.0638
   92SAPS  H15Y 9066   1.405   3.063   8.362 -0.5422  0.2380 -0.7694
   92SAPS  C316 9067   1.535   3.197   8.480  0.8767  0.4363  0.0095
   92SAPS  H16X 9068   1.500   3.301   8.497 -3.4635 -1.1949  2.5958
   92SAPS  H16Y 9069   1.645   3.210   8.467  0.6473  1.0538 -1.4465
   92SAPS  C317 9070   1.493   3.105   8.594 -0.3048  0.3741  0.1854
   92SAPS  H17X 9071   1.384   3.093   8.582 -0.1532 -0.4173 -0.5276
   92SAPS  H17Y 9072   1.505   3.153   8.693 -1.0207  0.0821  0.4158
   92SAPS  C318 9073   1.565   2.971   8.590  0.0288  0.0550 -0.2780
   92SAPS  H18X 9074   1.674   2.976   8.610  0.1910  0.7170 -1.2500
   92SAPS  H18Y 9075   1.543   2.917   8.495 -2.1350  0.3120  0.0329
   92SAPS  H18Z 9076   1.524   2.911   8.673 -0.6451 -0.0012 -0.6433
   93SAPS     N 9077   3.526   3.640   6.278 -0.1619  0.1463 -0.2680
   93SAPS   HN1 9078   3.470   3.579   6.215 -1.0774  1.3181 -0.6326
   93SAPS   HN2 9079   3.607   3.582   6.309 -0.0036  0.6323  0.2627
   93SAPS   HN3 9080   3.480   3.666   6.368 -0.6154  0.7516 -0.6652
   93SAPS   C12 9081   3.582   3.759   6.206  0.0975  0.3692 -0.8084
   93SAPS  H12A 9082   3.651   3.722   6.132 -1.1304 -0.2801 -1.6700
   93SAPS   C13 9083   3.477   3.840   6.119  0.1436 -1.0957  0.2247
   93SAPS  O13A 9084   3.356   3.812   6.127  0.2810 -0.6460  0.7087
   93SAPS  O13B 9085   3.523   3.926   6.042 -0.2021 -0.3555 -0.1015
   93SAPS   C11 9086   3.657   3.853   6.305  0.2245  0.0824 -0.2678
   93SAPS  H11A 9087   3.586   3.897   6.378 -1.0588  0.5587 -1.7422
   93SAPS  H11B 9088   3.714   3.924   6.241  0.7913  0.3938  0.5669
   93SAPS     P 9089   3.861   3.811   6.469  0.0726  0.0704  0.0242
   93SAPS   O13 9090   3.946   3.688   6.469  0.3970 -0.4378  1.3593
   93SAPS   O14 9091   3.922   3.934   6.410 -0.1373 -0.4699 -0.5469
   93SAPS   O12 9092   3.736   3.771   6.380  0.0901  0.1558 -0.4080
   93SAPS   O11 9093   3.794   3.844   6.604  0.0703  0.3601 -0.0345
   93SAPS    C1 9094   3.690   3.756   6.647  0.4502  0.5189 -0.4002
   93SAPS    HA 9095   3.591   3.776   6.600  0.6371  0.9409 -0.6131
   93SAPS    HB 9096   3.716   3.649   6.627  1.1833  0.4200  1.0070
   93SAPS    C2 9097   3.673   3.769   6.805  0.4866  0.4544  0.3193
   93SAPS    HS 9098   3.626   3.671   6.828  0.6059  0.3275  0.0283
   93SAPS   O21 9099   3.590   3.881   6.835 -0.1616  0.5565  1.0607
   93SAPS   C21 9100   3.492   3.849   6.926 -0.4443 -0.2871 -0.4036
   93SAPS   O22 9101   3.486   3.742   6.985 -0.3087 -0.3555  0.1468
   93SAPS   C22 9102   3.405   3.967   6.956  0.0883  0.1526  0.2510
   93SAPS   H2R 9103   3.418   4.050   6.882 -1.1580  0.1051 -0.0391
   93SAPS   H2S 9104   3.307   3.926   6.926 -1.0147  2.5938  0.2425
   93SAPS    C3 9105   3.811   3.760   6.878 -0.0697 -0.1703 -0.2768
   93SAPS    HX 9106   3.851   3.862   6.859 -1.6049  0.7068  0.9652
   93SAPS    HY 9107   3.884   3.685   6.843 -0.0967 -0.4001  0.1479
   93SAPS   O31 9108   3.803   3.755   7.029 -0.0416  0.6587  0.2920
   93SAPS   C31 9109   3.788   3.641   7.079 -1.1536 -0.2996 -0.2308
   93SAPS   O32 9110   3.814   3.532   7.023  0.2301 -0.7250 -0.1128
   93SAPS   C32 9111   3.752   3.666   7.229  0.4678  0.2339  0.5789
   93SAPS   H2X 9112   3.669   3.738   7.236 -0.9416 -1.3296  0.5885
   93SAPS   H2Y 9113   3.842   3.717   7.270  1.9955 -1.3249 -0.6744
   93SAPS   C23 9114   3.376   4.017   7.092  0.2899 -0.7125 -0.6649
   93SAPS   H3R 9115   3.454   4.094   7.113 -0.6658  0.4183 -1.1542
   93SAPS   H3S 9116   3.393   3.939   7.169 -0.2234 -0.2996 -0.1260
   93SAPS   C24 9117   3.250   4.093   7.123  0.2120  0.4135 -0.2549
   93SAPS   H4R 9118   3.246   4.131   7.227 -3.2087  0.1099 -0.1730
   93SAPS   H4S 9119   3.164   4.023   7.114  0.1115  0.6362 -1.1454
   93SAPS   C25 9120   3.231   4.214   7.028  0.5107 -0.1587  0.2464
   93SAPS   H5R 9121   3.287   4.205   6.934 -0.1643 -1.4105 -0.0697
   93SAPS   C26 9122   3.130   4.307   7.045 -0.3289  0.7993  0.0526
   93SAPS   H6R 9123   3.115   4.390   6.974  0.7185 -0.2912 -1.5199
   93SAPS   C27 9124   3.021   4.290   7.156 -0.5236 -0.6535  0.5465
   93SAPS   H7R 9125   3.046   4.348   7.247  0.2798  1.3799 -0.8910
   93SAPS   H7S 9126   3.017   4.188   7.200 -0.6351  0.5207  3.4844
   93SAPS   C28 9127   2.880   4.344   7.125  0.4424 -0.0431 -0.2866
   93SAPS   H8R 9128   2.878   4.391   7.026  1.6887 -0.3511 -0.4763
   93SAPS   C29 9129   2.768   4.348   7.203  0.1285 -0.0074 -0.0751
   93SAPS   H9R 9130   2.682   4.397   7.156  1.0904  2.1940  0.3040
   93SAPS  C210 9131   2.762   4.298   7.341  0.2356 -0.0682 -0.2174
   93SAPS  H10R 9132   2.863   4.266   7.372 -0.4881 -1.5181  0.7566
   93SAPS  H10S 9133   2.711   4.200   7.333  1.2399 -0.6753  0.6436
   93SAPS  C211 9134   2.703   4.405   7.433  0.1173 -0.4755 -0.2816
   93SAPS  H11R 9135   2.593   4.404   7.429  0.0995 -0.1398  0.1314
   93SAPS  C212 9136   2.760   4.481   7.526 -0.3239  1.3969 -1.1409
   93SAPS  H12R 9137   2.705   4.551   7.590  0.6356  0.4178  0.8247
   93SAPS  C213 9138   2.905   4.480   7.550  0.5805  0.5163  0.6526
   93SAPS  H13R 9139   2.964   4.437   7.466 -1.5893 -2.4701  0.5058
   93SAPS  H13S 9140   2.921   4.399   7.625 -0.7796 -0.4612 -0.0867
   93SAPS  C214 9141   2.966   4.606   7.594  0.5973 -0.5645 -0.2197
   93SAPS  H14R 9142   2.931   4.695   7.539 -0.9515 -2.4587 -2.4857
   93SAPS  C215 9143   3.051   4.619   7.700 -0.0819 -0.5059  0.6251
   93SAPS  H15R 9144   3.096   4.718   7.718 -2.1341  0.0507  3.2917
   93SAPS  C216 9145   3.104   4.509   7.788 -0.3369 -0.2851 -0.3530
   93SAPS  H16R 9146   3.213   4.501   7.772 -0.1565 -1.3220  1.2489
   93SAPS  H16S 9147   3.056   4.416   7.752 -1.9476 -0.1722  1.3457
   93SAPS  C217 9148   3.071   4.546   7.929  0.7035 -0.2712 -1.0200
   93SAPS  H17R 9149   3.100   4.462   7.995  3.3893  0.8372 -0.6427
   93SAPS  H17S 9150   2.961   4.556   7.940  0.7393 -1.9758  1.6620
   93SAPS  C218 9151   3.145   4.664   7.988 -0.0849 -0.0054 -0.5523
   93SAPS  H18R 9152   3.123   4.759   7.935 -1.9014 -1.8376 -3.3423
   93SAPS  H18S 9153   3.253   4.639   7.975 -0.2709  0.2177 -3.2337
   93SAPS  C219 9154   3.125   4.684   8.135 -0.1679  0.3696 -0.3240
   93SAPS  H19R 9155   3.125   4.584   8.182 -0.6520  0.3591 -0.3439
   93SAPS  H19S 9156   3.021   4.720   8.150  0.0753  0.9635 -0.0264
   93SAPS  C220 9157   3.228   4.785   8.184  0.9237 -0.1112  0.4100
   93SAPS  H20R 9158   3.253   4.860   8.106  0.7644 -0.4327  0.0452
   93SAPS  H20S 9159   3.323   4.730   8.205 -0.8067 -4.0001 -0.9998
   93SAPS  H20T 9160   3.194   4.835   8.277 -1.3370 -0.8028  0.0154
   93SAPS   C33 9161   3.725   3.529   7.298  0.4422  0.3271  0.3604
   93SAPS   H3X 9162   3.823   3.492   7.335  0.3421  0.3675  0.6685
   93SAPS   H3Y 9163   3.694   3.455   7.221  1.7235  0.9487 -0.8121
   93SAPS   C34 9164   3.623   3.537   7.410  0.5155 -0.6560 -0.6720
   93SAPS   H4X 9165   3.597   3.438   7.452  1.2149 -0.7184 -0.3621
   93SAPS   H4Y 9166   3.526   3.572   7.369 -0.4867 -0.7662  1.4913
   93SAPS   C35 9167   3.683   3.627   7.521 -1.0159  0.3539  0.9569
   93SAPS   H5X 9168   3.719   3.722   7.476 -2.8167  0.8820  0.5244
   93SAPS   H5Y 9169   3.772   3.571   7.556 -0.9096  0.5904  1.0724
   93SAPS   C36 9170   3.575   3.658   7.626  0.0558  0.0750 -0.1180
   93SAPS   H6X 9171   3.527   3.562   7.654  0.6691 -0.5973 -1.2728
   93SAPS   H6Y 9172   3.497   3.720   7.576 -0.8091 -2.2445 -1.7812
   93SAPS   C37 9173   3.638   3.727   7.751  0.1579  0.2621 -0.1827
   93SAPS   H7X 9174   3.686   3.818   7.712  1.1325  0.8702  2.2576
   93SAPS   H7Y 9175   3.725   3.673   7.794 -0.4547 -1.7444 -1.3538
   93SAPS   C38 9176   3.534   3.768   7.860  0.0038  0.4161 -0.2811
   93SAPS   H8X 9177   3.487   3.674   7.896  0.1932  0.5519  0.3349
   93SAPS   H8Y 9178   3.454   3.827   7.810 -1.3656 -1.5515 -0.4952
   93SAPS   C39 9179   3.601   3.835   7.978  0.3390 -1.0574  0.1820
   93SAPS   H9X 9180   3.630   3.938   7.950  0.3477 -1.1654 -0.2185
   93SAPS   H9Y 9181   3.693   3.779   8.005  0.6130 -1.7393 -1.9818
   93SAPS  C310 9182   3.508   3.837   8.095 -0.4486  0.6512 -0.4479
   93SAPS  H10X 9183   3.474   3.733   8.113 -0.7640  0.8127 -0.1080
   93SAPS  H10Y 9184   3.414   3.891   8.072 -0.1047  0.9320 -1.2410
   93SAPS  C311 9185   3.575   3.893   8.217  0.6305  0.5069  0.2773
   93SAPS  H11X 9186   3.600   4.000   8.197  0.0694  0.3908 -1.1229
   93SAPS  H11Y 9187   3.670   3.840   8.240  0.2449 -2.1038 -3.3374
   93SAPS  C312 9188   3.487   3.884   8.341  0.0097 -0.5570 -0.5789
   93SAPS  H12X 9189   3.481   3.777   8.368 -0.3750 -1.2090 -2.9425
   93SAPS  H12Y 9190   3.383   3.922   8.325 -0.9529 -3.5517 -2.2561
   93SAPS  C313 9191   3.545   3.960   8.461 -0.1165 -0.9823 -0.0060
   93SAPS  H13X 9192   3.637   3.914   8.503  0.8230  1.0929  0.3686
   93SAPS  H13Y 9193   3.467   3.960   8.540 -1.3216 -0.1407 -1.1570
   93SAPS  C314 9194   3.590   4.102   8.439  0.5762 -0.2453 -0.0223
   93SAPS  H14X 9195   3.507   4.151   8.383 -0.0019 -0.3084  0.7539
   93SAPS  H14Y 9196   3.682   4.102   8.378  0.6144  1.4474 -0.0160
   93SAPS  C315 9197   3.633   4.179   8.559 -0.2992 -0.2085 -0.3171
   93SAPS  H15X 9198   3.597   4.125   8.649  1.4029  2.0229  1.8473
   93SAPS  H15Y 9199   3.583   4.278   8.567 -2.6127 -1.0176 -2.9816
   93SAPS  C316 9200   3.782   4.193   8.571 -0.6195 -0.1832 -0.8272
   93SAPS  H16X 9201   3.823   4.221   8.472  1.6092 -0.9065 -0.1646
   93SAPS  H16Y 9202   3.809   4.088   8.594 -0.6280  0.3383  1.9378
   93SAPS  C317 9203   3.828   4.288   8.691 -0.0170  0.2058  0.7583
   93SAPS  H17X 9204   3.939   4.288   8.682  0.0078  2.5749  0.5633
   93SAPS  H17Y 9205   3.802   4.245   8.790  0.4459 -0.8633  0.4300
   93SAPS  C318 9206   3.792   4.430   8.668  0.2491 -0.6077  0.1776
   93SAPS  H18X 9207   3.843   4.501   8.735  1.0058 -1.3729  0.4375
   93SAPS  H18Y 9208   3.684   4.440   8.692  0.3270  2.2806 -0.4206
   93SAPS  H18Z 9209   3.792   4.459   8.561  1.1217 -2.3909 -0.3482
   94SAPS     N 9210   4.834   6.675   6.244 -0.0461 -0.4182 -0.4717
   94SAPS   HN1 9211   4.936   6.659   6.257  0.1936  0.5940 -1.0080
   94SAPS   HN2 9212   4.807   6.769   6.280 -3.4985 -1.9258  1.3877
   94SAPS   HN3 9213   4.776   6.609   6.300 -0.7846  0.6822  0.1028
   94SAPS   C12 9214   4.814   6.659   6.100 -0.2553  0.3343  0.4705
   94SAPS  H12A 9215   4.710   6.674   6.076  0.0334  1.5390 -0.0659
   94SAPS   C13 9216   4.897   6.734   5.996 -0.3492  0.6639 -0.0778
   94SAPS  O13A 9217   4.965   6.831   6.028  0.4642 -0.6997 -0.0270
   94SAPS  O13B 9218   4.885   6.711   5.871  0.3452  0.4117 -0.4199
   94SAPS   C11 9219   4.849   6.507   6.076  0.1577  0.4957 -0.2661
   94SAPS  H11A 9220   4.958   6.487   6.083  0.2276  0.2994 -1.7017
   94SAPS  H11B 9221   4.822   6.493   5.969 -1.1129  1.3671 -0.0783
   94SAPS     P 9222   4.779   6.257   6.142 -0.3998 -0.6625 -0.1696
   94SAPS   O13 9223   4.667   6.216   6.055 -0.0784 -0.4661  0.5155
   94SAPS   O14 9224   4.912   6.213   6.096  0.5119 -0.2323  0.0211
   94SAPS   O12 9225   4.772   6.416   6.159  0.5428  0.8814  0.3733
   94SAPS   O11 9226   4.749   6.202   6.291  0.9747  0.5340  0.2358
   94SAPS    C1 9227   4.628   6.230   6.363  0.0423 -0.6520 -0.5648
   94SAPS    HA 9228   4.620   6.332   6.406 -4.4449 -1.0693  0.0679
   94SAPS    HB 9229   4.538   6.209   6.300 -1.1354 -1.3228  1.2648
   94SAPS    C2 9230   4.618   6.127   6.476  0.6251  0.5902 -0.1388
   94SAPS    HS 9231   4.536   6.151   6.547  0.0148  0.0055 -0.6221
   94SAPS   O21 9232   4.739   6.111   6.550 -0.3531 -0.1938 -0.1186
   94SAPS   C21 9233   4.771   6.211   6.627  0.1029 -1.0715 -0.0980
   94SAPS   O22 9234   4.705   6.316   6.652 -0.0001 -0.0092 -0.0946
   94SAPS   C22 9235   4.919   6.197   6.664 -0.0895  0.1004  0.4947
   94SAPS   H2R 9236   4.935   6.087   6.669 -0.5302 -0.0208 -0.5516
   94SAPS   H2S 9237   4.984   6.250   6.591  2.4344 -1.6772  1.3181
   94SAPS    C3 9238   4.575   5.979   6.429  0.0772  0.8852 -0.3922
   94SAPS    HX 9239   4.632   5.942   6.341 -0.8184  0.3245 -0.7522
   94SAPS    HY 9240   4.472   5.978   6.387  0.1973  4.9474 -1.1738
   94SAPS   O31 9241   4.580   5.888   6.542  0.0840  0.4288 -0.5617
   94SAPS   C31 9242   4.696   5.823   6.555  0.2985  0.2071  0.3967
   94SAPS   O32 9243   4.792   5.839   6.477 -0.4427  0.8672 -0.5502
   94SAPS   C32 9244   4.682   5.715   6.666  0.0136 -0.4612 -0.4690
   94SAPS   H2X 9245   4.685   5.616   6.616 -1.3447 -0.1593 -1.2278
   94SAPS   H2Y 9246   4.581   5.728   6.710 -0.4679 -0.9599 -1.3837
   94SAPS   C23 9247   4.951   6.263   6.804  0.0688 -0.5696 -0.1687
   94SAPS   H3R 9248   4.872   6.233   6.876  1.1387 -0.4568  1.1091
   94SAPS   H3S 9249   4.950   6.373   6.789 -1.7967 -0.6897 -1.2234
   94SAPS   C24 9250   5.092   6.246   6.856  0.0714  0.3422 -1.1840
   94SAPS   H4R 9251   5.113   6.329   6.927  1.7490 -2.7992  2.2892
   94SAPS   H4S 9252   5.166   6.270   6.776  0.2359  0.4581 -0.9977
   94SAPS   C25 9253   5.110   6.102   6.906  0.3631 -0.2977 -1.0504
   94SAPS   H5R 9254   5.109   6.024   6.828 -0.1205 -0.9299 -0.4311
   94SAPS   C26 9255   5.118   6.070   7.033  0.2193  0.1275 -0.7077
   94SAPS   H6R 9256   5.113   5.965   7.067  0.5129  0.3111 -0.0720
   94SAPS   C27 9257   5.117   6.159   7.155  0.2719 -0.4911  0.3572
   94SAPS   H7R 9258   5.046   6.119   7.230  1.5339 -2.2929  0.6674
   94SAPS   H7S 9259   5.074   6.258   7.127 -0.0431 -0.9773 -0.9445
   94SAPS   C28 9260   5.260   6.181   7.196 -0.0213  0.2720  0.1972
   94SAPS   H8R 9261   5.325   6.206   7.111  0.1828 -0.0104  0.2673
   94SAPS   C29 9262   5.315   6.160   7.321 -0.6756 -0.1130 -0.2394
   94SAPS   H9R 9263   5.418   6.182   7.353 -1.8440  3.0956  1.7837
   94SAPS  C210 9264   5.231   6.106   7.432  0.3656 -0.1357  0.1564
   94SAPS  H10R 9265   5.287   6.032   7.492  0.2720  1.1969  1.9679
   94SAPS  H10S 9266   5.144   6.047   7.395 -0.4127  1.1426 -0.1074
   94SAPS  C211 9267   5.185   6.216   7.524 -0.6295  1.1054 -0.5840
   94SAPS  H11R 9268   5.133   6.303   7.482 -1.0492  0.4768 -1.3946
   94SAPS  C212 9269   5.187   6.208   7.657  0.6590  0.0764  0.8157
   94SAPS  H12R 9270   5.131   6.284   7.714  0.6602 -1.0300  2.3674
   94SAPS  C213 9271   5.215   6.090   7.743 -0.0169  0.4607  0.1418
   94SAPS  H13R 9272   5.277   6.016   7.688 -0.1453 -0.2996  0.9937
   94SAPS  H13S 9273   5.122   6.040   7.778  0.5653 -2.0011 -1.5743
   94SAPS  C214 9274   5.298   6.136   7.862 -0.3011 -0.1895  0.0430
   94SAPS  H14R 9275   5.253   6.118   7.961  1.1083 -1.7389  0.4533
   94SAPS  C215 9276   5.432   6.150   7.872 -0.1176  0.0215  0.4500
   94SAPS  H15R 9277   5.473   6.191   7.966 -0.4862 -2.2707  1.6959
   94SAPS  C216 9278   5.535   6.137   7.761 -0.5249  0.3964 -0.6083
   94SAPS  H16R 9279   5.482   6.109   7.667 -0.7345  0.8147 -0.6179
   94SAPS  H16S 9280   5.620   6.066   7.776  0.0117  1.5328  2.4908
   94SAPS  C217 9281   5.603   6.280   7.755  0.5227 -0.0018  1.2576
   94SAPS  H17R 9282   5.693   6.279   7.689 -0.1238 -2.6684  0.2991
   94SAPS  H17S 9283   5.650   6.304   7.853 -0.2657  2.1836  1.1593
   94SAPS  C218 9284   5.512   6.389   7.707 -0.3401  0.0319 -0.2189
   94SAPS  H18R 9285   5.443   6.416   7.790 -2.3537  0.6793 -1.9980
   94SAPS  H18S 9286   5.453   6.363   7.616 -1.1586 -0.0470  0.3215
   94SAPS  C219 9287   5.603   6.513   7.673 -0.0046 -0.0470 -0.2465
   94SAPS  H19R 9288   5.544   6.566   7.594  0.1856 -0.7198 -0.8543
   94SAPS  H19S 9289   5.698   6.492   7.620 -0.0378  0.3286 -0.4600
   94SAPS  C220 9290   5.626   6.608   7.795  0.2824  0.5363  0.9504
   94SAPS  H20R 9291   5.530   6.660   7.820  0.6577  1.8812 -0.2627
   94SAPS  H20S 9292   5.707   6.678   7.765  2.0420 -0.8291  2.2834
   94SAPS  H20T 9293   5.666   6.547   7.879 -0.3874  1.7095  2.1686
   94SAPS   C33 9294   4.798   5.724   6.768 -1.1315 -0.3427  0.4049
   94SAPS   H3X 9295   4.892   5.761   6.722 -0.0283 -3.1080  0.2337
   94SAPS   H3Y 9296   4.823   5.620   6.799  0.4065 -1.0295 -2.6974
   94SAPS   C34 9297   4.772   5.808   6.890  0.3939 -0.3376 -0.0458
   94SAPS   H4X 9298   4.665   5.826   6.914  1.0616  1.0967  2.1613
   94SAPS   H4Y 9299   4.801   5.912   6.861 -2.5683  1.0196  1.3771
   94SAPS   C35 9300   4.843   5.768   7.016 -0.1781  0.3927 -0.8476
   94SAPS   H5X 9301   4.953   5.780   7.008  0.5720 -2.6123  2.5039
   94SAPS   H5Y 9302   4.824   5.660   7.033  0.0790  0.0774 -2.4307
   94SAPS   C36 9303   4.806   5.858   7.135  0.2043  0.3440  0.1770
   94SAPS   H6X 9304   4.697   5.858   7.158 -0.2622 -1.2826 -1.6916
   94SAPS   H6Y 9305   4.848   5.958   7.114  1.0742  0.0778  0.5851
   94SAPS   C37 9306   4.875   5.833   7.267 -0.2158 -0.7079  0.4582
   94SAPS   H7X 9307   4.983   5.839   7.241 -0.4986 -1.3699 -0.9916
   94SAPS   H7Y 9308   4.856   5.730   7.303  0.5272 -0.2588  2.2122
   94SAPS   C38 9309   4.841   5.931   7.383  0.2259  0.5678  0.1885
   94SAPS   H8X 9310   4.830   6.037   7.352 -3.6247 -0.1481 -1.5344
   94SAPS   H8Y 9311   4.915   5.914   7.464 -0.5614  1.8700  1.2197
   94SAPS   C39 9312   4.713   5.890   7.464 -0.2121 -0.4952  0.1246
   94SAPS   H9X 9313   4.728   5.789   7.508  1.4886 -0.7217 -0.8912
   94SAPS   H9Y 9314   4.626   5.894   7.396  0.3093  1.9351 -0.5139
   94SAPS  C310 9315   4.674   5.989   7.575  0.0124 -0.4439 -0.0634
   94SAPS  H10X 9316   4.565   5.979   7.595  0.1818  1.8127  2.7099
   94SAPS  H10Y 9317   4.687   6.094   7.542 -2.2000 -0.0292  0.2384
   94SAPS  C311 9318   4.751   5.971   7.702 -0.4409  0.4664 -0.4604
   94SAPS  H11X 9319   4.856   5.958   7.670 -0.4464  1.7045 -1.0464
   94SAPS  H11Y 9320   4.709   5.887   7.761 -1.4656  1.1550 -0.1756
   94SAPS  C312 9321   4.735   6.089   7.790  0.3226 -0.0400  0.2267
   94SAPS  H12X 9322   4.631   6.098   7.829  0.3267 -0.2811  0.2959
   94SAPS  H12Y 9323   4.771   6.183   7.743  1.3138 -0.0458  0.9344
   94SAPS  C313 9324   4.824   6.068   7.916  0.0379  0.0380  0.1055
   94SAPS  H13X 9325   4.926   6.034   7.887 -0.9217 -2.4949 -0.6608
   94SAPS  H13Y 9326   4.778   5.977   7.963  0.0812 -1.9746 -3.3948
   94SAPS  C314 9327   4.827   6.190   8.008 -0.4632 -1.0479 -0.5358
   94SAPS  H14X 9328   4.726   6.207   8.051  0.1566  2.5322 -0.1663
   94SAPS  H14Y 9329   4.862   6.275   7.945  1.4483 -1.7479 -0.4930
   94SAPS  C315 9330   4.943   6.178   8.108 -0.3834  0.2206 -0.1792
   94SAPS  H15X 9331   5.037   6.216   8.062 -0.1548  2.3346  1.7916
   94SAPS  H15Y 9332   4.955   6.073   8.142  0.7907  0.0468 -1.0707
   94SAPS  C316 9333   4.925   6.252   8.241  0.5708 -0.2386 -0.5586
   94SAPS  H16X 9334   5.013   6.235   8.306 -0.6579 -0.3099  1.1699
   94SAPS  H16Y 9335   4.837   6.206   8.291  0.1806 -0.5879 -1.5525
   94SAPS  C317 9336   4.894   6.406   8.231 -0.7309 -0.4980 -0.3262
   94SAPS  H17X 9337   4.792   6.419   8.188 -0.5380  1.6559 -0.2006
   94SAPS  H17Y 9338   4.969   6.442   8.158 -1.7160  0.4173 -0.9148
   94SAPS  C318 9339   4.896   6.469   8.370 -0.3313 -0.5872 -0.1707
   94SAPS  H18X 9340   4.811   6.428   8.429 -2.8180  2.8785 -0.9792
   94SAPS  H18Y 9341   4.888   6.580   8.360 -2.2204 -0.8573 -2.4304
   94SAPS  H18Z 9342   4.989   6.453   8.428 -0.3108 -1.4512 -0.4369
   95SAPS     N 9343   5.890   3.677   5.897 -0.0849 -0.2668  0.3387
   95SAPS   HN1 9344   5.814   3.662   5.827 -0.2137 -0.5820  0.5464
   95SAPS   HN2 9345   5.848   3.730   5.976 -1.5561  3.2603 -2.5153
   95SAPS   HN3 9346   5.963   3.736   5.853 -1.5678  0.7615 -0.8975
   95SAPS   C12 9347   5.940   3.532   5.930  0.0065  0.0867  0.3574
   95SAPS  H12A 9348   5.875   3.486   6.003  0.2663 -1.9606 -0.6452
   95SAPS   C13 9349   5.957   3.430   5.810  0.5011 -0.8228 -0.2383
   95SAPS  O13A 9350   5.894   3.459   5.702  0.6898  0.1437  0.3443
   95SAPS  O13B 9351   6.006   3.318   5.831  0.3947  0.2421 -0.8372
   95SAPS   C11 9352   6.081   3.555   5.990 -0.3490  0.1595 -0.4779
   95SAPS  H11A 9353   6.144   3.607   5.916  2.1991 -0.5189  1.0661
   95SAPS  H11B 9354   6.126   3.456   6.013  0.2458  0.9070  1.8759
   95SAPS     P 9355   6.025   3.581   6.249 -0.2417  0.3008 -0.4500
   95SAPS   O13 9356   5.878   3.576   6.239 -0.3743  0.1060  0.4103
   95SAPS   O14 9357   6.105   3.459   6.274 -0.1185 -0.5536 -0.0346
   95SAPS   O12 9358   6.081   3.638   6.114 -0.4626  0.7535  0.0732
   95SAPS   O11 9359   6.075   3.700   6.340  0.0320 -0.2097 -0.2333
   95SAPS    C1 9360   6.211   3.716   6.396 -0.3288  0.4451  0.7411
   95SAPS    HA 9361   6.289   3.692   6.321 -1.5993  0.3361 -0.5951
   95SAPS    HB 9362   6.219   3.826   6.407 -0.6962  0.6605 -0.9025
   95SAPS    C2 9363   6.229   3.649   6.529  0.1766 -0.1871 -0.2119
   95SAPS    HS 9364   6.230   3.542   6.498  2.6098 -1.4213  3.4073
   95SAPS   O21 9365   6.120   3.679   6.613  0.7562  0.3297  0.7954
   95SAPS   C21 9366   6.100   3.598   6.711 -0.0573  0.3066  0.1139
   95SAPS   O22 9367   6.155   3.486   6.726 -0.1189 -0.1524  0.3752
   95SAPS   C22 9368   5.997   3.660   6.809 -0.0409 -0.0620  0.0773
   95SAPS   H2R 9369   6.054   3.735   6.868 -0.4198 -0.3759  0.8603
   95SAPS   H2S 9370   5.924   3.719   6.750 -0.3528 -0.1962  0.3234
   95SAPS    C3 9371   6.372   3.680   6.590 -0.1481  0.1289  0.0663
   95SAPS    HX 9372   6.408   3.782   6.568  2.7921 -1.0628 -1.1635
   95SAPS    HY 9373   6.447   3.619   6.534 -1.5492 -0.2997 -1.4234
   95SAPS   O31 9374   6.376   3.667   6.733  0.4116  0.1770  0.3448
   95SAPS   C31 9375   6.458   3.574   6.777  0.4450 -0.2431  0.0609
   95SAPS   O32 9376   6.540   3.508   6.715  0.1412  0.0833  0.2667
   95SAPS   C32 9377   6.423   3.564   6.927 -0.6978  0.4958  0.8954
   95SAPS   H2X 9378   6.332   3.502   6.941  1.1726 -2.9186 -0.8054
   95SAPS   H2Y 9379   6.404   3.666   6.966 -0.6984  1.7614 -2.1353
   95SAPS   C23 9380   5.921   3.560   6.910 -0.4314  0.1608 -0.8269
   95SAPS   H3R 9381   5.993   3.480   6.936 -1.2011 -0.3442 -0.2091
   95SAPS   H3S 9382   5.833   3.514   6.860 -1.3525  0.1993  0.6960
   95SAPS   C24 9383   5.891   3.626   7.044 -0.3425 -0.7831  0.0665
   95SAPS   H4R 9384   5.985   3.642   7.101 -1.1096 -0.4771  1.2898
   95SAPS   H4S 9385   5.833   3.552   7.104 -1.2518 -0.3556 -0.2676
   95SAPS   C25 9386   5.810   3.756   7.048 -0.0934  1.3872  0.4281
   95SAPS   H5R 9387   5.850   3.840   6.989  0.2827  0.3609 -0.8101
   95SAPS   C26 9388   5.699   3.786   7.123 -0.2219 -0.5538 -0.7287
   95SAPS   H6R 9389   5.657   3.885   7.100 -1.1082 -0.7332  0.0761
   95SAPS   C27 9390   5.614   3.707   7.225 -0.4230 -0.3647 -0.4864
   95SAPS   H7R 9391   5.683   3.630   7.266  1.9868  0.4990 -2.6480
   95SAPS   H7S 9392   5.531   3.644   7.187 -1.3157  2.1509 -3.1125
   95SAPS   C28 9393   5.561   3.798   7.335  0.3185  0.9346  0.4542
   95SAPS   H8R 9394   5.536   3.898   7.297  0.4050 -0.0473 -2.4445
   95SAPS   C29 9395   5.541   3.760   7.456  0.3993  0.3497 -0.2648
   95SAPS   H9R 9396   5.508   3.839   7.525 -1.3849 -0.4566 -0.1202
   95SAPS  C210 9397   5.577   3.626   7.511  0.3069 -0.2556 -0.7673
   95SAPS  H10R 9398   5.688   3.618   7.522  0.3023  0.3114 -0.2661
   95SAPS  H10S 9399   5.546   3.542   7.445 -0.4121 -0.7509  0.1662
   95SAPS  C211 9400   5.520   3.617   7.655  0.1006 -0.7421 -0.3128
   95SAPS  H11R 9401   5.424   3.564   7.658  0.9738 -2.5468 -1.8031
   95SAPS  C212 9402   5.568   3.660   7.769 -0.6302  0.3008 -0.9655
   95SAPS  H12R 9403   5.516   3.636   7.863  0.1024  0.5301 -0.4996
   95SAPS  C213 9404   5.698   3.731   7.786  0.1361  0.3337  0.1587
   95SAPS  H13R 9405   5.686   3.837   7.816  0.4447  0.2141  0.7073
   95SAPS  H13S 9406   5.745   3.732   7.685 -0.9135 -0.4214 -0.3540
   95SAPS  C214 9407   5.782   3.641   7.882  0.4441 -0.1098 -0.2146
   95SAPS  H14R 9408   5.754   3.664   7.986  0.3130  2.4239 -0.7443
   95SAPS  C215 9409   5.894   3.564   7.867  0.3243  0.2837  0.6895
   95SAPS  H15R 9410   5.929   3.518   7.961 -0.2157 -0.7085  0.4180
   95SAPS  C216 9411   5.971   3.540   7.739  0.4748  0.8005 -0.0186
   95SAPS  H16R 9412   6.075   3.560   7.769 -0.4032  3.2730  1.6527
   95SAPS  H16S 9413   5.947   3.620   7.666 -0.6966  1.2105  0.7773
   95SAPS  C217 9414   5.954   3.394   7.688 -0.0847  0.0826  0.0336
   95SAPS  H17R 9415   5.846   3.369   7.676  0.0053  0.3860 -1.7535
   95SAPS  H17S 9416   5.990   3.320   7.763  3.7601  2.1787  0.4761
   95SAPS  C218 9417   6.042   3.371   7.563 -0.1996  0.0700  0.3322
   95SAPS  H18R 9418   6.057   3.261   7.557 -0.9969 -0.0044 -0.4677
   95SAPS  H18S 9419   6.141   3.420   7.575 -0.4126  0.3426  1.0164
   95SAPS  C219 9420   5.977   3.422   7.431 -0.7920 -0.0038  0.7665
   95SAPS  H19R 9421   5.977   3.533   7.430  1.2727  0.0350  1.4578
   95SAPS  H19S 9422   5.871   3.391   7.417 -0.3446 -0.4823 -2.0935
   95SAPS  C220 9423   6.058   3.369   7.312 -0.7758  0.4480 -0.7444
   95SAPS  H20R 9424   6.153   3.428   7.308 -0.1626 -0.3929  0.5460
   95SAPS  H20S 9425   6.008   3.358   7.214 -1.0150 -1.9163 -0.4233
   95SAPS  H20T 9426   6.099   3.266   7.326  0.1284  0.9508  0.5069
   95SAPS   C33 9427   6.540   3.492   7.005  0.3540  0.7410  0.7697
   95SAPS   H3X 9428   6.629   3.502   6.939 -1.4906 -0.3111 -2.0772
   95SAPS   H3Y 9429   6.517   3.386   7.030 -0.9313  0.4539 -1.3274
   95SAPS   C34 9430   6.573   3.561   7.133 -0.1136 -0.2621 -0.2871
   95SAPS   H4X 9431   6.564   3.670   7.115 -1.4014 -0.0035  1.6175
   95SAPS   H4Y 9432   6.672   3.532   7.175 -0.5872  0.5360  1.4957
   95SAPS   C35 9433   6.474   3.537   7.254  0.5049 -0.2368  0.2490
   95SAPS   H5X 9434   6.469   3.427   7.266 -0.1227 -0.3253 -0.6723
   95SAPS   H5Y 9435   6.375   3.575   7.219  1.2153  0.9366 -0.5567
   95SAPS   C36 9436   6.509   3.605   7.383  0.0145 -0.5701 -0.2370
   95SAPS   H6X 9437   6.519   3.715   7.369  2.6191 -0.7904 -0.6566
   95SAPS   H6Y 9438   6.613   3.582   7.413  0.2370  0.7206  0.0298
   95SAPS   C37 9439   6.417   3.573   7.499  0.0455  0.1348  0.0348
   95SAPS   H7X 9440   6.425   3.468   7.533  0.4588  0.4044  0.7909
   95SAPS   H7Y 9441   6.311   3.592   7.471 -0.9316 -0.5631  2.9094
   95SAPS   C38 9442   6.450   3.647   7.627  0.4716 -0.8339 -0.0976
   95SAPS   H8X 9443   6.416   3.753   7.623 -1.6500 -1.2857  2.4854
   95SAPS   H8Y 9444   6.560   3.651   7.640  0.2112  0.5833  2.3319
   95SAPS   C39 9445   6.378   3.589   7.747  0.7437 -0.0271  0.2547
   95SAPS   H9X 9446   6.343   3.485   7.725  0.3663  0.0449  0.4996
   95SAPS   H9Y 9447   6.285   3.636   7.785  0.9146  0.7618 -0.2749
   95SAPS  C310 9448   6.482   3.580   7.852 -0.2330  0.0824 -0.2596
   95SAPS  H10X 9449   6.529   3.680   7.866 -1.9633  0.7546  1.1686
   95SAPS  H10Y 9450   6.560   3.507   7.822  0.6954  1.5438 -1.5900
   95SAPS  C311 9451   6.420   3.520   7.979 -0.1073  0.2255  0.1593
   95SAPS  H11X 9452   6.376   3.418   7.975 -0.0129  0.1007  1.9060
   95SAPS  H11Y 9453   6.339   3.588   8.010  0.6026  0.2006  2.1579
   95SAPS  C312 9454   6.510   3.532   8.106 -0.0885  0.2070  0.7191
   95SAPS  H12X 9455   6.580   3.616   8.087  1.8589 -1.3273  0.8647
   95SAPS  H12Y 9456   6.580   3.448   8.094 -1.7291 -0.9532 -1.5056
   95SAPS  C313 9457   6.436   3.536   8.241 -0.8977  0.3756  0.3391
   95SAPS  H13X 9458   6.356   3.461   8.225 -0.5884 -0.4785  2.4922
   95SAPS  H13Y 9459   6.387   3.635   8.247  0.1590  0.8508  1.5607
   95SAPS  C314 9460   6.518   3.502   8.361  0.4574  0.3833 -0.5423
   95SAPS  H14X 9461   6.584   3.417   8.331 -1.6447 -2.2658  1.8101
   95SAPS  H14Y 9462   6.460   3.472   8.450 -1.0253  1.3057 -1.1532
   95SAPS  C315 9463   6.615   3.626   8.384  0.0279  0.4822 -0.2673
   95SAPS  H15X 9464   6.542   3.703   8.417 -0.5521  0.9984 -2.5512
   95SAPS  H15Y 9465   6.644   3.674   8.288  0.4854  2.1765  0.6613
   95SAPS  C316 9466   6.735   3.601   8.473 -0.1194 -0.1979  0.5463
   95SAPS  H16X 9467   6.767   3.703   8.502 -2.6276  0.4510  1.3564
   95SAPS  H16Y 9468   6.823   3.551   8.427 -1.1212 -2.3951  0.8794
   95SAPS  C317 9469   6.717   3.513   8.599  0.3701  0.3730  0.8965
   95SAPS  H17X 9470   6.817   3.519   8.646  1.4717 -0.6528 -1.1809
   95SAPS  H17Y 9471   6.705   3.405   8.576  2.0085  0.2402  0.5225
   95SAPS  C318 9472   6.614   3.554   8.702 -0.1794  0.4322 -0.3974
   95SAPS  H18X 9473   6.514   3.554   8.655 -0.2864 -0.2190 -0.1876
   95SAPS  H18Y 9474   6.633   3.656   8.740  0.2621 -0.8041  3.0672
   95SAPS  H18Z 9475   6.623   3.489   8.792 -0.0554 -0.4499 -1.0251
   96SAPS     N 9476   0.261   6.240   6.196 -0.1044  0.6199  0.0517
   96SAPS   HN1 9477   0.250   6.160   6.262 -2.7344 -0.2127 -1.2855
   96SAPS   HN2 9478   0.357   6.246   6.156 -0.3506 -0.0002 -0.6468
   96SAPS   HN3 9479   0.240   6.328   6.247  0.3526  0.5461  0.3784
   96SAPS   C12 9480   0.165   6.197   6.088  0.2609 -0.4175  0.1239
   96SAPS  H12A 9481   0.162   6.278   6.017  0.8052  0.3325  0.9464
   96SAPS   C13 9482   0.205   6.066   6.008  0.5794  0.3171 -0.2370
   96SAPS  O13A 9483   0.304   6.003   6.047 -0.4171 -0.1207  0.3898
   96SAPS  O13B 9484   0.115   6.021   5.931 -0.4162 -0.0776 -0.2544
   96SAPS   C11 9485   0.026   6.185   6.154 -0.0942 -0.2604  0.3424
   96SAPS  H11A 9486   0.024   6.101   6.226  0.3115 -0.6617 -0.1108
   96SAPS  H11B 9487  -0.046   6.163   6.072  0.6768  0.2809 -0.4984
   96SAPS     P 9488  -0.138   6.313   6.304  0.1057  0.1650  0.0630
   96SAPS   O13 9489  -0.206   6.437   6.282  0.4273  0.2327  0.2943
   96SAPS   O14 9490  -0.217   6.187   6.282  0.2992  0.3542  0.1586
   96SAPS   O12 9491  -0.014   6.309   6.219 -0.2608 -0.5707  0.3008
   96SAPS   O11 9492  -0.083   6.323   6.449  0.0147  0.6059  0.4735
   96SAPS    C1 9493   0.025   6.233   6.494 -0.0820  0.0910  0.6545
   96SAPS    HA 9494   0.063   6.159   6.420  0.5963  0.6536  0.4327
   96SAPS    HB 9495   0.122   6.282   6.517  0.5426 -1.1024  0.6389
   96SAPS    C2 9496  -0.024   6.146   6.623 -0.6062 -0.3508  0.6506
   96SAPS    HS 9497  -0.117   6.089   6.600 -1.3555  0.2780  2.0137
   96SAPS   O21 9498  -0.028   6.233   6.736  0.3936  0.0086 -0.4546
   96SAPS   C21 9499  -0.146   6.223   6.805  0.7983  0.0050  0.5589
   96SAPS   O22 9500  -0.234   6.139   6.780 -0.0425 -0.3142 -0.2422
   96SAPS   C22 9501  -0.149   6.329   6.917  0.0628 -0.0219 -0.4823
   96SAPS   H2R 9502  -0.111   6.423   6.871  0.8230 -1.2438 -2.5154
   96SAPS   H2S 9503  -0.255   6.338   6.950  0.3636 -1.6291  1.1240
   96SAPS    C3 9504   0.081   6.043   6.654  0.5581 -0.2643  0.1171
   96SAPS    HX 9505   0.155   6.110   6.702 -0.2169  0.9535 -0.3384
   96SAPS    HY 9506   0.123   6.001   6.560  1.2010  1.2780 -0.3180
   96SAPS   O31 9507   0.041   5.949   6.753  0.0715 -0.1101  0.2020
   96SAPS   C31 9508  -0.026   5.847   6.696  1.1673  0.2076 -0.0281
   96SAPS   O32 9509  -0.063   5.837   6.580  0.5091  0.0200  0.7006
   96SAPS   C32 9510  -0.050   5.742   6.798  0.2934 -0.8380  0.6127
   96SAPS   H2X 9511   0.031   5.733   6.874  1.5223  1.2977 -0.3707
   96SAPS   H2Y 9512  -0.058   5.648   6.739 -1.7984 -2.2018  2.8769
   96SAPS   C23 9513  -0.072   6.275   7.042 -0.1531 -0.1898 -0.1867
   96SAPS   H3R 9514   0.039   6.277   7.029 -0.3007  0.5775 -1.4978
   96SAPS   H3S 9515  -0.105   6.170   7.058  0.3180 -0.3774 -0.4002
   96SAPS   C24 9516  -0.104   6.361   7.164 -0.2933 -0.1262 -0.6509
   96SAPS   H4R 9517  -0.208   6.335   7.191 -0.4339  1.0567  0.0166
   96SAPS   H4S 9518  -0.095   6.470   7.145  1.0367  0.8234  4.1437
   96SAPS   C25 9519  -0.022   6.328   7.284 -0.5862  0.9950 -0.6124
   96SAPS   H5R 9520   0.053   6.249   7.279 -0.7618  0.8211 -0.5150
   96SAPS   C26 9521  -0.048   6.380   7.398 -0.6026  0.6499 -0.4899
   96SAPS   H6R 9522   0.027   6.361   7.476 -0.0426  1.5466 -0.8019
   96SAPS   C27 9523  -0.164   6.482   7.424  0.0569 -0.5449  0.0411
   96SAPS   H7R 9524  -0.188   6.548   7.338 -0.5619  0.4651  0.9669
   96SAPS   H7S 9525  -0.139   6.561   7.498  0.2300 -0.0975 -0.4898
   96SAPS   C28 9526  -0.297   6.420   7.463 -0.0784  0.2242 -0.6886
   96SAPS   H8R 9527  -0.294   6.364   7.557  2.3614  1.9540  0.3823
   96SAPS   C29 9528  -0.406   6.421   7.392 -0.5965  0.7485  0.3774
   96SAPS   H9R 9529  -0.498   6.378   7.435 -0.7853  0.8128  0.0454
   96SAPS  C210 9530  -0.437   6.482   7.259 -0.5353  0.2143 -0.9578
   96SAPS  H10R 9531  -0.480   6.399   7.199 -2.0097 -0.2651  0.6844
   96SAPS  H10S 9532  -0.345   6.504   7.200 -0.5335  0.2705 -0.9345
   96SAPS  C211 9533  -0.544   6.592   7.252 -0.4362 -0.1276  0.7018
   96SAPS  H11R 9534  -0.564   6.645   7.347  2.9705  0.2428  1.3416
   96SAPS  C212 9535  -0.623   6.622   7.153 -0.0234  0.0841  0.2403
   96SAPS  H12R 9536  -0.697   6.703   7.166  0.5919  0.5947  0.6182
   96SAPS  C213 9537  -0.617   6.559   7.018 -0.6917  0.7803  0.1243
   96SAPS  H13R 9538  -0.709   6.566   6.956 -2.0147 -0.6379  1.8242
   96SAPS  H13S 9539  -0.618   6.450   7.038  0.6160  0.7037 -0.1648
   96SAPS  C214 9540  -0.488   6.584   6.944 -0.1566  0.1793 -0.7252
   96SAPS  H14R 9541  -0.410   6.645   6.991 -1.2285  1.7456 -0.9107
   96SAPS  C215 9542  -0.476   6.554   6.811 -0.7605 -0.4625 -0.0237
   96SAPS  H15R 9543  -0.381   6.577   6.760 -0.2755 -0.6743  0.7618
   96SAPS  C216 9544  -0.579   6.489   6.718 -0.2959 -0.2835 -0.0826
   96SAPS  H16R 9545  -0.673   6.458   6.767  0.0792  0.3349  1.0779
   96SAPS  H16S 9546  -0.536   6.398   6.671  0.3033  0.3980 -0.8907
   96SAPS  C217 9547  -0.621   6.583   6.605 -0.2618 -0.2152 -0.7030
   96SAPS  H17R 9548  -0.537   6.599   6.534 -0.9415  1.6032 -1.1392
   96SAPS  H17S 9549  -0.645   6.685   6.643  1.3112  0.7278 -2.1441
   96SAPS  C218 9550  -0.741   6.525   6.518 -0.0992 -0.8981  1.0435
   96SAPS  H18R 9551  -0.724   6.424   6.477  0.0878 -1.2395  1.9424
   96SAPS  H18S 9552  -0.737   6.585   6.424 -1.3678 -1.9157  0.3151
   96SAPS  C219 9553  -0.885   6.545   6.554 -0.3413 -0.0521  0.6561
   96SAPS  H19R 9554  -0.953   6.553   6.466  0.2344  2.3782  0.3438
   96SAPS  H19S 9555  -0.884   6.637   6.616 -2.9691 -0.6118  1.6405
   96SAPS  C220 9556  -0.947   6.439   6.648  0.1749  0.7123 -0.4266
   96SAPS  H20R 9557  -0.936   6.334   6.611 -0.8691 -0.4009  2.1989
   96SAPS  H20S 9558  -1.054   6.467   6.655  0.8682  3.5973 -0.1007
   96SAPS  H20T 9559  -0.905   6.439   6.751  0.0752  1.5947 -0.3799
   96SAPS   C33 9560  -0.183   5.758   6.876 -0.5116  0.6890 -0.8421
   96SAPS   H3X 9561  -0.207   5.655   6.909  0.1255  0.3985 -1.2621
   96SAPS   H3Y 9562  -0.257   5.785   6.798 -1.2425 -0.2986 -0.5052
   96SAPS   C34 9563  -0.163   5.860   6.989  0.1744  0.4241  0.0447
   96SAPS   H4X 9564  -0.192   5.963   6.958 -0.5142  0.1226 -0.3343
   96SAPS   H4Y 9565  -0.060   5.854   7.029  0.5934  0.4729 -1.0045
   96SAPS   C35 9566  -0.261   5.820   7.104 -1.2614  0.0880  0.1023
   96SAPS   H5X 9567  -0.230   5.723   7.148  0.7171  0.7780  0.3194
   96SAPS   H5Y 9568  -0.367   5.810   7.072 -1.2492 -1.4820  0.4423
   96SAPS   C36 9569  -0.258   5.930   7.214 -0.9997 -0.6325  0.1870
   96SAPS   H6X 9570  -0.270   6.026   7.160  1.5550  1.6048  3.2143
   96SAPS   H6Y 9571  -0.154   5.936   7.253 -1.1668  1.2200  0.3969
   96SAPS   C37 9572  -0.358   5.899   7.324  0.0804 -0.4348  0.2097
   96SAPS   H7X 9573  -0.335   5.802   7.372 -0.6534 -1.1607 -0.8695
   96SAPS   H7Y 9574  -0.460   5.889   7.280  0.0325  1.9575 -0.3675
   96SAPS   C38 9575  -0.354   6.004   7.433 -0.1474  0.4901  0.6073
   96SAPS   H8X 9576  -0.384   6.104   7.394 -1.5036 -0.5168 -1.1254
   96SAPS   H8Y 9577  -0.251   6.005   7.473  0.3732  1.1009 -0.6757
   96SAPS   C39 9578  -0.439   5.969   7.558 -0.7156  0.2213 -1.1331
   96SAPS   H9X 9579  -0.474   5.864   7.558  1.7733 -0.7102  0.3947
   96SAPS   H9Y 9580  -0.541   6.013   7.560 -2.0370 -2.6450  1.2995
   96SAPS  C310 9581  -0.359   6.001   7.683  0.4568  0.3220  0.3463
   96SAPS  H10X 9582  -0.359   6.112   7.685  1.6941  0.3889 -1.4294
   96SAPS  H10Y 9583  -0.252   5.973   7.672  1.2377  3.3571 -0.6405
   96SAPS  C311 9584  -0.421   5.926   7.809  0.7369  0.2439  0.7933
   96SAPS  H11X 9585  -0.427   5.820   7.779 -0.2528  0.3973  0.4188
   96SAPS  H11Y 9586  -0.522   5.972   7.822  1.1685  1.4400  0.0207
   96SAPS  C312 9587  -0.334   5.943   7.930 -0.3105 -0.7598 -0.0666
   96SAPS  H12X 9588  -0.288   6.044   7.924 -0.5579 -0.7031 -1.1932
   96SAPS  H12Y 9589  -0.256   5.866   7.946 -0.1126 -0.4165  0.6838
   96SAPS  C313 9590  -0.411   5.938   8.063  1.0466  0.6137  0.5855
   96SAPS  H13X 9591  -0.487   5.857   8.053  2.6593 -0.7608 -1.2090
   96SAPS  H13Y 9592  -0.469   6.032   8.065  0.5946  0.4728 -1.9340
   96SAPS  C314 9593  -0.337   5.931   8.199 -0.0338  0.2025  0.8725
   96SAPS  H14X 9594  -0.288   6.031   8.193 -0.0734  0.1590 -0.5451
   96SAPS  H14Y 9595  -0.265   5.847   8.197  0.2785  0.4768  0.0861
   96SAPS  C315 9596  -0.428   5.913   8.317 -0.1125  0.2862  0.3270
   96SAPS  H15X 9597  -0.356   5.912   8.402 -1.5197  2.0691  1.6179
   96SAPS  H15Y 9598  -0.475   5.814   8.300  0.5496  0.2290 -1.3630
   96SAPS  C316 9599  -0.534   6.024   8.345  0.1926 -0.0021  0.4259
   96SAPS  H16X 9600  -0.499   6.125   8.313  0.7528 -0.0360  0.9146
   96SAPS  H16Y 9601  -0.526   6.029   8.456  0.4417  0.8013  0.3813
   96SAPS  C317 9602  -0.678   5.984   8.296 -0.7231  0.0507 -0.0411
   96SAPS  H17X 9603  -0.698   5.895   8.360 -0.9127 -0.1343 -0.3552
   96SAPS  H17Y 9604  -0.681   5.951   8.190  0.1880 -0.9384  0.2154
   96SAPS  C318 9605  -0.783   6.093   8.320  0.4220 -0.5548 -0.5164
   96SAPS  H18X 9606  -0.887   6.055   8.315 -0.8908  2.8074 -1.5214
   96SAPS  H18Y 9607  -0.771   6.185   8.260 -0.6693 -0.0689 -0.0175
   96SAPS  H18Z 9608  -0.776   6.119   8.428  1.2048  2.4022 -1.1967
   97SAPS     N 9609   1.826   5.089   6.126  0.2497  0.1780 -0.4023
   97SAPS   HN1 9610   1.825   4.986   6.110 -1.5177  0.1547 -0.3969
   97SAPS   HN2 9611   1.915   5.130   6.092  0.1014  0.2990 -0.6500
   97SAPS   HN3 9612   1.829   5.096   6.230  1.3037  1.9224 -0.5256
   97SAPS   C12 9613   1.709   5.149   6.053  0.0682 -0.1819  0.3272
   97SAPS  H12A 9614   1.721   5.256   6.047 -1.2631 -0.1103 -2.4109
   97SAPS   C13 9615   1.697   5.109   5.907  0.3533 -0.0448 -1.0881
   97SAPS  O13A 9616   1.789   5.042   5.855  0.4192  1.1006 -0.0051
   97SAPS  O13B 9617   1.606   5.158   5.835  0.1576 -0.5545 -0.3346
   97SAPS   C11 9618   1.571   5.112   6.122 -0.0162 -0.0058 -0.2604
   97SAPS  H11A 9619   1.556   5.004   6.104  1.8202 -0.3290 -0.0891
   97SAPS  H11B 9620   1.490   5.173   6.076 -1.5273 -1.6016  0.2242
   97SAPS     P 9621   1.438   5.130   6.346  0.1736 -0.1028  0.1191
   97SAPS   O13 9622   1.354   5.241   6.305 -0.2652 -0.3209 -0.1377
   97SAPS   O14 9623   1.377   4.992   6.333  0.9681  0.1829  0.2673
   97SAPS   O12 9624   1.575   5.137   6.260  0.2936 -0.3009  0.0273
   97SAPS   O11 9625   1.473   5.151   6.500  0.1052  0.1681 -0.2926
   97SAPS    C1 9626   1.494   5.036   6.588 -0.0859 -0.8341 -0.2625
   97SAPS    HA 9627   1.403   4.972   6.586 -0.4412 -0.3534  0.2063
   97SAPS    HB 9628   1.572   4.965   6.553 -0.2345 -0.6815 -0.9200
   97SAPS    C2 9629   1.521   5.075   6.742  1.2239  0.1907  0.8419
   97SAPS    HS 9630   1.517   4.987   6.809  1.4755  0.0332  0.6521
   97SAPS   O21 9631   1.423   5.167   6.783  0.3312 -0.3218 -0.4025
   97SAPS   C21 9632   1.301   5.114   6.822 -0.2755 -0.3832  0.5848
   97SAPS   O22 9633   1.254   5.000   6.799  0.1934 -0.0855  0.1657
   97SAPS   C22 9634   1.222   5.226   6.892 -0.7696 -0.6319 -0.5281
   97SAPS   H2R 9635   1.291   5.310   6.916 -1.9184  0.1937 -0.0747
   97SAPS   H2S 9636   1.155   5.270   6.816  0.4186  0.4824 -0.9647
   97SAPS    C3 9637   1.664   5.141   6.755 -0.2000  0.3820 -0.3450
   97SAPS    HX 9638   1.659   5.248   6.728  3.2567  1.2015  1.7128
   97SAPS    HY 9639   1.724   5.094   6.673  0.8882  0.3730  0.4384
   97SAPS   O31 9640   1.725   5.124   6.884  0.3437 -0.1503  0.5069
   97SAPS   C31 9641   1.686   5.207   6.976  0.2842 -0.0740 -0.0400
   97SAPS   O32 9642   1.630   5.315   6.963 -0.2021 -0.4961 -0.2152
   97SAPS   C32 9643   1.721   5.142   7.107 -0.1027 -0.2784 -0.4116
   97SAPS   H2X 9644   1.807   5.199   7.148 -0.1221 -0.4169 -0.1819
   97SAPS   H2Y 9645   1.766   5.042   7.089  0.6121  0.1669 -1.1791
   97SAPS   C23 9646   1.146   5.166   7.017 -0.1602  0.3130  0.5337
   97SAPS   H3R 9647   1.216   5.161   7.103  1.3885  1.2409 -0.6242
   97SAPS   H3S 9648   1.104   5.064   7.005 -0.3117  0.5065 -0.7113
   97SAPS   C24 9649   1.012   5.240   7.039  0.5795 -0.2671  0.8891
   97SAPS   H4R 9650   0.951   5.202   6.955  0.2031  1.6225  0.2412
   97SAPS   H4S 9651   1.034   5.348   7.022 -0.1784  0.3431  3.3808
   97SAPS   C25 9652   0.944   5.209   7.173 -0.0459 -0.8918  0.2165
   97SAPS   H5R 9653   0.868   5.130   7.175 -1.2107  0.1987  2.1790
   97SAPS   C26 9654   0.967   5.274   7.291 -0.1345 -0.2003 -0.6122
   97SAPS   H6R 9655   0.890   5.261   7.369  1.1205  0.1231  0.7098
   97SAPS   C27 9656   1.075   5.380   7.321 -0.3344  0.4587  0.7385
   97SAPS   H7R 9657   1.137   5.402   7.231  0.5955 -0.9052  1.0264
   97SAPS   H7S 9658   1.150   5.334   7.388  0.1497 -2.0206 -1.3249
   97SAPS   C28 9659   1.026   5.514   7.376  0.1859 -0.1515  0.3979
   97SAPS   H8R 9660   1.058   5.598   7.313 -1.0394 -0.5363 -0.7986
   97SAPS   C29 9661   0.971   5.527   7.501 -0.3332 -0.4164  0.1633
   97SAPS   H9R 9662   0.947   5.630   7.531 -1.2993 -0.5603 -0.0918
   97SAPS  C210 9663   0.947   5.422   7.605  0.0639  0.0649  0.1041
   97SAPS  H10R 9664   0.977   5.452   7.707 -2.2349 -1.4933  1.3155
   97SAPS  H10S 9665   1.014   5.335   7.587  1.0148  0.7751  0.1636
   97SAPS  C211 9666   0.792   5.403   7.613 -0.0118  0.1998  0.3960
   97SAPS  H11R 9667   0.732   5.428   7.525 -1.3533 -1.6231  0.7309
   97SAPS  C212 9668   0.722   5.366   7.726 -0.5155 -0.5836  0.3703
   97SAPS  H12R 9669   0.613   5.359   7.709 -0.3067 -1.9117 -0.5764
   97SAPS  C213 9670   0.773   5.326   7.860 -0.8821 -0.0489  0.0171
   97SAPS  H13R 9671   0.863   5.260   7.854 -1.3679 -0.6068 -1.5202
   97SAPS  H13S 9672   0.694   5.260   7.902 -3.3636  1.5880 -1.7757
   97SAPS  C214 9673   0.791   5.431   7.961 -0.3034  0.3534 -0.6149
   97SAPS  H14R 9674   0.856   5.516   7.935  1.0742  0.5152  2.8681
   97SAPS  C215 9675   0.753   5.438   8.086  0.1735 -0.1026 -0.3820
   97SAPS  H15R 9676   0.789   5.524   8.145 -0.0972 -1.3940  1.7589
   97SAPS  C216 9677   0.672   5.344   8.166 -0.1610  1.0468  0.4566
   97SAPS  H16R 9678   0.651   5.247   8.115  0.7365  0.7875  0.5757
   97SAPS  H16S 9679   0.569   5.385   8.177 -1.3698 -1.8824  1.0948
   97SAPS  C217 9680   0.734   5.324   8.305 -0.4606  0.2382  0.1944
   97SAPS  H17R 9681   0.675   5.240   8.347 -0.0246 -1.1925 -1.9173
   97SAPS  H17S 9682   0.733   5.416   8.368 -0.3494 -1.3092  2.5561
   97SAPS  C218 9683   0.873   5.255   8.294  0.0853 -0.2228  0.1521
   97SAPS  H18R 9684   0.940   5.319   8.232  0.6638 -0.0111  0.9746
   97SAPS  H18S 9685   0.862   5.155   8.246  4.0333  0.0054 -1.6854
   97SAPS  C219 9686   0.948   5.220   8.427  0.4729 -0.0968 -0.4190
   97SAPS  H19R 9687   0.961   5.313   8.486  0.8350 -0.1291 -0.4485
   97SAPS  H19S 9688   1.048   5.176   8.407  0.6789  1.3258 -2.8726
   97SAPS  C220 9689   0.880   5.118   8.518  1.1134  0.4633  0.1324
   97SAPS  H20R 9690   0.933   5.083   8.610 -1.2174  0.2634  1.4701
   97SAPS  H20S 9691   0.860   5.024   8.461 -0.7077  0.9093 -0.0126
   97SAPS  H20T 9692   0.782   5.157   8.553  1.0892  1.0314 -0.5440
   97SAPS   C33 9693   1.596   5.147   7.197  0.7791  0.1056 -0.6901
   97SAPS   H3X 9694   1.523   5.077   7.151 -0.4599  0.3717  0.7669
   97SAPS   H3Y 9695   1.546   5.246   7.205 -1.3502 -0.9952  0.3436
   97SAPS   C34 9696   1.630   5.089   7.335  0.1396 -0.2381  0.3468
   97SAPS   H4X 9697   1.712   5.143   7.386  0.4076  0.6217 -0.9372
   97SAPS   H4Y 9698   1.665   4.984   7.321  2.1159  0.2132  1.5308
   97SAPS   C35 9699   1.503   5.082   7.431 -0.0825  0.3843 -0.3503
   97SAPS   H5X 9700   1.521   4.994   7.496 -0.9229  0.0527 -0.5585
   97SAPS   H5Y 9701   1.407   5.056   7.381 -1.1173 -1.4057  2.3347
   97SAPS   C36 9702   1.484   5.218   7.505 -0.6633 -0.4293  0.5855
   97SAPS   H6X 9703   1.473   5.305   7.436 -0.2129  0.1618  1.2566
   97SAPS   H6Y 9704   1.571   5.236   7.571  0.8431  0.0650 -1.4352
   97SAPS   C37 9705   1.354   5.210   7.592  0.3500  0.4404  0.3886
   97SAPS   H7X 9706   1.269   5.177   7.528  0.0838  0.2257  0.8502
   97SAPS   H7Y 9707   1.332   5.315   7.621 -0.1886  0.5693 -0.4481
   97SAPS   C38 9708   1.369   5.109   7.705 -0.3191  0.2103 -0.8915
   97SAPS   H8X 9709   1.448   5.144   7.774  0.1682  0.3848 -1.5237
   97SAPS   H8Y 9710   1.403   5.010   7.667  1.9612  0.0163  1.4083
   97SAPS   C39 9711   1.233   5.106   7.780  0.8872  0.5337 -0.1385
   97SAPS   H9X 9712   1.175   5.033   7.720  1.0609  1.4522 -1.4851
   97SAPS   H9Y 9713   1.169   5.197   7.783  0.6766  0.3537  1.2581
   97SAPS  C310 9714   1.257   5.048   7.917  0.2138 -0.3567 -0.3393
   97SAPS  H10X 9715   1.344   5.105   7.955 -0.8014  0.7615  0.3738
   97SAPS  H10Y 9716   1.295   4.944   7.906 -0.3458 -0.6134  0.0903
   97SAPS  C311 9717   1.139   5.055   8.015 -0.3509 -0.1689 -0.4496
   97SAPS  H11X 9718   1.057   4.994   7.973 -0.6304  0.0325 -0.2020
   97SAPS  H11Y 9719   1.114   5.163   8.018  2.6782  0.6316 -0.0051
   97SAPS  C312 9720   1.175   5.018   8.153 -0.1429  0.6395 -0.7475
   97SAPS  H12X 9721   1.085   5.024   8.218  0.0902 -0.2755 -0.3151
   97SAPS  H12Y 9722   1.254   5.085   8.194 -0.6444 -0.2496  1.8615
   97SAPS  C313 9723   1.220   4.877   8.163  0.6777  0.3597  1.1595
   97SAPS  H13X 9724   1.315   4.868   8.106 -0.7230  1.3867 -1.5259
   97SAPS  H13Y 9725   1.139   4.822   8.109  0.5580  2.1521 -0.5957
   97SAPS  C314 9726   1.242   4.826   8.304  0.5608 -0.2366  0.1429
   97SAPS  H14X 9727   1.330   4.873   8.353  1.4879 -1.5366 -0.2408
   97SAPS  H14Y 9728   1.285   4.724   8.307  0.7424 -0.2330 -1.4737
   97SAPS  C315 9729   1.118   4.839   8.397  0.4940  0.0505  0.7259
   97SAPS  H15X 9730   1.033   4.775   8.368  0.0123  0.6331  0.8218
   97SAPS  H15Y 9731   1.063   4.935   8.391 -0.7664 -0.6714  0.5332
   97SAPS  C316 9732   1.151   4.828   8.543  0.3233  0.1642 -0.1414
   97SAPS  H16X 9733   1.059   4.805   8.601  1.1935  1.9153  2.0655
   97SAPS  H16Y 9734   1.194   4.922   8.584 -0.5435  0.8223 -0.7020
   97SAPS  C317 9735   1.259   4.726   8.584  1.7486 -0.6310 -0.3554
   97SAPS  H17X 9736   1.363   4.763   8.574  2.2246 -1.8282  0.0639
   97SAPS  H17Y 9737   1.243   4.641   8.514 -0.1185 -2.3272  1.9792
   97SAPS  C318 9738   1.238   4.677   8.726  0.1010  0.6203 -0.5313
   97SAPS  H18X 9739   1.316   4.610   8.768 -1.8985 -0.6216  1.4151
   97SAPS  H18Y 9740   1.141   4.625   8.741 -0.1930  0.9604 -1.2082
   97SAPS  H18Z 9741   1.242   4.768   8.790 -1.3217  0.8730 -0.7753
   98SAPS     N 9742   0.367   5.781   5.921 -0.0436  0.5082 -0.0449
   98SAPS   HN1 9743   0.332   5.855   5.985  0.0523  0.7830 -0.3068
   98SAPS   HN2 9744   0.433   5.819   5.850  0.0841 -0.9013 -0.7294
   98SAPS   HN3 9745   0.280   5.745   5.875  0.5904 -2.5420  0.8822
   98SAPS   C12 9746   0.425   5.672   5.992  0.1387 -0.1227  0.7495
   98SAPS  H12A 9747   0.385   5.586   5.940 -2.2273  0.7462  0.9933
   98SAPS   C13 9748   0.584   5.658   6.009 -0.5529  0.3441 -0.2653
   98SAPS  O13A 9749   0.640   5.773   6.009  0.4037 -0.3020 -0.2477
   98SAPS  O13B 9750   0.633   5.568   6.081 -0.6078 -0.1203  0.6703
   98SAPS   C11 9751   0.361   5.660   6.140 -0.3786 -0.1479  0.4831
   98SAPS  H11A 9752   0.412   5.731   6.208 -1.4109 -0.0986  1.2249
   98SAPS  H11B 9753   0.387   5.558   6.175  1.1241 -0.1267 -0.4734
   98SAPS     P 9754   0.112   5.579   6.154  0.1519 -0.6469 -0.3355
   98SAPS   O13 9755  -0.021   5.643   6.178  0.4988 -0.6332  0.6747
   98SAPS   O14 9756   0.128   5.489   6.043 -0.0088 -0.1640  0.1679
   98SAPS   O12 9757   0.222   5.692   6.145  0.2383 -0.4982 -0.3537
   98SAPS   O11 9758   0.142   5.494   6.277 -0.0969  0.4667  0.0299
   98SAPS    C1 9759   0.156   5.541   6.408  0.0976  0.7024  0.5848
   98SAPS    HA 9760   0.233   5.620   6.413 -0.2118  1.0096  0.5209
   98SAPS    HB 9761   0.063   5.589   6.444  0.7392  3.5692 -1.2784
   98SAPS    C2 9762   0.206   5.428   6.494 -0.3849  0.3020  0.2465
   98SAPS    HS 9763   0.145   5.335   6.486 -0.5373  0.2275  1.9105
   98SAPS   O21 9764   0.199   5.470   6.630 -0.1906 -0.5752  0.6444
   98SAPS   C21 9765   0.203   5.385   6.718 -0.1144 -0.1505  0.4198
   98SAPS   O22 9766   0.218   5.263   6.701 -0.6277 -0.6529  0.5141
   98SAPS   C22 9767   0.170   5.449   6.855 -0.8730 -0.1265  0.4188
   98SAPS   H2R 9768   0.231   5.541   6.857 -1.1322  0.1438 -1.7654
   98SAPS   H2S 9769   0.063   5.478   6.850 -0.9332 -0.3159  0.5853
   98SAPS    C3 9770   0.358   5.384   6.459  0.3413 -0.3756 -0.5929
   98SAPS    HX 9771   0.348   5.334   6.360  0.7974 -3.2978  0.7478
   98SAPS    HY 9772   0.393   5.303   6.526 -0.0538 -0.4168 -0.4283
   98SAPS   O31 9773   0.443   5.504   6.449 -0.2019  0.1376  0.3624
   98SAPS   C31 9774   0.486   5.540   6.572  0.3994  0.5364  0.2598
   98SAPS   O32 9775   0.484   5.466   6.670  0.3987  0.5271 -0.8425
   98SAPS   C32 9776   0.530   5.686   6.563  0.4579  0.9719 -0.2483
   98SAPS   H2X 9777   0.463   5.737   6.490 -1.7264 -0.3896  0.6994
   98SAPS   H2Y 9778   0.626   5.692   6.508  0.0207 -0.8086 -1.3004
   98SAPS   C23 9779   0.213   5.362   6.973  0.2868  0.2077  0.2485
   98SAPS   H3R 9780   0.323   5.350   6.979  0.1793 -0.0505  2.5062
   98SAPS   H3S 9781   0.167   5.261   6.975 -0.3321  0.4201 -1.5591
   98SAPS   C24 9782   0.177   5.429   7.107  0.3705  0.1856  0.0324
   98SAPS   H4R 9783   0.208   5.536   7.102  0.6184  0.1462  0.6646
   98SAPS   H4S 9784   0.237   5.374   7.182  1.4889 -0.7513 -1.4828
   98SAPS   C25 9785   0.028   5.423   7.119  0.1398  0.2137 -0.4397
   98SAPS   H5R 9786  -0.025   5.396   7.027 -1.2326  4.0051 -0.9413
   98SAPS   C26 9787  -0.038   5.476   7.222  0.1085 -0.9663  0.3666
   98SAPS   H6R 9788  -0.148   5.474   7.218  0.0768 -0.7069  0.9462
   98SAPS   C27 9789   0.029   5.546   7.342 -0.1932 -0.0165 -0.6996
   98SAPS   H7R 9790   0.117   5.603   7.305 -0.5057  1.9487  1.3527
   98SAPS   H7S 9791   0.060   5.474   7.422 -2.0901 -1.8671 -1.5333
   98SAPS   C28 9792  -0.058   5.650   7.412  0.3172 -0.0690  0.9857
   98SAPS   H8R 9793  -0.137   5.694   7.349 -0.9584 -0.2857  2.3828
   98SAPS   C29 9794  -0.061   5.681   7.541 -0.3415 -0.3656 -0.0394
   98SAPS   H9R 9795  -0.137   5.755   7.570 -0.6039  0.0626 -1.7188
   98SAPS  C210 9796   0.027   5.617   7.651  1.0940  0.4267 -0.3637
   98SAPS  H10R 9797   0.069   5.699   7.713  0.3307  1.2677 -0.9421
   98SAPS  H10S 9798   0.122   5.573   7.613  0.2300 -1.4246 -0.4970
   98SAPS  C211 9799  -0.046   5.508   7.721  0.1498  0.1706 -0.3083
   98SAPS  H11R 9800  -0.074   5.418   7.664  0.4639 -0.0517 -0.1174
   98SAPS  C212 9801  -0.088   5.508   7.847 -0.5759  0.3203  0.6790
   98SAPS  H12R 9802  -0.132   5.413   7.881  0.1768 -0.9209 -1.5759
   98SAPS  C213 9803  -0.072   5.615   7.944  0.6821 -0.5967  0.1815
   98SAPS  H13R 9804  -0.170   5.659   7.974  1.0277  1.9001 -2.0157
   98SAPS  H13S 9805  -0.020   5.706   7.908  0.4793 -0.6510 -0.2606
   98SAPS  C214 9806  -0.002   5.564   8.070 -0.6168  0.1231  0.1203
   98SAPS  H14R 9807   0.107   5.563   8.062 -0.6277  2.1285 -1.0501
   98SAPS  C215 9808  -0.054   5.509   8.181 -0.5603  0.3606 -0.6948
   98SAPS  H15R 9809   0.008   5.506   8.272 -1.9188  1.3444  0.3036
   98SAPS  C216 9810  -0.200   5.480   8.217  0.6921 -0.2169  0.2043
   98SAPS  H16R 9811  -0.224   5.385   8.164  0.2246  0.2919 -0.5166
   98SAPS  H16S 9812  -0.271   5.553   8.173 -0.0067 -1.0756 -0.1191
   98SAPS  C217 9813  -0.242   5.464   8.365  0.1313 -0.4335 -0.5840
   98SAPS  H17R 9814  -0.167   5.402   8.419 -0.5150 -0.1484  0.6813
   98SAPS  H17S 9815  -0.338   5.409   8.372 -0.7045  1.0354 -0.1708
   98SAPS  C218 9816  -0.263   5.603   8.436 -0.4799  0.7078 -1.0408
   98SAPS  H18R 9817  -0.296   5.571   8.537 -2.4836  1.2739 -1.4722
   98SAPS  H18S 9818  -0.342   5.653   8.377  0.3981  0.5982 -2.3433
   98SAPS  C219 9819  -0.140   5.686   8.452 -0.3126 -0.2033  0.0210
   98SAPS  H19R 9820  -0.174   5.779   8.502 -0.7835 -1.2005  1.6709
   98SAPS  H19S 9821  -0.101   5.714   8.352 -0.0913  1.1450  0.4712
   98SAPS  C220 9822  -0.031   5.625   8.536  0.4850 -0.1901  0.1875
   98SAPS  H20R 9823  -0.074   5.611   8.637  0.4923  0.6094  0.3093
   98SAPS  H20S 9824   0.062   5.686   8.544  0.2049  0.1154  1.2620
   98SAPS  H20T 9825  -0.008   5.525   8.493  1.0160  0.4286 -1.0435
   98SAPS   C33 9826   0.521   5.754   6.697 -0.0064  0.6881  0.2317
   98SAPS   H3X 9827   0.572   5.852   6.691 -1.1617  1.2922  0.0259
   98SAPS   H3Y 9828   0.568   5.684   6.770 -0.7018  0.0827  0.1121
   98SAPS   C34 9829   0.378   5.791   6.730  0.6005 -0.5708  0.6162
   98SAPS   H4X 9830   0.323   5.699   6.757  0.4924 -0.0202  2.3397
   98SAPS   H4Y 9831   0.327   5.833   6.640 -0.0354 -1.1754  0.6853
   98SAPS   C35 9832   0.371   5.885   6.847  0.4863  0.3167  0.1116
   98SAPS   H5X 9833   0.280   5.950   6.838  0.0187 -0.2929  0.3714
   98SAPS   H5Y 9834   0.456   5.956   6.855 -0.1107  0.8303  2.8429
   98SAPS   C36 9835   0.328   5.814   6.972  0.1261  0.6303 -0.3958
   98SAPS   H6X 9836   0.391   5.730   7.007  0.4211  0.7127 -0.7223
   98SAPS   H6Y 9837   0.221   5.791   6.957  0.0988  1.1284 -1.0072
   98SAPS   C37 9838   0.324   5.931   7.078 -0.4029  0.2719  0.0656
   98SAPS   H7X 9839   0.291   6.027   7.033 -2.4323 -0.6082 -0.4162
   98SAPS   H7Y 9840   0.427   5.946   7.117  0.5036 -3.9882 -0.2337
   98SAPS   C38 9841   0.248   5.892   7.206 -0.4141 -0.5651 -0.6505
   98SAPS   H8X 9842   0.274   5.788   7.236  0.5640 -0.5645 -1.4474
   98SAPS   H8Y 9843   0.142   5.877   7.177 -0.6143  1.1352 -0.9128
   98SAPS   C39 9844   0.280   5.970   7.334  0.6513  0.6669 -0.7662
   98SAPS   H9X 9845   0.267   6.078   7.313  2.6240  1.0720 -0.1446
   98SAPS   H9Y 9846   0.388   5.948   7.352  0.1130 -1.5984  0.0773
   98SAPS  C310 9847   0.203   5.931   7.463  0.3602  0.0876 -0.3153
   98SAPS  H10X 9848   0.226   5.826   7.491  2.1283  0.8956  1.5096
   98SAPS  H10Y 9849   0.093   5.944   7.470  0.7707  4.0215  1.4707
   98SAPS  C311 9850   0.247   6.018   7.585 -0.6662  0.1739 -0.4889
   98SAPS  H11X 9851   0.246   6.123   7.548  0.8243  0.1566 -0.6391
   98SAPS  H11Y 9852   0.349   5.984   7.614  0.2657  1.6487 -1.8728
   98SAPS  C312 9853   0.149   5.984   7.695 -0.0849 -0.2484  0.9127
   98SAPS  H12X 9854   0.154   5.877   7.727 -4.0915 -0.5134  1.0708
   98SAPS  H12Y 9855   0.046   6.002   7.660  0.6785  0.7339 -0.9760
   98SAPS  C313 9856   0.177   6.066   7.821 -0.0309  0.4437 -0.1183
   98SAPS  H13X 9857   0.157   6.173   7.797  2.7629  0.5604 -2.4602
   98SAPS  H13Y 9858   0.287   6.061   7.837  0.3376 -0.2562 -2.4783
   98SAPS  C314 9859   0.099   6.023   7.949  0.1989  0.3072  0.1167
   98SAPS  H14X 9860   0.121   5.915   7.961 -0.0019  0.1098 -1.1217
   98SAPS  H14Y 9861  -0.010   6.023   7.927  0.1769  0.5654  0.2211
   98SAPS  C315 9862   0.135   6.096   8.078 -0.0806 -0.4735 -0.2774
   98SAPS  H15X 9863   0.107   6.201   8.055 -0.0600 -0.3640  0.2021
   98SAPS  H15Y 9864   0.241   6.070   8.097  0.5991  0.3675 -2.5879
   98SAPS  C316 9865   0.046   6.040   8.188  0.3214 -0.5800 -0.4763
   98SAPS  H16X 9866   0.020   5.932   8.198 -2.4767  0.0594 -0.0158
   98SAPS  H16Y 9867  -0.055   6.078   8.162  0.1965  0.6189  1.5535
   98SAPS  C317 9868   0.094   6.099   8.322  0.1570 -0.2529 -0.3200
   98SAPS  H17X 9869   0.052   6.201   8.323 -2.6508 -1.3168  1.4641
   98SAPS  H17Y 9870   0.204   6.111   8.330 -0.1791  2.7471  1.2245
   98SAPS  C318 9871   0.054   6.034   8.459  0.2861 -1.2341  0.4622
   98SAPS  H18X 9872  -0.056   6.020   8.459 -0.1246  1.0112 -2.7631
   98SAPS  H18Y 9873   0.070   6.089   8.554  1.3383 -0.3680 -0.1924
   98SAPS  H18Z 9874   0.105   5.935   8.466 -0.4718 -1.5458  2.1862
   99SAPS     N 9875   5.852   2.375   6.109  0.0665  0.0268 -0.3267
   99SAPS   HN1 9876   5.842   2.447   6.184 -1.2939  1.9311 -2.2331
   99SAPS   HN2 9877   5.776   2.304   6.114 -0.6780  0.7403 -1.1507
   99SAPS   HN3 9878   5.946   2.331   6.109  1.0942  2.0339  1.5004
   99SAPS   C12 9879   5.826   2.439   5.982 -0.1546  0.7188 -0.4827
   99SAPS  H12A 9880   5.847   2.364   5.908  0.4958 -1.0025  1.3829
   99SAPS   C13 9881   5.691   2.498   5.954  0.6053 -0.9551 -0.6805
   99SAPS  O13A 9882   5.594   2.488   6.038 -0.0722  0.2730  0.1138
   99SAPS  O13B 9883   5.672   2.542   5.836  0.1714 -0.5026 -0.1027
   99SAPS   C11 9884   5.938   2.547   5.963  0.2899  0.5331  0.1529
   99SAPS  H11A 9885   5.912   2.626   6.038  0.0504 -1.1410  1.9143
   99SAPS  H11B 9886   5.930   2.592   5.861 -1.6505  1.4047  0.6355
   99SAPS     P 9887   6.190   2.613   6.001  0.2526 -0.1780  0.1836
   99SAPS   O13 9888   6.310   2.542   5.956 -0.5610 -0.0150  0.5394
   99SAPS   O14 9889   6.157   2.729   5.913 -0.5908  0.8128  0.1715
   99SAPS   O12 9890   6.079   2.497   5.988 -0.3344 -0.5879 -0.7462
   99SAPS   O11 9891   6.204   2.655   6.154  0.2357 -0.1009 -0.1291
   99SAPS    C1 9892   6.207   2.555   6.256  0.1543 -0.0020  0.2981
   99SAPS    HA 9893   6.101   2.540   6.286 -0.6381  0.9483 -1.8982
   99SAPS    HB 9894   6.241   2.457   6.217  0.9078  0.3388  0.0853
   99SAPS    C2 9895   6.302   2.599   6.380  0.3213 -0.4503  0.0456
   99SAPS    HS 9896   6.255   2.692   6.420 -1.5410 -0.8872 -1.0211
   99SAPS   O21 9897   6.436   2.624   6.332 -0.1393  0.4555  0.2258
   99SAPS   C21 9898   6.503   2.713   6.390  0.7879  0.6601  0.7107
   99SAPS   O22 9899   6.461   2.793   6.472  0.4628 -0.5382  0.2174
   99SAPS   C22 9900   6.656   2.666   6.371  0.3962 -0.3756  0.8368
   99SAPS   H2R 9901   6.661   2.556   6.388  0.0098 -0.2362  1.9248
   99SAPS   H2S 9902   6.684   2.701   6.269 -0.7632  3.4771  1.6881
   99SAPS    C3 9903   6.310   2.493   6.493  0.3763  0.2273  0.4396
   99SAPS    HX 9904   6.359   2.406   6.444 -2.2063 -0.9563 -0.2027
   99SAPS    HY 9905   6.207   2.459   6.519  0.8315 -1.5559  0.0559
   99SAPS   O31 9906   6.382   2.529   6.608 -0.0807  0.0725 -0.5152
   99SAPS   C31 9907   6.323   2.613   6.691 -0.1121  0.4948  0.3786
   99SAPS   O32 9908   6.211   2.660   6.684  0.0404 -0.7712  0.4152
   99SAPS   C32 9909   6.437   2.645   6.793  0.1772  0.0341  0.1319
   99SAPS   H2X 9910   6.419   2.750   6.824 -0.3055 -0.4213  1.4589
   99SAPS   H2Y 9911   6.537   2.635   6.747  0.5756  0.9547  0.7792
   99SAPS   C23 9912   6.760   2.737   6.467  0.8586  0.2028 -0.0062
   99SAPS   H3R 9913   6.727   2.708   6.569 -2.0039 -1.1605 -1.2179
   99SAPS   H3S 9914   6.766   2.847   6.451 -1.6354  0.2222 -1.1446
   99SAPS   C24 9915   6.896   2.671   6.437 -0.4685  0.1729  0.4436
   99SAPS   H4R 9916   6.967   2.740   6.488 -1.9136  1.2902  1.0074
   99SAPS   H4S 9917   6.914   2.676   6.327 -2.2178 -0.4971  0.1017
   99SAPS   C25 9918   6.912   2.530   6.483  0.3329 -0.5916 -0.6012
   99SAPS   H5R 9919   6.865   2.461   6.411  1.3311 -1.1664 -0.7202
   99SAPS   C26 9920   6.988   2.491   6.590 -0.2202 -0.3583 -0.4781
   99SAPS   H6R 9921   6.976   2.390   6.631  1.3785 -0.0350  0.8554
   99SAPS   C27 9922   7.068   2.588   6.677  0.5067  0.9032 -0.2421
   99SAPS   H7R 9923   7.012   2.682   6.693 -1.8169 -0.1568 -1.6223
   99SAPS   H7S 9924   7.165   2.611   6.628 -0.0952 -0.4629 -2.2225
   99SAPS   C28 9925   7.090   2.540   6.820 -0.1743  0.5203  0.6614
   99SAPS   H8R 9926   7.193   2.513   6.848 -0.4931 -0.1463  1.2125
   99SAPS   C29 9927   6.999   2.531   6.918  0.3390  0.5561  0.1007
   99SAPS   H9R 9928   7.034   2.482   7.010  0.2447 -0.1971 -0.2515
   99SAPS  C210 9929   6.856   2.571   6.907 -0.2977  0.1214 -0.7421
   99SAPS  H10R 9930   6.792   2.491   6.951 -0.8929  0.5449 -0.8164
   99SAPS  H10S 9931   6.820   2.574   6.802 -1.4193  0.7652 -0.3591
   99SAPS  C211 9932   6.838   2.710   6.960 -0.0266  0.0686  0.6363
   99SAPS  H11R 9933   6.816   2.780   6.878  1.3510 -1.1115 -0.8099
   99SAPS  C212 9934   6.818   2.758   7.083  0.2295  0.5965 -0.1702
   99SAPS  H12R 9935   6.809   2.867   7.097  1.8871  0.7089  0.1719
   99SAPS  C213 9936   6.817   2.689   7.217 -0.5810  0.2418  0.4362
   99SAPS  H13R 9937   6.828   2.582   7.187  2.6709  1.0336 -1.7450
   99SAPS  H13S 9938   6.714   2.706   7.255 -1.0201 -1.8972  0.3433
   99SAPS  C214 9939   6.914   2.742   7.319 -0.2268 -0.4778  0.6036
   99SAPS  H14R 9940   7.020   2.722   7.297  0.5062  4.4585 -1.5166
   99SAPS  C215 9941   6.885   2.800   7.438  0.0403  0.1423 -0.4047
   99SAPS  H15R 9942   6.967   2.838   7.501 -0.9215  3.2343 -0.8620
   99SAPS  C216 9943   6.749   2.818   7.494 -0.4138  0.1920 -0.7721
   99SAPS  H16R 9944   6.669   2.817   7.418  0.8199 -1.4513 -2.1144
   99SAPS  H16S 9945   6.745   2.919   7.540 -1.9590 -0.0033 -0.4477
   99SAPS  C217 9946   6.705   2.716   7.603 -0.4592 -0.2867  0.0030
   99SAPS  H17R 9947   6.602   2.746   7.631 -0.0182  0.5647  0.7788
   99SAPS  H17S 9948   6.765   2.716   7.696  1.6447 -0.2050 -1.2873
   99SAPS  C218 9949   6.699   2.566   7.548 -0.2393  0.1626  0.0838
   99SAPS  H18R 9950   6.805   2.535   7.534 -0.0901 -0.2109  1.7805
   99SAPS  H18S 9951   6.649   2.567   7.449 -0.6232  1.6672  0.2664
   99SAPS  C219 9952   6.639   2.448   7.635  0.1773  0.0895 -0.3404
   99SAPS  H19R 9953   6.667   2.356   7.579 -0.3729 -1.2184  1.4760
   99SAPS  H19S 9954   6.532   2.477   7.633 -0.1837 -1.1952 -0.2582
   99SAPS  C220 9955   6.700   2.434   7.777  0.0337 -0.3263 -0.2881
   99SAPS  H20R 9956   6.653   2.519   7.832  1.0560  1.4554 -2.0296
   99SAPS  H20S 9957   6.809   2.453   7.774  0.0738  0.4230  2.5188
   99SAPS  H20T 9958   6.688   2.339   7.833  0.7116  0.3973  1.1632
   99SAPS   C33 9959   6.421   2.548   6.915 -0.5099  0.0896 -0.0496
   99SAPS   H3X 9960   6.522   2.547   6.961  0.6635  2.7192 -2.2578
   99SAPS   H3Y 9961   6.405   2.448   6.871  0.2301  0.3899 -1.0516
   99SAPS   C34 9962   6.312   2.596   7.017  0.2995 -0.4839  0.4882
   99SAPS   H4X 9963   6.212   2.553   6.995  0.6112 -1.8515  1.6220
   99SAPS   H4Y 9964   6.306   2.707   7.017  1.2161 -0.3803  2.4843
   99SAPS   C35 9965   6.325   2.552   7.160  0.0522  0.0243  0.2363
   99SAPS   H5X 9966   6.432   2.546   7.190  0.1706  1.1173  0.0632
   99SAPS   H5Y 9967   6.286   2.448   7.165  1.9110 -0.6750  1.2834
   99SAPS   C36 9968   6.263   2.644   7.266 -0.5881  0.0108 -0.1372
   99SAPS   H6X 9969   6.154   2.656   7.252 -0.6104 -0.0147  0.0153
   99SAPS   H6Y 9970   6.305   2.744   7.243  0.4236 -1.0342 -3.3090
   99SAPS   C37 9971   6.294   2.604   7.411 -0.4502 -0.3898 -0.0465
   99SAPS   H7X 9972   6.403   2.596   7.429 -0.4225 -0.9780 -0.4296
   99SAPS   H7Y 9973   6.257   2.502   7.436 -0.4216 -0.7905 -1.5126
   99SAPS   C38 9974   6.234   2.703   7.513  0.2359  0.2693  0.4159
   99SAPS   H8X 9975   6.127   2.671   7.508  0.4897 -0.8977  1.7885
   99SAPS   H8Y 9976   6.249   2.809   7.482 -0.7543  0.2325 -0.2663
   99SAPS   C39 9977   6.267   2.660   7.653  0.8739 -0.0499 -0.2612
   99SAPS   H9X 9978   6.374   2.688   7.665  0.3787  0.9401  2.9673
   99SAPS   H9Y 9979   6.261   2.549   7.652  0.5576 -0.0366 -1.8339
   99SAPS  C310 9980   6.173   2.714   7.766  0.3765  0.2233 -0.6103
   99SAPS  H10X 9981   6.070   2.686   7.735 -0.0925  0.3502  0.7674
   99SAPS  H10Y 9982   6.165   2.823   7.784 -0.2638  0.3343 -1.4901
   99SAPS  C311 9983   6.196   2.632   7.891 -0.9829  0.3867 -0.1322
   99SAPS  H11X 9984   6.298   2.661   7.924 -1.7597  1.6095  1.3244
   99SAPS  H11Y 9985   6.205   2.522   7.878  1.1145  0.1266  2.7481
   99SAPS  C312 9986   6.096   2.660   8.000  0.0625 -0.4512  0.9690
   99SAPS  H12X 9987   5.999   2.627   7.957  0.5226 -1.3976  0.6289
   99SAPS  H12Y 9988   6.078   2.769   8.002 -0.8388 -0.5187 -1.0524
   99SAPS  C313 9989   6.116   2.592   8.140  0.3387 -0.6310 -0.8672
   99SAPS  H13X 9990   6.127   2.482   8.124 -1.9573 -0.4996 -4.9423
   99SAPS  H13Y 9991   6.039   2.622   8.214  2.2562 -1.7908  1.7353
   99SAPS  C314 9992   6.248   2.626   8.211  0.6123 -0.2188 -0.1407
   99SAPS  H14X 9993   6.312   2.639   8.121  1.6282 -1.1209  0.4341
   99SAPS  H14Y 9994   6.311   2.556   8.270 -1.8549 -2.3933  0.0693
   99SAPS  C315 9995   6.237   2.763   8.286  0.5804 -0.2544 -0.2404
   99SAPS  H15X 9996   6.187   2.838   8.221 -0.6635  0.2368  1.2248
   99SAPS  H15Y 9997   6.342   2.795   8.303  1.1091 -0.6633 -2.3893
   99SAPS  C316 9998   6.164   2.757   8.426 -0.5436 -0.0941 -0.3895
   99SAPS  H16X 9999   6.204   2.694   8.508  2.6870  1.3683 -0.6602
   99SAPS  H16Y10000   6.055   2.755   8.409 -0.3777  1.0358 -1.8225
   99SAPS  C31710001   6.170   2.894   8.495  0.2550  0.3586 -0.2815
   99SAPS  H17X10002   6.198   2.979   8.430 -0.6830  1.2028  0.3780
   99SAPS  H17Y10003   6.240   2.892   8.581 -0.7493 -1.0898  0.5490
   99SAPS  C31810004   6.030   2.927   8.539  0.2875 -0.2009 -0.5610
   99SAPS  H18X10005   6.027   3.026   8.588  1.1801 -0.4371 -0.0209
   99SAPS  H18Y10006   6.006   2.854   8.619 -0.9656  0.8889  0.0978
   99SAPS  H18Z10007   5.950   2.919   8.461  1.2123 -0.5504 -1.4954
  100SAPS     N10008   6.631   1.857   6.044  0.6161  0.2149 -0.8001
  100SAPS   HN110009   6.724   1.823   6.077 -0.3462 -0.1370  1.6975
  100SAPS   HN210010   6.640   1.941   5.983 -1.4331  0.9694 -0.1507
  100SAPS   HN310011   6.572   1.878   6.126 -0.4626 -2.9942 -0.6392
  100SAPS   C1210012   6.563   1.747   5.969  0.5742 -0.4380 -0.1429
  100SAPS  H12A10013   6.460   1.775   5.957  0.6917  0.8440  1.4766
  100SAPS   C1310014   6.618   1.710   5.832  0.2616  1.0488 -0.2797
  100SAPS  O13A10015   6.678   1.804   5.770  0.2018  0.3495  0.1651
  100SAPS  O13B10016   6.559   1.619   5.773  0.5963  0.9770  1.1826
  100SAPS   C1110017   6.568   1.625   6.072 -0.2158  0.1359  0.2504
  100SAPS  H11A10018   6.665   1.574   6.090 -0.5558 -1.2885 -1.6350
  100SAPS  H11B10019   6.532   1.540   6.011  0.1142  0.1053  0.0913
  100SAPS     P10020   6.379   1.548   6.242  0.3460  0.0425 -0.0423
  100SAPS   O1310021   6.257   1.582   6.162  0.3005  0.0970  0.6706
  100SAPS   O1410022   6.425   1.410   6.249  0.0931  0.1368  0.5366
  100SAPS   O1210023   6.495   1.644   6.193  0.6220 -0.5360  0.2255
  100SAPS   O1110024   6.352   1.593   6.389 -0.4777 -0.1614  0.2319
  100SAPS    C110025   6.380   1.725   6.434 -0.1695 -0.3258  0.4532
  100SAPS    HA10026   6.485   1.759   6.417 -0.4217 -0.1713 -0.8642
  100SAPS    HB10027   6.319   1.793   6.371  1.2722 -0.3308 -1.0284
  100SAPS    C210028   6.351   1.749   6.587  0.5769  0.0819  0.0510
  100SAPS    HS10029   6.391   1.849   6.611  0.1378  0.5237 -1.0079
  100SAPS   O2110030   6.414   1.650   6.671 -0.0861 -0.2141  0.1211
  100SAPS   C2110031   6.542   1.664   6.681 -0.5776 -0.4985 -0.9201
  100SAPS   O2210032   6.613   1.741   6.623 -0.5088 -0.2399  0.2705
  100SAPS   C2210033   6.607   1.569   6.779  0.2886  0.2882  0.3802
  100SAPS   H2R10034   6.617   1.471   6.726 -0.8187  0.4865 -0.2138
  100SAPS   H2S10035   6.710   1.604   6.804  1.4251 -0.8052 -2.3481
  100SAPS    C310036   6.205   1.768   6.617  0.0406 -0.0854  0.3517
  100SAPS    HX10037   6.150   1.672   6.605 -0.8885  0.4065  0.6022
  100SAPS    HY10038   6.166   1.836   6.538 -2.8969 -1.4613  0.5013
  100SAPS   O3110039   6.188   1.816   6.749  0.3504  0.7174 -0.3004
  100SAPS   C3110040   6.171   1.718   6.841 -0.2059  0.9716 -0.1075
  100SAPS   O3210041   6.155   1.601   6.826  0.0473 -0.2308  0.0306
  100SAPS   C3210042   6.184   1.782   6.981 -0.2253  0.2094  0.2663
  100SAPS   H2X10043   6.134   1.881   6.980  0.3591  0.5377  1.9103
  100SAPS   H2Y10044   6.292   1.798   6.998 -0.1063  0.8613 -0.9343
  100SAPS   C2310045   6.520   1.546   6.907 -0.0430 -0.3320 -0.2252
  100SAPS   H3R10046   6.430   1.487   6.879  0.4480 -1.0682 -0.2532
  100SAPS   H3S10047   6.495   1.645   6.951 -0.8053 -0.8018  0.4268
  100SAPS   C2410048   6.603   1.479   7.023 -0.1136  0.8246 -0.1391
  100SAPS   H4R10049   6.533   1.496   7.108 -1.4683  0.7613 -1.1977
  100SAPS   H4S10050   6.699   1.529   7.046  1.2122 -2.6733  2.9178
  100SAPS   C2510051   6.623   1.333   6.995  0.1720  0.6625 -0.1824
  100SAPS   H5R10052   6.529   1.278   6.978  0.6084 -0.0945 -0.1925
  100SAPS   C2610053   6.748   1.269   6.987 -1.0158 -0.5379 -0.1441
  100SAPS   H6R10054   6.748   1.159   6.980 -0.1332 -0.8106  2.7411
  100SAPS   C2710055   6.885   1.327   7.005 -0.2502 -0.9617 -0.2129
  100SAPS   H7R10056   6.886   1.400   7.089  0.6757 -0.8759 -0.2968
  100SAPS   H7S10057   6.913   1.397   6.924  3.1111  1.1334  2.5149
  100SAPS   C2810058   6.983   1.219   7.020 -0.0965  0.3429 -0.2625
  100SAPS   H8R10059   6.994   1.156   6.930 -1.1472 -0.3386  0.0718
  100SAPS   C2910060   7.057   1.197   7.131  0.5440  0.3027  0.3501
  100SAPS   H9R10061   7.120   1.107   7.128  0.6716  0.3320  1.6520
  100SAPS  C21010062   7.070   1.266   7.263  0.4370 -0.2583  0.5769
  100SAPS  H10R10063   7.050   1.374   7.249  1.2754 -0.1533  0.1225
  100SAPS  H10S10064   7.176   1.266   7.295  1.8161  1.2027 -3.3711
  100SAPS  C21110065   6.981   1.193   7.359 -0.3887  0.3851  0.5506
  100SAPS  H11R10066   7.001   1.085   7.371 -0.6254  0.4090  1.1919
  100SAPS  C21210067   6.876   1.240   7.415  0.3172  0.4994 -0.6665
  100SAPS  H12R10068   6.811   1.173   7.474  0.1760  1.3287  0.1362
  100SAPS  C21310069   6.817   1.378   7.400  0.6078  0.3033  0.0868
  100SAPS  H13R10070   6.854   1.448   7.323 -1.0772  1.4792  0.2913
  100SAPS  H13S10071   6.842   1.427   7.497  1.8218  0.1507 -0.1330
  100SAPS  C21410072   6.665   1.372   7.386  0.5292 -0.1833 -0.1389
  100SAPS  H14R10073   6.624   1.349   7.287 -0.9934  0.5452  0.3035
  100SAPS  C21510074   6.573   1.412   7.479 -0.5670 -0.4585 -0.3705
  100SAPS  H15R10075   6.470   1.428   7.444 -0.5368  1.0663  0.1494
  100SAPS  C21610076   6.603   1.470   7.618 -0.1421  0.0828  0.1331
  100SAPS  H16R10077   6.531   1.552   7.638 -1.7875 -1.6642  1.8220
  100SAPS  H16S10078   6.707   1.507   7.618  0.3118 -0.5624 -4.3761
  100SAPS  C21710079   6.580   1.369   7.743  0.4340 -0.5938 -0.8189
  100SAPS  H17R10080   6.495   1.300   7.723  1.1537 -1.6234 -0.4034
  100SAPS  H17S10081   6.552   1.441   7.822  0.3896 -1.3937 -0.0852
  100SAPS  C21810082   6.711   1.314   7.795  0.3975  0.3134 -0.9514
  100SAPS  H18R10083   6.779   1.397   7.824 -0.0911 -0.0334  1.3299
  100SAPS  H18S10084   6.755   1.256   7.711  2.0273  1.5840 -1.0129
  100SAPS  C21910085   6.701   1.238   7.925 -0.1185  0.1284  0.0630
  100SAPS  H19R10086   6.799   1.186   7.928  0.9488  2.0224 -0.1746
  100SAPS  H19S10087   6.621   1.161   7.915 -0.4192  0.4034  0.3245
  100SAPS  C22010088   6.681   1.334   8.044 -0.4731  0.3359  0.2445
  100SAPS  H20R10089   6.772   1.394   8.063  0.7105 -1.1943 -0.3754
  100SAPS  H20S10090   6.679   1.268   8.133 -2.4209 -0.5926 -0.4377
  100SAPS  H20T10091   6.592   1.401   8.042  0.8606  2.2225  0.9561
  100SAPS   C3310092   6.122   1.685   7.090  0.4066  0.2697 -0.4052
  100SAPS   H3X10093   6.028   1.640   7.049  0.3011  0.7471 -0.7039
  100SAPS   H3Y10094   6.090   1.749   7.175 -1.9012 -0.4745 -0.6159
  100SAPS   C3410095   6.231   1.589   7.138  0.2930  0.0390 -0.5982
  100SAPS   H4X10096   6.334   1.629   7.138  0.2378  0.1892  0.1721
  100SAPS   H4Y10097   6.233   1.501   7.069 -0.0897  0.5587 -1.2815
  100SAPS   C3510098   6.201   1.529   7.286  0.0253  0.2978  0.0288
  100SAPS   H5X10099   6.283   1.461   7.317 -0.2495  0.6484  1.5603
  100SAPS   H5Y10100   6.108   1.467   7.287 -0.2325  0.5560 -2.0913
  100SAPS   C3610101   6.178   1.625   7.395 -0.1961 -0.7448  0.3590
  100SAPS   H6X10102   6.076   1.667   7.386  0.1474  0.0043 -0.2237
  100SAPS   H6Y10103   6.247   1.712   7.400  1.4290 -1.8187 -1.5985
  100SAPS   C3710104   6.192   1.563   7.535  0.0512  0.2146  0.1594
  100SAPS   H7X10105   6.293   1.518   7.547  0.7283  1.3977 -0.7827
  100SAPS   H7Y10106   6.126   1.476   7.550  1.0250 -0.6317 -0.3697
  100SAPS   C3810107   6.183   1.658   7.656 -0.8070  0.4421 -0.0900
  100SAPS   H8X10108   6.078   1.692   7.654  0.0536  3.3799 -2.1101
  100SAPS   H8Y10109   6.245   1.750   7.646 -0.7647  0.6061  1.4140
  100SAPS   C3910110   6.223   1.574   7.783  0.3555 -0.5843 -0.1387
  100SAPS   H9X10111   6.328   1.585   7.816 -0.2691  3.0832  1.1046
  100SAPS   H9Y10112   6.210   1.469   7.751 -0.3970 -0.3110 -0.7527
  100SAPS  C31010113   6.144   1.615   7.895  0.3125 -0.2406  0.4027
  100SAPS  H10X10114   6.035   1.605   7.872  0.0495  1.6146  0.6729
  100SAPS  H10Y10115   6.161   1.724   7.908  0.3911 -0.2961  0.7803
  100SAPS  C31110116   6.189   1.556   8.020 -0.1072  0.3391  0.2051
  100SAPS  H11X10117   6.287   1.593   8.057  1.3895 -1.2457 -1.9307
  100SAPS  H11Y10118   6.198   1.446   8.013 -1.2155  0.1594  1.3038
  100SAPS  C31210119   6.086   1.588   8.134  0.5406  0.3044  0.2549
  100SAPS  H12X10120   5.997   1.523   8.128  0.0562  0.5995  2.9652
  100SAPS  H12Y10121   6.044   1.688   8.111  1.3864 -0.2044 -4.4701
  100SAPS  C31310122   6.145   1.592   8.275 -0.7243  0.7088 -0.0460
  100SAPS  H13X10123   6.225   1.667   8.294 -0.8530  0.9289 -0.3755
  100SAPS  H13Y10124   6.198   1.494   8.284 -0.3176  0.7671 -1.5046
  100SAPS  C31410125   6.048   1.588   8.386 -0.4505 -0.0031  0.1945
  100SAPS  H14X10126   6.115   1.551   8.467  0.1920 -2.2286 -1.2667
  100SAPS  H14Y10127   5.973   1.512   8.356 -2.1998  0.8630  2.1693
  100SAPS  C31510128   5.989   1.729   8.415  0.0918  0.2651  0.8426
  100SAPS  H15X10129   5.900   1.710   8.478 -0.3257 -0.3488  0.0943
  100SAPS  H15Y10130   5.956   1.768   8.316  1.7313 -1.7149 -0.5584
  100SAPS  C31610131   6.081   1.815   8.505 -0.4637  0.4536 -0.2082
  100SAPS  H16X10132   6.177   1.835   8.453  0.9627  0.8291  2.3759
  100SAPS  H16Y10133   6.100   1.756   8.597  0.6337  1.9839  0.5966
  100SAPS  C31710134   6.002   1.941   8.540  0.1127  1.0027 -0.0049
  100SAPS  H17X10135   5.921   1.910   8.609 -0.3196  1.0347 -0.4929
  100SAPS  H17Y10136   5.958   1.989   8.451 -0.9206  0.2622  0.0892
  100SAPS  C31810137   6.097   2.034   8.615  0.7559  0.5618 -0.6004
  100SAPS  H18X10138   6.130   1.967   8.698 -1.7860 -0.5829 -0.4276
  100SAPS  H18Y10139   6.044   2.119   8.663 -1.0494 -1.5459  1.4150
  100SAPS  H18Z10140   6.189   2.065   8.561  2.3444 -1.7022  0.5873
  101OSM      N10141   6.356   3.211  10.772 -0.5930  0.3045  0.6162
  101OSM    C1510142   6.375   3.330  10.684  0.2549 -0.6350  0.5007
  101OSM   H15A10143   6.384   3.417  10.748  0.5493 -0.9371  0.8664
  101OSM   H15B10144   6.288   3.335  10.620  0.8173 -0.6423 -0.2676
  101OSM   H15C10145   6.457   3.325  10.615 -1.6079  0.1772 -1.9327
  101OSM    C1410146   6.454   3.212  10.879  0.4986  0.4078 -0.4689
  101OSM   H14A10147   6.439   3.127  10.944 -3.6744 -0.7615 -2.6207
  101OSM   H14B10148   6.439   3.305  10.931 -1.4178  0.3524 -0.8393
  101OSM   H14C10149   6.551   3.216  10.831  0.9481  1.5736  0.4849
  101OSM    C1310150   6.217   3.223  10.834  0.9223 -0.2381  0.0863
  101OSM   H13A10151   6.182   3.143  10.898  0.4783 -0.4006 -0.3574
  101OSM   H13B10152   6.139   3.233  10.760  1.6313  0.1540 -0.6254
  101OSM   H13C10153   6.216   3.311  10.896  1.2346 -0.8796  1.0240
  101OSM    C1210154   6.365   3.079  10.691 -0.7338  0.3822 -0.1052
  101OSM   H12A10155   6.273   3.069  10.636  0.1246 -1.0267 -1.3277
  101OSM   H12B10156   6.352   2.996  10.759 -1.4434  2.2460  2.2148
  101OSM    C1110157   6.486   3.052  10.593  0.0121  0.5279 -0.1219
  101OSM   H11A10158   6.472   3.119  10.506 -2.8249  0.1472 -0.0714
  101OSM   H11B10159   6.476   2.949  10.554 -1.7433  0.8406 -0.5961
  101OSM      P10160   6.688   2.950  10.733  0.2623  0.1625  0.3305
  101OSM    O1310161   6.811   3.003  10.795  0.6493  0.2876 -0.2889
  101OSM    O1410162   6.590   2.892  10.826  0.9030 -0.2282  0.1241
  101OSM    O1110163   6.715   2.838  10.628 -0.4772 -0.6162  0.1735
  101OSM    O1210164   6.615   3.061  10.655  0.0807 -0.5258 -0.3545
  101OSM    C1S10165   6.754   2.878  10.497 -0.2084  0.6620  0.1285
  101OSM    H1S10166   6.761   2.987  10.472  1.5605  1.6000  4.0024
  101OSM    H1T10167   6.674   2.837  10.432 -0.1177 -0.3519  0.6529
  101OSM     NF10168   6.916   2.834  10.325 -0.4986 -0.5960 -0.3097
  101OSM    HNF10169   6.894   2.763  10.259 -1.9139  0.8857 -1.5179
  101OSM    C2S10170   6.883   2.803  10.453 -0.6185  0.0727 -0.0838
  101OSM    H2S10171   6.963   2.840  10.520  1.2730 -1.5263 -1.3189
  101OSM    C3S10172   6.872   2.649  10.479 -0.4210 -0.2567  0.0953
  101OSM    H3S10173   6.790   2.615  10.413 -1.8036 -1.0565  2.1157
  101OSM     O310174   6.851   2.624  10.616 -0.3615 -0.4313  0.2845
  101OSM    HO310175   6.801   2.700  10.646  0.1553  0.2823 -0.6190
  101OSM    C4S10176   7.001   2.582  10.449 -0.3298  0.2627 -0.8047
  101OSM    H4S10177   7.085   2.597  10.518  0.3298  1.9355 -1.9114
  101OSM    C5S10178   7.014   2.477  10.366 -0.1801  0.1466 -0.1581
  101OSM    H5S10179   6.923   2.437  10.318  1.6333 -2.9054 -1.3760
  101OSM    C6S10180   7.141   2.397  10.355  0.2123  0.5413  0.6447
  101OSM    H6S10181   7.127   2.287  10.369 -1.9438  0.0919 -3.4798
  101OSM    H6T10182   7.216   2.436  10.427 -0.5782  2.0350  0.6888
  101OSM    C7S10183   7.205   2.418  10.213 -0.0158 -0.4738 -0.1580
  101OSM    H7S10184   7.169   2.332  10.152  4.9849 -3.9584  1.1282
  101OSM    H7T10185   7.312   2.395  10.231 -0.5072 -2.5351  0.4919
  101OSM    C8S10186   7.196   2.554  10.153  1.1208  0.2477 -0.3927
  101OSM    H8S10187   7.245   2.620  10.227 -2.2587  0.4566  1.8762
  101OSM    H8T10188   7.088   2.575  10.143  0.6807 -0.8496  1.5385
  101OSM    C9S10189   7.260   2.558  10.018  0.5181  0.2828  0.4570
  101OSM    H9S10190   7.221   2.471   9.961 -1.6883  0.5621  1.4138
  101OSM    H9T10191   7.370   2.550  10.024  0.4374 -0.6576  0.8089
  101OSM   C10S10192   7.220   2.691   9.948  0.2932 -0.3971  0.2751
  101OSM   H10S10193   7.246   2.788   9.996 -1.5063  0.2766 -0.0458
  101OSM   H10T10194   7.109   2.692   9.940  0.2662  0.7482  0.5079
  101OSM   C11S10195   7.273   2.698   9.804 -0.4055 -0.6315 -0.0090
  101OSM   H11S10196   7.256   2.594   9.772 -2.6579 -0.5930  0.8554
  101OSM   H11T10197   7.381   2.725   9.803 -0.6290  0.3303 -0.9022
  101OSM   C12S10198   7.194   2.797   9.714 -0.5513 -0.6745 -0.1321
  101OSM   H12S10199   7.171   2.886   9.777 -0.9996 -1.2974  0.6082
  101OSM   H12T10200   7.112   2.725   9.695  0.2141 -1.4147 -0.6773
  101OSM   C13S10201   7.256   2.836   9.578 -0.5205 -0.4752 -0.2011
  101OSM   H13S10202   7.367   2.839   9.582 -0.5547  3.1032  0.6770
  101OSM   H13T10203   7.216   2.938   9.563 -0.2725 -0.3565 -0.0720
  101OSM   C14S10204   7.188   2.746   9.469 -0.4051  0.0665  0.2192
  101OSM   H14S10205   7.096   2.804   9.443 -2.0109 -2.3731  0.1477
  101OSM   H14T10206   7.159   2.649   9.514  1.4666 -0.0556  1.2496
  101OSM   C15S10207   7.268   2.736   9.336 -0.3213  0.6124 -0.3867
  101OSM   H15S10208   7.351   2.664   9.351  0.4091  1.4945 -0.0447
  101OSM   H15T10209   7.312   2.833   9.305  1.3539 -0.2798 -0.9136
  101OSM   C16S10210   7.169   2.680   9.236 -0.2850 -0.4862 -1.3307
  101OSM   H16S10211   7.092   2.757   9.212 -0.3887 -0.0737  0.2354
  101OSM   H16T10212   7.119   2.601   9.295  0.4676 -0.0730 -0.1102
  101OSM   C17S10213   7.237   2.632   9.103 -0.8013  0.9245 -0.7577
  101OSM   H17S10214   7.316   2.556   9.122 -0.9151  0.7865 -0.8276
  101OSM   H17T10215   7.293   2.722   9.073 -1.2271  0.9087 -1.6514
  101OSM   C18S10216   7.144   2.576   8.999 -0.3584  0.2979  0.0257
  101OSM   H18S10217   7.052   2.638   8.994  0.6180  1.7455 -1.0057
  101OSM   H18T10218   7.111   2.473   9.023  2.3180 -0.9747 -1.2168
  101OSM   H18U10219   7.199   2.576   8.902  2.0424  0.0281  1.2928
  101OSM    C1F10220   6.950   2.957  10.284  0.2052  0.6186 -0.5584
  101OSM     OF10221   6.986   3.042  10.364  0.1255  0.2058 -0.1390
  101OSM    C2F10222   6.948   2.983  10.139  0.2131  0.2732  0.4138
  101OSM    H2F10223   6.844   3.020  10.125 -0.9634 -1.0378  4.5445
  101OSM    H2G10224   6.963   2.882  10.094 -1.9947 -0.0461  0.2879
  101OSM    C3F10225   7.052   3.086  10.094  0.2096 -0.2753  0.1641
  101OSM    H3F10226   7.155   3.051  10.115  1.7964  1.9933 -3.0566
  101OSM    H3G10227   7.024   3.178  10.150  0.7105  0.3946 -0.6714
  101OSM    C4F10228   7.040   3.115   9.948  0.9837  0.5796  0.4358
  101OSM    H4F10229   6.937   3.145   9.922  0.6778 -0.4361  0.4431
  101OSM    H4G10230   7.043   3.019   9.894  0.9736  0.2552  1.0056
  101OSM    C5F10231   7.149   3.210   9.898  0.6710 -0.4427 -0.3358
  101OSM    H5F10232   7.242   3.159   9.933  1.3598 -0.4732 -2.0988
  101OSM    H5G10233   7.144   3.307   9.951 -1.3807 -0.6697 -0.0194
  101OSM    C6F10234   7.159   3.228   9.750  0.3684 -0.5912  0.5969
  101OSM    H6F10235   7.066   3.280   9.718  1.0233  0.3591  0.1967
  101OSM    H6G10236   7.156   3.133   9.691 -0.0271  0.1527 -0.6356
  101OSM    C7F10237   7.278   3.307   9.701  0.0380 -0.5387  0.5587
  101OSM    H7F10238   7.372   3.253   9.726  0.6252 -0.9111 -2.1414
  101OSM    H7G10239   7.281   3.406   9.753  0.2391 -1.0380  1.5295
  101OSM    C8F10240   7.279   3.327   9.553 -0.1651  0.0230  0.4532
  101OSM    H8F10241   7.174   3.348   9.524  0.0988  0.8640  0.0873
  101OSM    H8G10242   7.297   3.233   9.496 -2.5975 -0.0329 -0.2987
  101OSM    C9F10243   7.353   3.454   9.511 -0.1474  0.2445  0.9271
  101OSM    H9F10244   7.302   3.545   9.474  0.4818  0.3843  0.3698
  101OSM   C10F10245   7.485   3.462   9.494 -0.1599 -0.0702 -0.3726
  101OSM   H10F10246   7.523   3.562   9.468  0.5797 -0.4279 -0.7034
  101OSM   C11F10247   7.599   3.363   9.521  0.9593  0.7197  0.1585
  101OSM   H11F10248   7.560   3.265   9.557  2.2615 -0.9758 -2.5934
  101OSM   H11G10249   7.654   3.408   9.606 -0.9885  1.4374  1.0975
  101OSM   C12F10250   7.691   3.341   9.401 -0.1665 -0.0879  0.0510
  101OSM   H12F10251   7.766   3.267   9.433  0.3313 -0.3335 -1.5851
  101OSM   H12G10252   7.751   3.433   9.385  2.6149 -1.9699 -0.9779
  101OSM   C13F10253   7.638   3.296   9.265 -0.4208  0.0247 -0.1943
  101OSM   H13F10254   7.552   3.362   9.241  0.5964  2.2041  1.7678
  101OSM   H13G10255   7.585   3.203   9.295 -4.5459  2.7819  1.9255
  101OSM   C14F10256   7.739   3.262   9.159 -0.9873  0.2515  0.3653
  101OSM   H14F10257   7.807   3.180   9.190  2.2557  2.9387  0.9631
  101OSM   H14G10258   7.809   3.348   9.146 -1.0965  0.2723 -0.0902
  101OSM   C15F10259   7.677   3.228   9.024 -0.3708 -0.3735 -0.9680
  101OSM   H15F10260   7.608   3.307   8.987  1.0516  1.0440 -0.6708
  101OSM   H15G10261   7.603   3.148   9.050 -1.8009  0.9876 -0.7045
  101OSM   C16F10262   7.776   3.194   8.912 -0.5309  0.2113  0.7925
  101OSM   H16F10263   7.719   3.148   8.828 -0.7252  1.3724  0.2774
  101OSM   H16G10264   7.856   3.130   8.956 -0.6863 -0.5303  0.0230
  101OSM   C17F10265   7.846   3.307   8.842 -0.5465  0.1268 -0.2333
  101OSM   H17F10266   7.905   3.362   8.919  0.9157 -0.4497 -0.9074
  101OSM   H17G10267   7.767   3.375   8.804  1.0992  2.3494  0.0773
  101OSM   C18F10268   7.932   3.270   8.726 -0.8910 -0.1093 -0.6225
  101OSM   H18F10269   7.981   3.355   8.674 -0.5406  0.6093  0.8299
  101OSM   H18G10270   7.874   3.198   8.663 -1.5658 -2.2931  2.2767
  101OSM   H18H10271   8.016   3.213   8.770  0.2163  3.4671  2.3663
  102OSM      N10272   0.770   0.976  10.801 -0.0135  0.0044 -0.1320
  102OSM    C1510273   0.744   0.912  10.666  0.2419  0.6743  0.6634
  102OSM   H15A10274   0.673   0.831  10.680  1.4749 -0.6734 -0.5307
  102OSM   H15B10275   0.834   0.864  10.631  0.5173  1.5609  0.1405
  102OSM   H15C10276   0.706   0.977  10.589 -0.2796  0.4156  0.6955
  102OSM    C1410277   0.802   0.869  10.903  0.0161 -0.4931  0.4326
  102OSM   H14A10278   0.711   0.824  10.940  0.9731 -1.7399  1.3537
  102OSM   H14B10279   0.851   0.918  10.986  0.1935  0.2858 -0.1127
  102OSM   H14C10280   0.866   0.793  10.860 -1.7201 -0.7580 -1.8930
  102OSM    C1310281   0.889   1.059  10.778 -0.1716  0.2211 -0.9034
  102OSM   H13A10282   0.912   1.138  10.848  0.4096 -0.6969 -0.0297
  102OSM   H13B10283   0.882   1.104  10.680 -0.4979 -2.5993 -2.2631
  102OSM   H13C10284   0.981   1.002  10.772 -0.0286  0.2878  0.3867
  102OSM    C1210285   0.650   1.060  10.841  0.1143  0.3420  0.3497
  102OSM   H12A10286   0.676   1.117  10.929  1.1768  0.0295  0.2566
  102OSM   H12B10287   0.571   0.997  10.878 -0.8885  0.8704 -0.8380
  102OSM    C1110288   0.597   1.159  10.736 -0.1598  0.2672  0.5221
  102OSM   H11A10289   0.496   1.188  10.772 -0.5298 -0.8221  0.3791
  102OSM   H11B10290   0.583   1.106  10.640  2.1751  0.0480  0.2535
  102OSM      P10291   0.711   1.369  10.838  0.0398  0.4448 -0.4458
  102OSM    O1310292   0.609   1.338  10.941  0.2114 -0.4577  0.0641
  102OSM    O1410293   0.854   1.362  10.875  0.0077 -0.2759  0.8118
  102OSM    O1110294   0.665   1.503  10.776 -0.2274  0.5128 -0.1916
  102OSM    O1210295   0.684   1.270  10.718 -0.1974  0.4788  0.9644
  102OSM    C1S10296   0.706   1.549  10.646 -0.2725 -0.4883  0.4237
  102OSM    H1S10297   0.806   1.512  10.615  0.3739  1.5876 -0.0932
  102OSM    H1T10298   0.708   1.660  10.654  1.7398 -0.2087 -2.3897
  102OSM     NF10299   0.661   1.571  10.408 -0.5854  0.2095 -0.3769
  102OSM    HNF10300   0.634   1.659  10.372  1.3938  1.4053  0.8619
  102OSM    C2S10301   0.606   1.517  10.531 -0.4033  0.3379  0.4799
  102OSM    H2S10302   0.607   1.407  10.517  0.6511  0.2527  1.0755
  102OSM    C3S10303   0.462   1.563  10.558  0.3806  0.1594  0.2164
  102OSM    H3S10304   0.459   1.670  10.530  2.7133 -0.3379 -2.3425
  102OSM     O310305   0.420   1.549  10.694 -0.6831 -0.3729 -0.1889
  102OSM    HO310306   0.496   1.515  10.741 -1.2617 -0.0161  1.0577
  102OSM    C4S10307   0.369   1.502  10.448  0.4254 -0.5092 -0.0799
  102OSM    H4S10308   0.342   1.575  10.371 -0.5888 -1.4462 -0.6316
  102OSM    C5S10309   0.319   1.381  10.451  0.3122  0.3686 -0.0595
  102OSM    H5S10310   0.345   1.313  10.533 -0.0415  0.2773 -0.0190
  102OSM    C6S10311   0.242   1.320  10.338  0.5092 -0.3901  0.2420
  102OSM    H6S10312   0.223   1.393  10.257 -0.6967  1.5411  2.1633
  102OSM    H6T10313   0.145   1.293  10.386  0.9626 -0.3358  1.2047
  102OSM    C7S10314   0.328   1.206  10.279 -0.0868 -0.1828 -0.5000
  102OSM    H7S10315   0.339   1.122  10.351  1.2347  1.2091  0.9976
  102OSM    H7T10316   0.424   1.248  10.244 -0.6669 -0.0193 -1.9771
  102OSM    C8S10317   0.267   1.163  10.143  0.2437  0.0886  0.7046
  102OSM    H8S10318   0.253   1.262  10.094 -1.0197 -0.9688 -1.2115
  102OSM    H8T10319   0.171   1.109  10.155  1.9201 -2.7833  2.4423
  102OSM    C9S10320   0.368   1.072  10.063 -0.4752  0.2086  0.0524
  102OSM    H9S10321   0.377   0.975  10.118  1.3946  1.2802  1.7797
  102OSM    H9T10322   0.474   1.104  10.065 -0.2764 -0.4536  0.4210
  102OSM   C10S10323   0.324   1.052   9.918  0.6786  0.5018  0.8947
  102OSM   H10S10324   0.216   1.026   9.924  0.6459  0.0824 -0.8590
  102OSM   H10T10325   0.377   0.968   9.868  1.0267  0.8430  0.6795
  102OSM   C11S10326   0.331   1.175   9.826 -0.0809  0.4574 -0.6384
  102OSM   H11S10327   0.430   1.217   9.850 -0.8234  1.7996  0.1673
  102OSM   H11T10328   0.246   1.244   9.844 -0.1582  0.2693 -0.2677
  102OSM   C12S10329   0.341   1.133   9.676  0.3190  0.0628  0.1906
  102OSM   H12S10330   0.258   1.060   9.663 -0.0879  0.4925  0.3551
  102OSM   H12T10331   0.432   1.073   9.658  1.1789  1.7312 -1.2929
  102OSM   C13S10332   0.316   1.242   9.573  0.6410  0.2239 -0.2577
  102OSM   H13S10333   0.399   1.316   9.565  1.4939 -0.6836  0.0214
  102OSM   H13T10334   0.239   1.306   9.621  1.0616  0.2153  0.4386
  102OSM   C14S10335   0.261   1.189   9.439 -0.2436 -0.7413  0.2963
  102OSM   H14S10336   0.198   1.099   9.453  0.5360 -1.7201 -1.9836
  102OSM   H14T10337   0.353   1.161   9.383  0.2471  0.3202  0.5446
  102OSM   C15S10338   0.183   1.303   9.361 -0.5449  0.2656 -0.1384
  102OSM   H15S10339   0.272   1.356   9.321  0.5346  0.4829  2.4016
  102OSM   H15T10340   0.121   1.369   9.424 -0.2407  1.0163 -0.6146
  102OSM   C16S10341   0.099   1.256   9.244 -0.7485 -0.7564 -0.1125
  102OSM   H16S10342   0.056   1.347   9.195 -0.2083 -0.0108  0.7692
  102OSM   H16T10343   0.002   1.206   9.264 -0.6092 -0.3260  1.7786
  102OSM   C17S10344   0.177   1.174   9.142 -0.6683  0.2956  0.0060
  102OSM   H17S10345   0.212   1.081   9.194 -0.6928 -0.1715 -0.7992
  102OSM   H17T10346   0.271   1.225   9.110  0.2215  0.0281  2.0296
  102OSM   C18S10347   0.108   1.141   9.008  0.8665 -0.0040 -0.1241
  102OSM   H18S10348   0.008   1.096   9.024  1.9002 -2.8290 -1.0935
  102OSM   H18T10349   0.179   1.087   8.942  1.3451 -1.4932  1.5365
  102OSM   H18U10350   0.095   1.241   8.962 -1.8089 -0.2461 -0.0598
  102OSM    C1F10351   0.774   1.529  10.345 -0.0803 -0.4738  0.3126
  102OSM     OF10352   0.836   1.423  10.378 -0.5014 -0.1630 -0.1947
  102OSM    C2F10353   0.819   1.611  10.232 -0.7034  0.6789  0.1644
  102OSM    H2F10354   0.859   1.707  10.272  1.2171 -0.0125 -0.0194
  102OSM    H2G10355   0.729   1.620  10.167 -1.1549  2.7336  1.0123
  102OSM    C3F10356   0.935   1.534  10.160 -0.3447  0.1261 -0.5912
  102OSM    H3F10357   0.897   1.438  10.118 -2.3489  1.4901 -2.0965
  102OSM    H3G10358   1.018   1.509  10.230  0.0519 -0.3319 -1.2125
  102OSM    C4F10359   0.985   1.623  10.045 -0.2333  0.6462 -0.0006
  102OSM    H4F10360   1.077   1.577  10.001 -0.2463  1.5077 -0.9730
  102OSM    H4G10361   1.021   1.722  10.080  1.1397  0.3907 -0.6060
  102OSM    C5F10362   0.901   1.643   9.921  0.4838  0.6224 -0.0936
  102OSM    H5F10363   0.806   1.691   9.954  0.5151  0.4832  0.2091
  102OSM    H5G10364   0.866   1.547   9.878 -1.8535  1.3175  0.1054
  102OSM    C6F10365   0.972   1.734   9.811 -0.3017  0.6297 -0.0772
  102OSM    H6F10366   1.058   1.681   9.766 -1.5196 -1.5727  0.0414
  102OSM    H6G10367   1.010   1.827   9.859 -0.5927  1.2224 -0.9803
  102OSM    C7F10368   0.871   1.760   9.700 -0.7091 -0.6872  1.3122
  102OSM    H7F10369   0.787   1.810   9.753  0.8982  1.0504  2.3441
  102OSM    H7G10370   0.833   1.668   9.650 -1.4144  0.4320 -0.2913
  102OSM    C8F10371   0.925   1.864   9.596 -0.3281  0.5851 -0.1320
  102OSM    H8F10372   1.020   1.836   9.545  0.8862  0.7577  1.9070
  102OSM    H8G10373   0.943   1.956   9.655 -0.4561 -0.6860  2.0364
  102OSM    C9F10374   0.820   1.888   9.488  0.1791  0.3717 -0.4499
  102OSM    H9F10375   0.734   1.944   9.530  1.0255  0.7815  0.7953
  102OSM   C10F10376   0.818   1.856   9.350 -0.3155  0.5694  0.1492
  102OSM   H10F10377   0.728   1.887   9.293 -2.2105  1.3990  3.3558
  102OSM   C11F10378   0.923   1.773   9.276 -0.5293 -0.0028 -0.1121
  102OSM   H11F10379   0.958   1.686   9.335  1.8474  1.3333  0.5756
  102OSM   H11G10380   1.013   1.837   9.258 -1.7953  1.1360 -2.9485
  102OSM   C12F10381   0.863   1.716   9.146 -0.4204  0.3235 -0.2931
  102OSM   H12F10382   0.810   1.799   9.094 -0.9657 -0.5196 -1.1153
  102OSM   H12G10383   0.778   1.651   9.175  0.0797  0.1655  0.8681
  102OSM   C13F10384   0.967   1.653   9.048 -0.2930 -0.4355 -0.2155
  102OSM   H13F10385   1.021   1.568   9.095 -0.0106  0.2666  0.7616
  102OSM   H13G10386   1.049   1.723   9.022  0.7408 -0.3763  2.8973
  102OSM   C14F10387   0.889   1.615   8.924 -0.5865 -0.0816  0.0365
  102OSM   H14F10388   0.865   1.705   8.862 -2.0470 -0.3661  0.1640
  102OSM   H14G10389   0.804   1.552   8.956 -0.3961  0.3489  1.4544
  102OSM   C15F10390   0.966   1.528   8.826 -0.1413 -0.0253  0.9813
  102OSM   H15F10391   0.906   1.482   8.744  0.8301 -1.5522  1.0885
  102OSM   H15G10392   1.023   1.442   8.868 -1.7682 -0.6831  1.9225
  102OSM   C16F10393   1.074   1.607   8.749  0.3223 -0.5913 -0.2815
  102OSM   H16F10394   1.139   1.666   8.817  2.2084 -1.1546 -1.5224
  102OSM   H16G10395   1.026   1.682   8.683 -1.4509  1.2301  2.8615
  102OSM   C17F10396   1.172   1.521   8.674 -0.1368 -0.5552  0.3703
  102OSM   H17F10397   1.127   1.448   8.604  0.6231 -1.0488  0.3873
  102OSM   H17G10398   1.209   1.452   8.753  3.0659  2.4233  1.7472
  102OSM   C18F10399   1.283   1.595   8.599  0.1339 -0.2103  0.4257
  102OSM   H18F10400   1.337   1.666   8.664  1.2094 -0.7235  0.1200
  102OSM   H18G10401   1.233   1.647   8.515 -3.5512  1.0237  3.1441
  102OSM   H18H10402   1.357   1.519   8.566 -0.6928 -0.5711 -0.6827
  103OSM      N10403   3.280   3.582  11.072  0.0859 -0.6535 -0.0041
  103OSM    C1510404   3.237   3.446  11.130 -0.4359  0.4244  0.4451
  103OSM   H15A10405   3.225   3.374  11.050 -0.9063  0.5894  0.3669
  103OSM   H15B10406   3.141   3.449  11.177 -1.1678  0.4387 -0.9824
  103OSM   H15C10407   3.313   3.419  11.202  0.9561 -0.7164 -1.3578
  103OSM    C1410408   3.268   3.672  11.185  0.2920  0.4034  0.2715
  103OSM   H14A10409   3.166   3.673  11.220 -0.4350 -1.7812 -1.5369
  103OSM   H14B10410   3.303   3.771  11.160 -1.3204  1.1377  0.7580
  103OSM   H14C10411   3.337   3.648  11.264  1.2833  3.0741  0.3198
  103OSM    C1310412   3.415   3.582  11.013 -0.5424 -0.0644 -0.4639
  103OSM   H13A10413   3.492   3.551  11.081 -2.0142  0.5268  1.5792
  103OSM   H13B10414   3.441   3.681  10.980  0.0542 -0.0314  0.0927
  103OSM   H13C10415   3.434   3.514  10.932  0.5612 -1.4167  0.8700
  103OSM    C1210416   3.172   3.624  10.960  0.7327  0.4450 -0.2116
  103OSM   H12A10417   3.185   3.552  10.881  0.0605 -2.2424  1.9758
  103OSM   H12B10418   3.194   3.726  10.933 -0.3312  0.6061 -0.5335
  103OSM    C1110419   3.021   3.614  11.003  0.2393 -0.5026 -0.0752
  103OSM   H11A10420   2.997   3.691  11.079  0.1368 -1.3465  0.7577
  103OSM   H11B10421   2.995   3.512  11.037  0.5708 -0.8517 -0.8367
  103OSM      P10422   2.806   3.631  10.862 -0.0878  0.1778  0.1216
  103OSM    O1310423   2.758   3.509  10.934  0.0800 -0.3492 -0.4553
  103OSM    O1410424   2.746   3.756  10.904 -0.0609  0.1448 -0.1105
  103OSM    O1110425   2.778   3.619  10.705 -0.2738  0.0379  0.0995
  103OSM    O1210426   2.960   3.648  10.879  0.7430  0.9553 -0.4084
  103OSM    C1S10427   2.768   3.744  10.637  0.7266 -0.2776 -0.0721
  103OSM    H1S10428   2.816   3.832  10.686  1.1470  0.1778 -1.2449
  103OSM    H1T10429   2.660   3.770  10.638  0.8787  0.6040 -1.7741
  103OSM     NF10430   2.772   3.877  10.441 -0.3903 -0.1915 -0.7012
  103OSM    HNF10431   2.676   3.904  10.437 -1.1956 -2.3007  1.6668
  103OSM    C2S10432   2.779   3.737  10.478 -0.2548  0.2188 -0.1341
  103OSM    H2S10433   2.881   3.703  10.452 -0.6370 -2.6409  1.5925
  103OSM    C3S10434   2.690   3.635  10.410  0.1592  0.3162  0.5668
  103OSM    H3S10435   2.588   3.679  10.410 -0.4258 -0.5940 -3.5729
  103OSM     O310436   2.686   3.502  10.469 -0.1780  0.0103  0.1242
  103OSM    HO310437   2.732   3.517  10.552 -1.5962  0.9790  0.7817
  103OSM    C4S10438   2.731   3.632  10.264  0.9113 -0.0532  0.0150
  103OSM    H4S10439   2.684   3.705  10.196 -1.7351 -0.3895  1.3830
  103OSM    C5S10440   2.811   3.541  10.204 -0.8957 -0.1761 -0.6185
  103OSM    H5S10441   2.862   3.466  10.266 -0.3218  0.6492 -0.0763
  103OSM    C6S10442   2.848   3.540  10.063 -0.9669 -0.3728  0.1535
  103OSM    H6S10443   2.919   3.459  10.036 -0.6990 -0.1571  0.2064
  103OSM    H6T10444   2.906   3.633  10.049 -0.0439 -0.2810  3.6655
  103OSM    C7S10445   2.736   3.534   9.955  0.4236  0.2917 -0.5073
  103OSM    H7S10446   2.665   3.610   9.995  0.8353  0.6935 -0.5363
  103OSM    H7T10447   2.685   3.435   9.960 -1.6109  1.1779 -1.8901
  103OSM    C8S10448   2.781   3.567   9.807 -0.1459 -0.4613  0.4675
  103OSM    H8S10449   2.856   3.500   9.760  0.2423  1.6002 -2.0922
  103OSM    H8T10450   2.815   3.673   9.806 -1.9000  0.1407  1.6476
  103OSM    C9S10451   2.655   3.556   9.711 -0.6368 -0.1987  0.5675
  103OSM    H9S10452   2.580   3.603   9.778 -0.1137  2.1987 -0.4255
  103OSM    H9T10453   2.632   3.449   9.694  0.9291 -0.2134 -2.0695
  103OSM   C10S10454   2.664   3.634   9.582  0.0503  0.0102  0.2407
  103OSM   H10S10455   2.734   3.576   9.519 -0.1490 -0.2387  0.2479
  103OSM   H10T10456   2.704   3.735   9.606  0.6615 -0.3134  0.5947
  103OSM   C11S10457   2.529   3.651   9.502 -0.4716  0.3395 -0.7092
  103OSM   H11S10458   2.459   3.715   9.560 -0.7577  0.8043 -1.5406
  103OSM   H11T10459   2.483   3.552   9.487 -0.4060  0.1516  0.3147
  103OSM   C12S10460   2.550   3.714   9.365 -0.3869  0.0911  0.5840
  103OSM   H12S10461   2.620   3.656   9.301 -0.6934 -0.7416  0.9834
  103OSM   H12T10462   2.587   3.818   9.374 -1.5506  0.7008 -1.1121
  103OSM   C13S10463   2.420   3.713   9.280 -0.4544 -0.0697  0.0924
  103OSM   H13S10464   2.338   3.745   9.348  0.5595 -1.9186  2.2964
  103OSM   H13T10465   2.383   3.613   9.250  2.2511 -0.8100 -1.0391
  103OSM   C14S10466   2.439   3.811   9.161  0.3817  0.0130  0.0873
  103OSM   H14S10467   2.519   3.766   9.098 -2.9884 -2.2053 -3.0808
  103OSM   H14T10468   2.468   3.916   9.182 -2.3276  0.9809 -0.5527
  103OSM   C15S10469   2.316   3.813   9.069  0.4731 -0.4463  0.1972
  103OSM   H15S10470   2.226   3.834   9.131  0.4582 -1.1510  0.4316
  103OSM   H15T10471   2.304   3.712   9.024  1.4305  0.6895 -2.8347
  103OSM   C16S10472   2.320   3.901   8.950 -0.7013 -0.3801 -0.3097
  103OSM   H16S10473   2.243   3.871   8.876 -0.3896 -1.2001 -0.3127
  103OSM   H16T10474   2.418   3.889   8.899  0.1290 -0.3200  1.1935
  103OSM   C17S10475   2.294   4.044   8.984  0.2871  0.1739  0.9950
  103OSM   H17S10476   2.385   4.097   9.020 -0.4016  2.9144 -0.9245
  103OSM   H17T10477   2.205   4.063   9.047 -0.2346  3.7108 -0.5283
  103OSM   C18S10478   2.262   4.133   8.857  0.2409 -0.2039 -0.3915
  103OSM   H18S10479   2.168   4.119   8.799  0.4123 -0.6001 -0.5767
  103OSM   H18T10480   2.349   4.129   8.787  1.0244  2.2504  0.3519
  103OSM   H18U10481   2.256   4.239   8.887 -1.1295  0.0900 -1.5672
  103OSM    C1F10482   2.874   3.963  10.457  0.4468 -0.3334 -0.2206
  103OSM     OF10483   2.978   3.930  10.513 -0.4567 -0.1377 -0.4304
  103OSM    C2F10484   2.843   4.108  10.421  0.0979  0.5460 -0.7218
  103OSM    H2F10485   2.862   4.176  10.507  0.1973 -0.6387  0.2321
  103OSM    H2G10486   2.734   4.118  10.402 -0.3995 -3.7226 -1.0032
  103OSM    C3F10487   2.927   4.159  10.297 -0.3854  0.1244 -0.3289
  103OSM    H3F10488   3.031   4.187  10.326 -0.3483  1.2495 -1.4835
  103OSM    H3G10489   2.875   4.251  10.262 -1.5512 -0.7209 -0.8934
  103OSM    C4F10490   2.941   4.056  10.178  0.3614  0.0758  0.5063
  103OSM    H4F10491   2.944   3.951  10.212 -0.8438  0.7598  2.9438
  103OSM    H4G10492   3.030   4.085  10.117  0.0248  0.0751  0.0154
  103OSM    C5F10493   2.822   4.063  10.085 -0.4352 -0.0216 -0.2874
  103OSM    H5F10494   2.816   4.162  10.034 -0.2905 -0.9032 -2.0752
  103OSM    H5G10495   2.730   4.052  10.147  0.2573  3.3258  1.5899
  103OSM    C6F10496   2.822   3.948   9.980  0.2480  0.0697 -0.3250
  103OSM    H6F10497   2.722   3.929   9.935  0.1913 -1.3944  0.3639
  103OSM    H6G10498   2.854   3.855  10.031 -1.8478  0.2310  1.3838
  103OSM    C7F10499   2.917   3.970   9.860 -0.0250  0.3549 -0.2678
  103OSM    H7F10500   2.925   3.875   9.804  4.3228  0.7836 -0.7319
  103OSM    H7G10501   3.021   4.000   9.883 -0.5861  1.6626  0.6788
  103OSM    C8F10502   2.857   4.079   9.766 -0.7145  0.2643 -0.2637
  103OSM    H8F10503   2.943   4.102   9.699 -1.2935 -2.0462 -1.9607
  103OSM    H8G10504   2.837   4.170   9.827 -0.9337  1.2964 -1.8098
  103OSM    C9F10505   2.735   4.042   9.687 -0.0288 -0.6509 -0.3682
  103OSM    H9F10506   2.650   4.036   9.757  1.8013 -0.9024  1.9362
  103OSM   C10F10507   2.723   4.006   9.562 -0.2653  0.2882 -0.1776
  103OSM   H10F10508   2.623   3.985   9.522 -0.8221 -2.3337  2.2251
  103OSM   C11F10509   2.832   3.994   9.463 -0.0516  0.3519  0.3749
  103OSM   H11F10510   2.822   3.888   9.432 -1.9044 -0.0279  2.0346
  103OSM   H11G10511   2.937   4.005   9.497 -0.1591 -0.4749  0.9879
  103OSM   C12F10512   2.830   4.092   9.337 -0.1025  0.4953 -0.0038
  103OSM   H12F10513   2.927   4.082   9.284 -1.0955 -3.1983 -1.3698
  103OSM   H12G10514   2.814   4.199   9.366  0.4109  1.0315 -1.5966
  103OSM   C13F10515   2.710   4.054   9.245  0.1865  0.6563 -0.0925
  103OSM   H13F10516   2.718   3.950   9.206 -0.9227  0.3986  0.3352
  103OSM   H13G10517   2.616   4.047   9.305  1.0229 -1.1035  1.1118
  103OSM   C14F10518   2.700   4.157   9.132 -0.0664  0.9680 -0.0068
  103OSM   H14F10519   2.611   4.124   9.074  0.5474 -0.0335 -0.4166
  103OSM   H14G10520   2.784   4.141   9.061 -1.5764 -1.5239 -1.3676
  103OSM   C15F10521   2.687   4.307   9.154 -0.3999  0.1818  0.9862
  103OSM   H15F10522   2.775   4.340   9.215 -0.4964  0.2679  1.0811
  103OSM   H15G10523   2.592   4.320   9.211 -0.8653 -0.0056  0.2550
  103OSM   C16F10524   2.685   4.394   9.023  0.0360  0.6144 -0.3468
  103OSM   H16F10525   2.770   4.367   8.957 -1.0538  2.2677 -2.5555
  103OSM   H16G10526   2.699   4.501   9.050  2.5138  0.4079 -0.6349
  103OSM   C17F10527   2.564   4.363   8.929  0.0082 -0.6172 -0.0973
  103OSM   H17F10528   2.477   4.409   8.980 -1.3380 -4.0591  0.9583
  103OSM   H17G10529   2.544   4.255   8.914 -0.5141 -0.1538 -3.4306
  103OSM   C18F10530   2.585   4.433   8.789  0.8939 -0.2010 -0.3745
  103OSM   H18F10531   2.672   4.408   8.726  1.5162  1.7251 -0.3471
  103OSM   H18G10532   2.608   4.538   8.817  2.2826 -1.1765  2.4938
  103OSM   H18H10533   2.490   4.428   8.731  1.4936  0.8755 -1.5155
  104OSM      N10534   0.346   0.155  10.736  0.6436 -0.0724 -0.3860
  104OSM    C1510535   0.224   0.187  10.818 -0.1561  0.4875 -0.0115
  104OSM   H15A10536   0.169   0.261  10.761 -0.8965  1.3457  1.7499
  104OSM   H15B10537   0.241   0.221  10.919  2.0909 -2.4149  0.7309
  104OSM   H15C10538   0.167   0.097  10.838 -1.2792  0.6337 -2.2071
  104OSM    C1410539   0.298   0.090  10.605  0.5436 -0.0530  0.2912
  104OSM   H14A10540   0.376   0.073  10.532  1.7208 -0.2272  1.5555
  104OSM   H14B10541   0.217   0.147  10.564 -0.9135 -1.6439  0.8538
  104OSM   H14C10542   0.267  -0.009  10.637  1.7672  0.0849  2.1075
  104OSM    C1310543   0.414   0.282  10.705 -0.6249 -0.0984  0.1571
  104OSM   H13A10544   0.345   0.340  10.646 -0.6122  0.0410  0.2803
  104OSM   H13B10545   0.503   0.274  10.644  0.0537  2.7924  0.6374
  104OSM   H13C10546   0.436   0.350  10.786  0.1018  0.5000 -0.5294
  104OSM    C1210547   0.439   0.055  10.814 -0.3605 -0.1701  0.6158
  104OSM   H12A10548   0.389  -0.039  10.831  0.2376 -1.4174 -3.4799
  104OSM   H12B10549   0.477   0.105  10.903 -0.4457  0.5629  0.2467
  104OSM    C1110550   0.561   0.011  10.740  0.2770  0.2037  0.3082
  104OSM   H11A10551   0.530  -0.016  10.637  0.3134  1.4436 -0.0502
  104OSM   H11B10552   0.604  -0.079  10.788  1.6533  1.3265  1.2677
  104OSM      P10553   0.747   0.169  10.856  0.5010 -0.3179  0.2328
  104OSM    O1310554   0.792   0.302  10.824 -0.5086  0.1389  0.4805
  104OSM    O1410555   0.676   0.153  10.985  0.7264  0.0244 -0.3509
  104OSM    O1110556   0.872   0.076  10.857 -0.1597 -0.2424  0.3367
  104OSM    O1210557   0.657   0.117  10.735  0.4032  0.1171  0.4078
  104OSM    C1S10558   0.924   0.038  10.728  0.1309 -0.4883 -0.8975
  104OSM    H1S10559   0.850   0.025  10.647 -0.2788 -0.9906 -0.4471
  104OSM    H1T10560   0.973  -0.061  10.743 -1.2117 -0.9453  0.7765
  104OSM     NF10561   1.092   0.059  10.557 -0.4931 -0.2041  0.0105
  104OSM    HNF10562   1.161  -0.011  10.573  0.9178  1.2604  0.4553
  104OSM    C2S10563   1.039   0.128  10.671  0.0562  0.1416 -0.1229
  104OSM    H2S10564   0.993   0.226  10.646 -2.0994 -1.1421 -1.5032
  104OSM    C3S10565   1.148   0.159  10.778 -0.2005 -0.2508  1.0954
  104OSM    H3S10566   1.210   0.071  10.802  0.1825 -0.2168  0.2638
  104OSM     O310567   1.102   0.214  10.901  0.0060  0.8467  0.1696
  104OSM    HO310568   1.007   0.213  10.889  0.1455  0.8936 -1.1126
  104OSM    C4S10569   1.247   0.259  10.720 -0.1366 -0.3792  0.1502
  104OSM    H4S10570   1.228   0.364  10.748  2.0541 -0.0157  0.4194
  104OSM    C5S10571   1.363   0.226  10.662 -0.3297 -0.7221  0.6285
  104OSM    H5S10572   1.388   0.119  10.671  1.9970 -0.3523 -0.8464
  104OSM    C6S10573   1.463   0.316  10.595  0.1937 -0.1843 -0.1121
  104OSM    H6S10574   1.563   0.309  10.643 -0.2508  2.1402  1.2961
  104OSM    H6T10575   1.442   0.424  10.608 -0.7491 -0.1971 -1.3570
  104OSM    C7S10576   1.484   0.278  10.445 -0.6706  0.1523  0.1980
  104OSM    H7S10577   1.507   0.170  10.433 -0.3094 -0.1444  2.9962
  104OSM    H7T10578   1.582   0.327  10.425 -1.0616  0.7222 -0.3609
  104OSM    C8S10579   1.382   0.331  10.342 -0.4575 -0.6928 -0.1117
  104OSM    H8S10580   1.359   0.438  10.358  0.2089 -0.4068 -0.9818
  104OSM    H8T10581   1.288   0.272  10.345 -0.2957 -1.2361 -3.1086
  104OSM    C9S10582   1.433   0.309  10.196 -0.8999 -0.1879  0.2259
  104OSM    H9S10583   1.432   0.198  10.184 -2.4912 -0.2819  0.8874
  104OSM    H9T10584   1.535   0.346  10.175 -1.9902  1.3761 -2.9048
  104OSM   C10S10585   1.349   0.370  10.072 -0.1105  0.4310  0.0332
  104OSM   H10S10586   1.330   0.474  10.107 -1.0356  0.5469 -0.7931
  104OSM   H10T10587   1.256   0.311  10.060 -0.0877  0.3157  0.4124
  104OSM   C11S10588   1.428   0.354   9.938  0.4767  0.1901  0.2992
  104OSM   H11S10589   1.428   0.245   9.916 -1.0559  0.0146  1.0870
  104OSM   H11T10590   1.532   0.384   9.966  0.7053 -0.5125  0.2343
  104OSM   C12S10591   1.384   0.431   9.811 -0.2704  0.5671  0.6011
  104OSM   H12S10592   1.464   0.506   9.795  0.3709 -0.0298  0.9694
  104OSM   H12T10593   1.291   0.493   9.814  0.8801  2.3841  0.1694
  104OSM   C13S10594   1.365   0.334   9.692 -0.0705 -0.7106 -1.0791
  104OSM   H13S10595   1.267   0.282   9.703 -1.2649  1.4063 -1.2422
  104OSM   H13T10596   1.445   0.257   9.694  0.4198 -0.2177 -1.3640
  104OSM   C14S10597   1.370   0.420   9.563  0.1570  0.2695 -0.6407
  104OSM   H14S10598   1.475   0.444   9.536  1.2164 -2.6429  0.4475
  104OSM   H14T10599   1.305   0.508   9.580  1.9389  1.2477  1.4319
  104OSM   C15S10600   1.321   0.339   9.438  0.3092  0.3275 -0.8429
  104OSM   H15S10601   1.216   0.307   9.452  1.0050 -2.6274 -1.7232
  104OSM   H15T10602   1.387   0.250   9.426 -0.8135 -0.2702 -2.9735
  104OSM   C16S10603   1.330   0.424   9.312  0.5448  0.2311  0.0102
  104OSM   H16S10604   1.429   0.473   9.299  0.2815  0.5162 -0.9835
  104OSM   H16T10605   1.267   0.513   9.333  3.3854  2.0429  1.5247
  104OSM   C17S10606   1.296   0.341   9.191 -0.7467  0.2339  0.4345
  104OSM   H17S10607   1.190   0.309   9.195 -0.8422 -0.2678 -3.1190
  104OSM   H17T10608   1.356   0.248   9.188 -1.4675 -0.2989  1.6484
  104OSM   C18S10609   1.318   0.410   9.054 -0.3018 -1.1887 -0.5540
  104OSM   H18S10610   1.227   0.464   9.018  0.4691 -0.4559 -1.4559
  104OSM   H18T10611   1.337   0.337   8.973  0.3959  0.1710 -1.6568
  104OSM   H18U10612   1.407   0.476   9.050 -0.2929 -1.2737 -2.4128
  104OSM    C1F10613   1.026   0.058  10.442  0.4622  0.2931 -0.9891
  104OSM     OF10614   0.921   0.108  10.426  0.9440 -0.6159  0.1969
  104OSM    C2F10615   1.099  -0.007  10.336  0.1287  0.7730 -0.2758
  104OSM    H2F10616   1.166  -0.082  10.382  1.8362  0.5195 -2.9469
  104OSM    H2G10617   1.168   0.072  10.301  2.0202 -0.6245  0.1571
  104OSM    C3F10618   1.005  -0.043  10.222  0.3109 -0.3208 -0.4196
  104OSM    H3F10619   0.944   0.043  10.187 -0.7284 -1.1989 -0.8437
  104OSM    H3G10620   0.931  -0.113  10.268  1.4379  0.5552  3.0089
  104OSM    C4F10621   1.075  -0.110  10.105  0.4001  0.6657 -0.7411
  104OSM    H4F10622   1.089  -0.216  10.136  1.2819  1.5852  2.3198
  104OSM    H4G10623   1.175  -0.070  10.077  0.5525  0.4600 -0.4900
  104OSM    C5F10624   0.983  -0.105   9.981 -1.1592  0.0235  0.2160
  104OSM    H5F10625   0.978   0.005   9.969  0.3256  0.0863  0.0189
  104OSM    H5G10626   0.878  -0.139   9.997 -1.4030 -0.1185 -1.5695
  104OSM    C6F10627   1.029  -0.176   9.850  0.0371  0.0381  0.3989
  104OSM    H6F10628   1.044  -0.281   9.882 -3.7649 -0.8006 -0.1764
  104OSM    H6G10629   1.126  -0.129   9.821 -0.5191 -0.0257 -1.7653
  104OSM    C7F10630   0.925  -0.164   9.735 -0.1762  0.9735  0.1707
  104OSM    H7F10631   0.829  -0.212   9.763 -0.6602  0.1035 -2.6911
  104OSM    H7G10632   0.952  -0.241   9.660 -1.6605  0.5105  0.0752
  104OSM    C8F10633   0.912  -0.011   9.690  0.1435 -0.5940  0.2867
  104OSM    H8F10634   0.910   0.066   9.771 -0.9931 -0.0282 -0.2472
  104OSM    H8G10635   0.818  -0.006   9.631  0.3891  0.3013 -0.0490
  104OSM    C9F10636   1.029   0.014   9.602  0.1772 -1.1167  0.1164
  104OSM    H9F10637   1.113  -0.047   9.636 -1.1066 -3.0128  0.0377
  104OSM   C10F10638   1.042   0.090   9.491 -0.0829  0.0700 -0.3442
  104OSM   H10F10639   1.138   0.086   9.437  0.6123 -2.4955  0.9144
  104OSM   C11F10640   0.939   0.164   9.418 -0.1799  0.5395  0.7772
  104OSM   H11F10641   0.972   0.270   9.413 -0.4850  0.5870 -1.0166
  104OSM   H11G10642   0.843   0.161   9.473 -0.3931  1.2748  0.4567
  104OSM   C12F10643   0.927   0.112   9.272 -0.3794 -0.5619  0.2026
  104OSM   H12F10644   0.925   0.001   9.261  1.6748 -0.4429 -2.9998
  104OSM   H12G10645   1.019   0.130   9.212 -0.1857 -2.1111 -0.0135
  104OSM   C13F10646   0.814   0.180   9.181  0.4655 -0.3849  0.2052
  104OSM   H13F10647   0.849   0.285   9.190  3.7168 -1.2989 -0.6358
  104OSM   H13G10648   0.713   0.186   9.228  0.0499  0.9141 -0.8042
  104OSM   C14F10649   0.819   0.127   9.040  0.6540  0.2209 -0.4133
  104OSM   H14F10650   0.801   0.018   9.055  2.0699  0.2467  2.0243
  104OSM   H14G10651   0.926   0.140   9.013  1.1866  0.5161  1.6963
  104OSM   C15F10652   0.733   0.203   8.937 -0.2624  0.1862  0.1049
  104OSM   H15F10653   0.631   0.219   8.978 -0.0048 -1.9540  1.7499
  104OSM   H15G10654   0.720   0.140   8.846  0.6132  0.6231 -0.3320
  104OSM   C16F10655   0.800   0.332   8.881 -0.1290  1.0608  0.0498
  104OSM   H16F10656   0.907   0.307   8.865 -0.4411 -2.0440  1.8371
  104OSM   H16G10657   0.794   0.403   8.966 -2.4939  0.4524  0.4493
  104OSM   C17F10658   0.746   0.385   8.745 -0.0665  0.1207 -0.1834
  104OSM   H17F10659   0.637   0.366   8.747  0.2197 -1.6071  0.7194
  104OSM   H17G10660   0.786   0.313   8.671 -0.4162 -0.8270  0.5210
  104OSM   C18F10661   0.786   0.522   8.699  0.1778  0.1215  0.3411
  104OSM   H18F10662   0.769   0.610   8.765  2.5144  0.2032  0.8906
  104OSM   H18G10663   0.731   0.559   8.610  1.0439  1.2413  0.2625
  104OSM   H18H10664   0.892   0.527   8.667  0.5929 -3.6966  0.7077
  105OSM      N10665   0.053   4.949  11.085  0.1690  0.2959  0.1368
  105OSM    C1510666  -0.050   5.010  11.182 -0.6478  0.0838 -0.0989
  105OSM   H15A10667  -0.025   4.987  11.284  0.6538 -0.8341 -0.6050
  105OSM   H15B10668  -0.148   4.972  11.155 -0.4985 -1.2179  1.1278
  105OSM   H15C10669  -0.052   5.117  11.167 -0.1777 -0.0742 -1.4015
  105OSM    C1410670   0.180   5.014  11.116  0.2385  0.2385 -0.7432
  105OSM   H14A10671   0.191   5.008  11.224  0.7020 -3.4604 -0.8863
  105OSM   H14B10672   0.174   5.118  11.086  1.8168  1.5687  2.9439
  105OSM   H14C10673   0.267   4.981  11.062  2.8289  1.2341  2.4752
  105OSM    C1310674   0.060   4.800  11.112 -0.2850  0.1919  0.5810
  105OSM   H13A10675  -0.037   4.756  11.093 -0.6544  1.0827  0.3855
  105OSM   H13B10676   0.088   4.775  11.213 -2.7917  1.6304  1.7225
  105OSM   H13C10677   0.141   4.762  11.050  1.1411  1.4117  1.6264
  105OSM    C1210678   0.010   4.960  10.939 -0.7980 -0.8610 -0.0114
  105OSM   H12A10679  -0.072   4.892  10.918  1.5779 -3.6133 -1.0556
  105OSM   H12B10680   0.092   4.939  10.872 -1.1136  0.9064 -0.9885
  105OSM    C1110681  -0.048   5.099  10.895 -0.2534 -0.2657  0.4372
  105OSM   H11A10682  -0.138   5.124  10.955  0.5430  1.7953  0.8678
  105OSM   H11B10683  -0.064   5.084  10.786 -0.0229 -0.9882  0.5010
  105OSM      P10684   0.162   5.236  10.814  0.1566  0.2544 -0.4396
  105OSM    O1310685   0.082   5.290  10.699  0.8581  0.4419 -0.5509
  105OSM    O1410686   0.258   5.332  10.873 -0.1708 -0.1772  1.3050
  105OSM    O1110687   0.227   5.101  10.778 -0.6583 -0.0125  0.0186
  105OSM    O1210688   0.049   5.202  10.914  0.2833  0.9983 -0.0285
  105OSM    C1S10689   0.198   5.024  10.653  0.0741  0.1321 -0.6186
  105OSM    H1S10690   0.199   5.097  10.570 -0.8133  2.6405  1.4407
  105OSM    H1T10691   0.095   4.984  10.668  0.9214 -1.4686  1.4283
  105OSM     NF10692   0.239   4.835  10.502  0.1343  0.3195 -0.0296
  105OSM    HNF10693   0.192   4.748  10.513  1.4555 -0.3040  1.1434
  105OSM    C2S10694   0.277   4.896  10.628 -0.2593  0.0824  0.6886
  105OSM    H2S10695   0.384   4.925  10.621 -0.3044 -0.1103 -1.6311
  105OSM    C3S10696   0.264   4.794  10.740 -0.4115 -0.4205 -0.2441
  105OSM    H3S10697   0.157   4.765  10.737  0.0233 -2.0639 -1.7393
  105OSM     O310698   0.290   4.851  10.871 -0.2590  0.4369 -0.1521
  105OSM    HO310699   0.270   4.944  10.856  0.6159  0.3142 -2.5349
  105OSM    C4S10700   0.355   4.676  10.705  0.1057 -0.6455  0.2751
  105OSM    H4S10701   0.308   4.588  10.660 -0.0652  0.6915 -2.3357
  105OSM    C5S10702   0.490   4.672  10.708  0.0881 -0.4891  0.1304
  105OSM    H5S10703   0.549   4.756  10.749 -1.6072  0.0999  1.4722
  105OSM    C6S10704   0.565   4.553  10.678  0.1644 -0.1828 -0.0442
  105OSM    H6S10705   0.500   4.464  10.684 -0.8234  0.5560  0.4783
  105OSM    H6T10706   0.651   4.537  10.745 -0.2819 -1.2614  0.2869
  105OSM    C7S10707   0.624   4.568  10.538 -0.0402 -0.6439  0.3893
  105OSM    H7S10708   0.697   4.485  10.529  0.1817 -0.3944 -0.2488
  105OSM    H7T10709   0.680   4.664  10.529 -0.9821 -0.0332  0.9475
  105OSM    C8S10710   0.519   4.546  10.421  0.3271  0.1646 -0.0188
  105OSM    H8S10711   0.453   4.633  10.405 -0.3013 -0.1732  0.6417
  105OSM    H8T10712   0.451   4.459  10.438 -0.8554  0.8953 -0.9017
  105OSM    C9S10713   0.581   4.521  10.287 -0.0500 -0.0314 -0.3953
  105OSM    H9S10714   0.671   4.456  10.302  1.3720  1.9680  0.1494
  105OSM    H9T10715   0.613   4.611  10.229 -2.1085 -1.0269 -3.3206
  105OSM   C10S10716   0.479   4.445  10.193 -0.1729  0.2337  0.0455
  105OSM   H10S10717   0.390   4.510  10.183 -0.7541 -0.6449 -0.6556
  105OSM   H10T10718   0.464   4.343  10.234 -0.6978  0.1344 -0.3871
  105OSM   C11S10719   0.546   4.417  10.054  0.0564  0.0761  0.2503
  105OSM   H11S10720   0.626   4.341  10.065 -0.0823 -0.1275 -0.1285
  105OSM   H11T10721   0.601   4.508  10.019 -1.9824  1.4509  0.4611
  105OSM   C12S10722   0.456   4.360   9.944  0.1283 -0.0079 -0.3775
  105OSM   H12S10723   0.356   4.407   9.945  0.3760  0.5176 -0.2736
  105OSM   H12T10724   0.418   4.256   9.957 -1.9175  0.5998 -1.0701
  105OSM   C13S10725   0.523   4.372   9.802 -0.0997 -1.0630 -0.5098
  105OSM   H13S10726   0.623   4.324   9.799  0.2594 -0.3932  0.3210
  105OSM   H13T10727   0.526   4.483   9.793 -2.4572 -0.8380  0.6333
  105OSM   C14S10728   0.429   4.335   9.684  0.3116  0.1465 -0.3132
  105OSM   H14S10729   0.339   4.400   9.676 -0.9922 -1.7067 -1.4826
  105OSM   H14T10730   0.381   4.237   9.709 -4.2498  2.4275  0.8970
  105OSM   C15S10731   0.506   4.328   9.547 -0.0884 -0.1649 -0.3600
  105OSM   H15S10732   0.602   4.275   9.568  0.4492  1.1162  0.5090
  105OSM   H15T10733   0.543   4.427   9.512  1.2397 -0.2212  0.7702
  105OSM   C16S10734   0.437   4.266   9.423  0.3618  0.2074 -0.1325
  105OSM   H16S10735   0.369   4.337   9.371  0.4583  0.0733 -0.4432
  105OSM   H16T10736   0.382   4.172   9.441  1.6051 -0.2486  1.6172
  105OSM   C17S10737   0.542   4.222   9.323  0.1904  0.7820 -0.8269
  105OSM   H17S10738   0.621   4.161   9.373 -0.3521  0.4275 -0.3924
  105OSM   H17T10739   0.598   4.308   9.280  1.1497  0.0346 -1.1167
  105OSM   C18S10740   0.480   4.132   9.222  0.4796  0.3244  0.7144
  105OSM   H18S10741   0.417   4.182   9.146 -0.2388 -1.1290  0.3109
  105OSM   H18T10742   0.418   4.051   9.266  0.9909 -1.3744 -1.5241
  105OSM   H18U10743   0.561   4.075   9.172 -0.5559 -0.6746  0.1049
  105OSM    C1F10744   0.274   4.890  10.390  0.2464  1.1636 -0.2877
  105OSM     OF10745   0.334   4.996  10.390 -0.3580 -0.2797  0.4688
  105OSM    C2F10746   0.234   4.821  10.263  0.0080  0.4989  0.2175
  105OSM    H2F10747   0.134   4.850  10.224  0.2470  1.1886  0.1175
  105OSM    H2G10748   0.239   4.712  10.285  1.8924  0.0636 -1.9447
  105OSM    C3F10749   0.335   4.851  10.154 -0.3224 -0.2695  0.4763
  105OSM    H3F10750   0.442   4.856  10.184  0.3115  2.1035 -1.7819
  105OSM    H3G10751   0.320   4.960  10.134 -0.3634 -0.5230 -1.0104
  105OSM    C4F10752   0.323   4.770  10.021  0.4501  0.4364  0.3285
  105OSM    H4F10753   0.328   4.660  10.035  1.1751  0.3040 -0.8738
  105OSM    H4G10754   0.416   4.796   9.966  0.2035 -1.1466 -0.9132
  105OSM    C5F10755   0.184   4.790   9.954 -0.2115  0.1226 -1.2417
  105OSM    H5F10756   0.170   4.899   9.939 -1.5925  0.3165  1.0711
  105OSM    H5G10757   0.103   4.766  10.026  0.9259  1.3200  0.5219
  105OSM    C6F10758   0.158   4.705   9.829 -0.6595  0.3533  0.0624
  105OSM    H6F10759   0.062   4.737   9.784 -0.3390  0.4389 -0.5767
  105OSM    H6G10760   0.146   4.599   9.860 -4.3866  0.2494 -1.2312
  105OSM    C7F10761   0.268   4.721   9.726  0.7968  0.2194 -0.0491
  105OSM    H7F10762   0.356   4.659   9.752 -0.0335 -0.6062  0.8373
  105OSM    H7G10763   0.301   4.827   9.733 -0.4155  0.5399  0.9752
  105OSM    C8F10764   0.213   4.667   9.593 -0.2615  0.7686  0.2882
  105OSM    H8F10765   0.127   4.730   9.563 -2.5409 -2.5295 -0.7631
  105OSM    H8G10766   0.167   4.568   9.614  1.0695  0.0494 -0.0076
  105OSM    C9F10767   0.322   4.658   9.486 -0.5035 -0.6357 -0.0050
  105OSM    H9F10768   0.406   4.602   9.530 -0.5206 -1.4006 -0.9039
  105OSM   C10F10769   0.332   4.708   9.362  0.1112  1.0535 -0.1102
  105OSM   H10F10770   0.420   4.677   9.304 -0.8559 -2.2713  0.0265
  105OSM   C11F10771   0.230   4.783   9.288 -0.7703 -0.0812  0.3765
  105OSM   H11F10772   0.269   4.881   9.253 -0.6236  0.8040  2.8201
  105OSM   H11G10773   0.136   4.802   9.343  0.5567  1.9750  2.1330
  105OSM   C12F10774   0.200   4.710   9.156 -0.1506 -0.2842 -0.3116
  105OSM   H12F10775   0.125   4.774   9.105  2.1141 -0.0926 -3.7242
  105OSM   H12G10776   0.163   4.609   9.181 -3.3285  0.8149 -0.1085
  105OSM   C13F10777   0.317   4.692   9.052  0.2996  0.0417 -0.5103
  105OSM   H13F10778   0.413   4.647   9.084  0.3100 -0.4330 -1.1920
  105OSM   H13G10779   0.337   4.800   9.030 -0.6253  0.3841  0.2677
  105OSM   C14F10780   0.271   4.613   8.926  1.0763  0.3580  0.6918
  105OSM   H14F10781   0.348   4.632   8.848  1.4464 -1.0511  0.6928
  105OSM   H14G10782   0.172   4.648   8.890  0.9829 -0.2629  0.3355
  105OSM   C15F10783   0.265   4.458   8.952  0.1407 -0.0962 -0.0330
  105OSM   H15F10784   0.232   4.444   9.057 -3.9395  0.2202 -1.1017
  105OSM   H15G10785   0.371   4.427   8.946  0.1866  0.1292 -0.4251
  105OSM   C16F10786   0.177   4.372   8.854 -0.0411 -0.1248 -0.4446
  105OSM   H16F10787   0.070   4.397   8.870 -0.3608 -0.1298 -2.3171
  105OSM   H16G10788   0.189   4.262   8.860 -1.2894 -0.2525 -0.0278
  105OSM   C17F10789   0.191   4.413   8.708 -0.0339 -0.3307  0.4016
  105OSM   H17F10790   0.296   4.397   8.679  0.0114  1.8182 -0.8764
  105OSM   H17G10791   0.162   4.519   8.693  0.8671  0.1272  1.7173
  105OSM   C18F10792   0.105   4.327   8.617  0.2040  0.0304 -0.5546
  105OSM   H18F10793   0.132   4.220   8.622 -1.7141 -0.6639 -2.9064
  105OSM   H18G10794   0.121   4.362   8.513  1.5953 -0.8699 -0.6632
  105OSM   H18H10795   0.001   4.328   8.655  0.9844 -2.0420  1.8476
  106OSM      N10796   1.244   2.246  11.023  0.2685 -0.3341  0.7799
  106OSM    C1510797   1.127   2.167  11.064 -0.8242 -0.1734 -0.4815
  106OSM   H15A10798   1.114   2.078  11.004 -3.2601 -0.3531  0.2160
  106OSM   H15B10799   1.042   2.234  11.063 -0.2437  0.5839 -1.1132
  106OSM   H15C10800   1.144   2.137  11.166  0.6360  0.6038 -0.4665
  106OSM    C1410801   1.234   2.367  11.108  0.3155  0.7745 -0.5932
  106OSM   H14A10802   1.218   2.333  11.210  2.4730 -0.5380 -0.6572
  106OSM   H14B10803   1.158   2.438  11.079 -0.7139  0.1240  0.3827
  106OSM   H14C10804   1.327   2.421  11.107  0.5442  0.4006 -2.5408
  106OSM    C1310805   1.376   2.174  11.052 -0.2045 -0.1357  0.5415
  106OSM   H13A10806   1.366   2.068  11.034  1.0184  0.0456 -1.5915
  106OSM   H13B10807   1.410   2.189  11.153 -0.3083  2.8770  0.2119
  106OSM   H13C10808   1.456   2.196  10.983 -1.1207 -2.1819 -1.2847
  106OSM    C1210809   1.236   2.285  10.880 -0.2978  0.1233  0.1311
  106OSM   H12A10810   1.317   2.355  10.866 -0.0455  0.1868  1.7546
  106OSM   H12B10811   1.149   2.344  10.854 -0.7892 -1.1535 -1.2900
  106OSM    C1110812   1.257   2.175  10.771  0.0423  0.0162 -0.0348
  106OSM   H11A10813   1.347   2.116  10.799 -0.0812  0.1050  0.5656
  106OSM   H11B10814   1.277   2.218  10.670  0.0547 -2.2335 -1.0573
  106OSM      P10815   1.022   2.102  10.681  0.4358 -0.2527  0.3293
  106OSM    O1310816   0.938   1.983  10.704 -0.3328 -0.2319 -0.6463
  106OSM    O1410817   0.958   2.230  10.686  0.7613  0.2549 -0.0110
  106OSM    O1110818   1.086   2.081  10.533  0.5233 -0.0886  0.0243
  106OSM    O1210819   1.143   2.090  10.785 -0.6273 -0.5333  0.5575
  106OSM    C1S10820   1.189   1.988  10.499 -0.3460  0.4016  0.9148
  106OSM    H1S10821   1.183   1.892  10.556  0.7849 -0.3939 -0.2456
  106OSM    H1T10822   1.288   2.026  10.529 -0.5244  1.5011  0.1488
  106OSM     NF10823   1.297   1.855  10.330 -0.0947  0.1559  0.2678
  106OSM    HNF10824   1.388   1.892  10.309  1.0082  0.6550  4.9299
  106OSM    C2S10825   1.195   1.955  10.345  0.1573 -0.8882 -0.1713
  106OSM    H2S10826   1.097   1.920  10.307  0.4291 -0.3348 -1.4467
  106OSM    C3S10827   1.214   2.084  10.258  0.1394 -0.2303  0.6782
  106OSM    H3S10828   1.304   2.145  10.278 -1.3225  2.1706  0.3633
  106OSM     O310829   1.109   2.179  10.277 -0.0684 -0.3278  0.0735
  106OSM    HO310830   1.077   2.153  10.364 -0.6263 -1.2490 -0.3994
  106OSM    C4S10831   1.209   2.054  10.112  0.6510  0.2450  1.1702
  106OSM    H4S10832   1.113   2.025  10.067  2.1813 -1.7781 -1.0398
  106OSM    C5S10833   1.317   2.050  10.019  0.6891  0.1157 -0.1271
  106OSM    H5S10834   1.420   2.065  10.056  0.6277 -1.2986  0.6942
  106OSM    C6S10835   1.303   2.018   9.874  0.6872  0.1329  0.5131
  106OSM    H6S10836   1.214   1.954   9.856 -0.0145  1.2118  0.0467
  106OSM    H6T10837   1.393   1.957   9.849  0.7461  0.8137 -1.0697
  106OSM    C7S10838   1.297   2.142   9.775  0.4482  0.7283 -0.7240
  106OSM    H7S10839   1.391   2.201   9.784  0.5925  0.2893  1.1982
  106OSM    H7T10840   1.206   2.194   9.812 -0.3700 -0.6096 -0.7845
  106OSM    C8S10841   1.260   2.106   9.637 -0.4785  0.5196  0.6080
  106OSM    H8S10842   1.274   2.180   9.555 -1.6341  0.0677 -0.0316
  106OSM    H8T10843   1.151   2.081   9.638 -0.6158  1.0671  2.2360
  106OSM    C9S10844   1.318   1.974   9.581 -0.1862 -0.5048 -0.9039
  106OSM    H9S10845   1.268   1.895   9.640 -0.0607  0.1862  0.1653
  106OSM    H9T10846   1.426   1.970   9.608 -0.3696  0.0708 -0.0643
  106OSM   C10S10847   1.305   1.956   9.432  0.0815  0.0248 -0.0314
  106OSM   H10S10848   1.346   2.046   9.382 -0.3501  0.1248 -0.2096
  106OSM   H10T10849   1.197   1.948   9.406  0.3176  1.8375 -1.8033
  106OSM   C11S10850   1.370   1.823   9.379 -0.2372  0.0389  0.4015
  106OSM   H11S10851   1.327   1.736   9.434 -0.5084 -0.8386 -1.1154
  106OSM   H11T10852   1.479   1.817   9.401 -0.3261  0.0590  0.8505
  106OSM   C12S10853   1.359   1.797   9.225 -0.1951  0.8364 -0.6108
  106OSM   H12S10854   1.251   1.796   9.199 -0.4492  0.2296  0.4318
  106OSM   H12T10855   1.394   1.693   9.212 -1.9391 -0.2413  2.4883
  106OSM   C13S10856   1.452   1.897   9.151 -0.8711  0.3810 -0.4010
  106OSM   H13S10857   1.557   1.870   9.178 -1.5696 -1.1059  0.9924
  106OSM   H13T10858   1.440   2.003   9.182 -0.8259  1.2814 -3.1316
  106OSM   C14S10859   1.437   1.889   9.002 -0.0327 -0.4107 -0.7959
  106OSM   H14S10860   1.505   1.966   8.959 -0.7192 -0.2157 -1.5553
  106OSM   H14T10861   1.334   1.909   8.964 -0.4679 -3.1183 -1.2593
  106OSM   C15S10862   1.485   1.758   8.938 -0.4536 -0.6671  0.2696
  106OSM   H15S10863   1.458   1.752   8.831  0.1866 -3.0284  0.1851
  106OSM   H15T10864   1.432   1.666   8.973  1.5336 -1.3858  1.5777
  106OSM   C16S10865   1.638   1.728   8.954  0.0560 -0.0093 -0.1650
  106OSM   H16S10866   1.664   1.724   9.062 -3.5153  1.9727  0.9600
  106OSM   H16T10867   1.694   1.816   8.918 -0.4473  1.5725  2.6722
  106OSM   C17S10868   1.683   1.600   8.872  0.4810 -0.0840  0.2377
  106OSM   H17S10869   1.622   1.512   8.901  1.8084 -1.6452 -1.4597
  106OSM   H17T10870   1.788   1.590   8.907  0.0749  0.0773  1.5650
  106OSM   C18S10871   1.693   1.612   8.711 -0.5064 -0.2385 -0.3887
  106OSM   H18S10872   1.595   1.573   8.677  0.5265 -3.0557 -0.4078
  106OSM   H18T10873   1.777   1.551   8.671 -0.4276 -0.3221 -0.0968
  106OSM   H18U10874   1.710   1.718   8.685  0.1265 -0.3613 -0.4919
  106OSM    C1F10875   1.272   1.732  10.367 -0.4986 -0.0336  0.3966
  106OSM     OF10876   1.154   1.701  10.388  0.0453 -0.8239 -0.6231
  106OSM    C2F10877   1.381   1.639  10.393  0.5905  0.0029  0.4558
  106OSM    H2F10878   1.404   1.633  10.501 -4.6265  0.6200  1.8471
  106OSM    H2G10879   1.475   1.673  10.343  0.4394 -0.3328 -0.0728
  106OSM    C3F10880   1.353   1.499  10.333 -0.0728 -0.4141 -0.3011
  106OSM    H3F10881   1.272   1.446  10.388  1.0203  0.9820  2.9195
  106OSM    H3G10882   1.448   1.441  10.339 -1.6604 -3.0675  1.5386
  106OSM    C4F10883   1.319   1.513  10.185 -0.0854  0.4472  0.5443
  106OSM    H4F10884   1.225   1.571  10.174  0.4044  1.0278 -0.8343
  106OSM    H4G10885   1.309   1.414  10.137 -1.6710  1.9102 -2.4474
  106OSM    C5F10886   1.426   1.583  10.093 -0.6829 -0.5462 -0.0372
  106OSM    H5F10887   1.521   1.526  10.100  0.3728  1.0482 -0.7310
  106OSM    H5G10888   1.441   1.688  10.125 -0.0776  0.0527 -2.1016
  106OSM    C6F10889   1.389   1.574   9.951  0.0799  0.1948  0.4254
  106OSM    H6F10890   1.307   1.646   9.926  0.3001  0.2868 -0.0477
  106OSM    H6G10891   1.355   1.469   9.936 -1.3950  0.7051 -0.0854
  106OSM    C7F10892   1.500   1.602   9.844  0.3978  0.1335 -0.1285
  106OSM    H7F10893   1.588   1.534   9.850 -0.4116 -1.0615 -1.2073
  106OSM    H7G10894   1.531   1.708   9.857 -2.0347  0.8330  0.5057
  106OSM    C8F10895   1.441   1.591   9.703  0.5970  0.0269 -0.0373
  106OSM    H8F10896   1.513   1.645   9.638 -0.4352  3.2477  1.3117
  106OSM    H8G10897   1.340   1.637   9.706  0.7515  0.5495 -1.9516
  106OSM    C9F10898   1.424   1.442   9.675  0.2769 -0.4128 -0.0564
  106OSM    H9F10899   1.346   1.390   9.733 -0.4540 -1.3784 -1.8252
  106OSM   C10F10900   1.495   1.385   9.584 -1.0947 -0.0304  0.1422
  106OSM   H10F10901   1.472   1.278   9.578  0.8538 -0.5093  0.3520
  106OSM   C11F10902   1.605   1.432   9.503  0.6760  0.3061  0.0887
  106OSM   H11F10903   1.679   1.349   9.495  1.5364  1.0530  0.0758
  106OSM   H11G10904   1.658   1.517   9.551 -0.9919  1.4015  0.0813
  106OSM   C12F10905   1.576   1.476   9.359 -0.5214  0.0500 -0.5177
  106OSM   H12F10906   1.669   1.503   9.305 -1.2264  0.0564 -1.7688
  106OSM   H12G10907   1.524   1.572   9.381 -0.9597 -0.4545  0.7206
  106OSM   C13F10908   1.495   1.379   9.277 -0.1402 -0.1694 -0.2953
  106OSM   H13F10909   1.389   1.400   9.304  0.7389  5.2525  0.0745
  106OSM   H13G10910   1.517   1.275   9.310  1.8710 -0.0422 -1.1131
  106OSM   C14F10911   1.517   1.386   9.128 -0.0537 -0.3279  0.1336
  106OSM   H14F10912   1.623   1.360   9.107 -0.6261 -0.6087 -2.9170
  106OSM   H14G10913   1.498   1.493   9.102 -0.7409 -0.2163  1.0379
  106OSM   C15F10914   1.425   1.293   9.049 -0.4356 -0.3923 -0.0842
  106OSM   H15F10915   1.316   1.317   9.051 -0.7874 -0.9936 -4.2260
  106OSM   H15G10916   1.456   1.189   9.071  3.3873  0.3145 -1.4668
  106OSM   C16F10917   1.447   1.286   8.894 -0.3250  0.1191  0.0752
  106OSM   H16F10918   1.556   1.275   8.874  0.1255  1.6259  1.4189
  106OSM   H16G10919   1.416   1.378   8.839 -0.4194 -0.5267 -0.9734
  106OSM   C17F10920   1.367   1.172   8.824  0.0577 -0.3847 -0.3338
  106OSM   H17F10921   1.412   1.071   8.837 -1.6094 -1.1076  0.1303
  106OSM   H17G10922   1.374   1.180   8.713  1.4650 -1.0054 -0.3097
  106OSM   C18F10923   1.222   1.164   8.863  0.0381 -0.4504  0.1591
  106OSM   H18F10924   1.171   1.259   8.837 -0.0869  1.0027  4.6769
  106OSM   H18G10925   1.192   1.134   8.966 -1.4780  1.6016  0.3882
  106OSM   H18H10926   1.182   1.091   8.790 -1.0337  4.0665 -4.3265
  107OSM      N10927   2.967   0.838  11.268 -0.6215  0.0764 -0.6629
  107OSM    C1510928   3.095   0.854  11.195 -0.3958  0.6294  0.0750
  107OSM   H15A10929   3.076   0.875  11.091  0.7102 -2.4984 -0.8697
  107OSM   H15B10930   3.161   0.770  11.212  1.6355  2.5038  2.1883
  107OSM   H15C10931   3.155   0.936  11.232  0.7451  0.4366 -1.2837
  107OSM    C1410932   2.870   0.765  11.181 -0.0709  0.9361 -0.5921
  107OSM   H14A10933   2.888   0.658  11.188  1.9702  1.3254  1.3891
  107OSM   H14B10934   2.866   0.807  11.082  0.0758  1.4953 -0.3633
  107OSM   H14C10935   2.772   0.779  11.223 -0.8411 -0.8872 -1.6618
  107OSM    C1310936   2.985   0.766  11.397  0.4734 -0.1763 -0.0569
  107OSM   H13A10937   2.893   0.766  11.454  1.1190  0.2572  1.0048
  107OSM   H13B10938   3.061   0.811  11.459  1.8837 -3.3154  0.7104
  107OSM   H13C10939   3.005   0.662  11.378 -1.0579 -0.4279 -0.4293
  107OSM    C1210940   2.901   0.975  11.296  0.0535 -0.6225  0.0212
  107OSM   H12A10941   2.959   1.023  11.374  2.9210 -2.1074 -1.0595
  107OSM   H12B10942   2.803   0.956  11.337 -0.6982 -0.3018 -1.5508
  107OSM    C1110943   2.886   1.067  11.174 -0.3120 -0.6795  0.0343
  107OSM   H11A10944   2.812   1.142  11.211  0.1256  0.2301 -0.9006
  107OSM   H11B10945   2.851   1.000  11.093 -0.0285  1.2979 -1.8071
  107OSM      P10946   3.055   1.165  11.014  0.1411  0.4116  0.5569
  107OSM    O1310947   3.037   1.313  10.999  0.0849 -0.4697  0.0566
  107OSM    O1410948   3.193   1.111  10.996  0.4050  0.0530  0.3309
  107OSM    O1110949   2.960   1.079  10.905 -0.6522 -0.1403  0.1290
  107OSM    O1210950   3.016   1.118  11.153  0.0565  0.8304 -0.7914
  107OSM    C1S10951   3.023   1.073  10.775  0.3441 -0.3603  0.0372
  107OSM    H1S10952   3.083   0.981  10.761 -1.7155 -1.8488  0.6593
  107OSM    H1T10953   3.082   1.166  10.759 -0.1389  0.7770  3.9307
  107OSM     NF10954   2.981   1.046  10.542  0.4342 -1.1575  0.1677
  107OSM    HNF10955   2.970   1.119  10.475 -0.6456  0.9507  2.4768
  107OSM    C2S10956   2.909   1.064  10.667 -0.8942  0.7523 -0.4287
  107OSM    H2S10957   2.858   0.970  10.697  1.0566 -0.0454  0.5373
  107OSM    C3S10958   2.805   1.186  10.664  0.3501  0.3819  1.2456
  107OSM    H3S10959   2.865   1.274  10.631  1.8229 -0.1658  2.3608
  107OSM     O310960   2.759   1.223  10.793  0.1870 -0.0920  0.2385
  107OSM    HO310961   2.819   1.168  10.843  0.2247  0.1566  0.4696
  107OSM    C4S10962   2.693   1.166  10.566 -0.3212 -0.1532 -0.4462
  107OSM    H4S10963   2.632   1.075  10.578 -0.6848  0.1674  0.1748
  107OSM    C5S10964   2.663   1.254  10.464 -0.1689  0.2903 -0.1784
  107OSM    H5S10965   2.725   1.344  10.455  1.4599 -0.9802 -3.0571
  107OSM    C6S10966   2.557   1.228  10.360  0.2742 -0.5226 -0.1283
  107OSM    H6S10967   2.509   1.328  10.355  1.2928  0.0265  0.5973
  107OSM    H6T10968   2.481   1.152  10.389  2.4046 -2.3571  0.9815
  107OSM    C7S10969   2.622   1.193  10.225 -0.7534 -0.5270 -0.2787
  107OSM    H7S10970   2.695   1.276  10.219  2.8348 -3.3246  1.0999
  107OSM    H7T10971   2.543   1.201  10.147 -0.3020 -0.7937 -0.7603
  107OSM    C8S10972   2.688   1.056  10.201  0.0454  0.0963  0.4171
  107OSM    H8S10973   2.601   0.989  10.181  0.9322 -0.7424 -0.7772
  107OSM    H8T10974   2.749   1.010  10.281 -0.5700 -0.7728  0.3921
  107OSM    C9S10975   2.782   1.039  10.078 -0.2246 -0.1215  0.3284
  107OSM    H9S10976   2.815   0.934  10.083  0.2474  0.0171  0.1616
  107OSM    H9T10977   2.873   1.097  10.104 -0.5475  0.2309  0.6829
  107OSM   C10S10978   2.717   1.062   9.947 -0.2967  0.5906 -0.2253
  107OSM   H10S10979   2.704   1.172   9.941  0.7290  0.8436  1.5296
  107OSM   H10T10980   2.620   1.009   9.955 -0.0967 -0.0684 -1.8564
  107OSM   C11S10981   2.796   1.003   9.825  0.5381 -0.3319 -0.1466
  107OSM   H11S10982   2.809   0.895   9.846  0.2059  0.0998  2.6957
  107OSM   H11T10983   2.900   1.042   9.820 -0.4641  2.7612  0.6848
  107OSM   C12S10984   2.745   1.044   9.689 -0.2572 -0.2338 -0.2032
  107OSM   H12S10985   2.737   1.155   9.679  0.5977 -0.1444  0.0345
  107OSM   H12T10986   2.643   1.000   9.678 -0.2464 -0.1786 -0.5455
  107OSM   C13S10987   2.845   0.989   9.580 -0.0784 -0.8953  0.2525
  107OSM   H13S10988   2.874   0.885   9.606  0.8224 -0.4025  1.3268
  107OSM   H13T10989   2.940   1.046   9.588 -0.6658  0.0356  0.8462
  107OSM   C14S10990   2.791   1.008   9.440  0.0680  0.2182 -0.0923
  107OSM   H14S10991   2.773   1.117   9.423  0.5147  0.9198  3.2359
  107OSM   H14T10992   2.702   0.944   9.426  0.5682 -0.2678 -1.2388
  107OSM   C15S10993   2.885   0.952   9.326 -0.3206  0.2353 -0.0874
  107OSM   H15S10994   2.898   0.843   9.342  2.1571  0.2907 -1.1353
  107OSM   H15T10995   2.986   0.995   9.342  1.1105 -2.8042 -0.3221
  107OSM   C16S10996   2.823   0.976   9.190  0.6318  0.2827 -0.9206
  107OSM   H16S10997   2.813   1.087   9.192 -1.6232  0.1504  1.7876
  107OSM   H16T10998   2.717   0.941   9.189  0.1309  1.7111 -1.7670
  107OSM   C17S10999   2.903   0.922   9.077 -0.4643  0.1987  1.2792
  107OSM   H17S11000   2.857   0.824   9.052  0.4307  0.3484 -1.3091
  107OSM   H17T11001   3.011   0.906   9.096 -0.6822 -1.3072  1.3764
  107OSM   C18S11002   2.898   1.001   8.945  0.2715  1.1518 -0.0292
  107OSM   H18S11003   2.945   0.936   8.867  0.6399  2.3123 -0.8012
  107OSM   H18T11004   2.951   1.098   8.946 -0.1797  1.4062  1.7849
  107OSM   H18U11005   2.790   1.012   8.921  0.8070  2.2632 -2.2534
  107OSM    C1F11006   3.058   0.943  10.512 -0.1427 -0.7122  0.5423
  107OSM     OF11007   3.062   0.843  10.582 -0.3756 -0.2548 -0.4377
  107OSM    C2F11008   3.133   0.952  10.380  0.0417 -0.1146  0.0662
  107OSM    H2F11009   3.242   0.931  10.391  0.0114  0.3919  1.4457
  107OSM    H2G11010   3.123   1.054  10.337 -2.3556 -0.5344 -0.5481
  107OSM    C3F11011   3.074   0.852  10.278 -0.6277 -0.5238  0.2018
  107OSM    H3F11012   2.963   0.839  10.275 -0.5535 -1.6679  1.4536
  107OSM    H3G11013   3.110   0.753  10.313 -1.3278 -0.9549 -0.2694
  107OSM    C4F11014   3.130   0.868  10.134 -0.0521  0.3915 -0.3071
  107OSM    H4F11015   3.238   0.887  10.154 -0.5344  1.1085  1.9315
  107OSM    H4G11016   3.088   0.954  10.077  2.8658  1.6017 -0.8190
  107OSM    C5F11017   3.119   0.734  10.058  0.1811 -0.5103  0.2666
  107OSM    H5F11018   3.013   0.708  10.081  0.2318  0.7105  2.1745
  107OSM    H5G11019   3.184   0.652  10.094  0.9418 -1.3168 -2.7114
  107OSM    C6F11020   3.135   0.748   9.904 -0.7921 -0.5197  0.4358
  107OSM    H6F11021   3.235   0.789   9.880 -1.7007 -0.0561 -3.0343
  107OSM    H6G11022   3.064   0.812   9.848 -0.1210 -3.2892 -4.0640
  107OSM    C7F11023   3.126   0.616   9.835 -0.6583  0.1821  0.2534
  107OSM    H7F11024   3.038   0.555   9.865 -0.3945 -0.6867 -0.6772
  107OSM    H7G11025   3.199   0.544   9.878 -0.3296  1.0700  1.2353
  107OSM    C8F11026   3.123   0.623   9.678  0.4324 -0.1725 -0.6717
  107OSM    H8F11027   3.048   0.702   9.658  0.4241  0.1529  0.5902
  107OSM    H8G11028   3.091   0.525   9.636  2.4252 -0.4559 -1.6796
  107OSM    C9F11029   3.259   0.658   9.626 -0.1027 -0.4926 -0.8401
  107OSM    H9F11030   3.335   0.688   9.699 -2.4216  2.1791  0.6572
  107OSM   C10F11031   3.285   0.659   9.494 -0.4409 -0.6098 -0.0581
  107OSM   H10F11032   3.387   0.682   9.459 -0.6503 -0.8293 -0.8280
  107OSM   C11F11033   3.193   0.634   9.381  0.2350  0.2240 -0.6884
  107OSM   H11F11034   3.146   0.723   9.333 -0.3624  0.1078 -0.3298
  107OSM   H11G11035   3.101   0.580   9.412 -0.7404  2.5552  0.7618
  107OSM   C12F11036   3.260   0.547   9.269 -0.2281 -0.0358 -0.0337
  107OSM   H12F11037   3.174   0.518   9.204 -0.5038 -0.4720  0.5151
  107OSM   H12G11038   3.312   0.454   9.301  0.2765 -1.0428 -3.4216
  107OSM   C13F11039   3.358   0.634   9.188 -0.6709 -0.0260 -0.5146
  107OSM   H13F11040   3.458   0.613   9.232 -0.8656 -0.8193 -0.4266
  107OSM   H13G11041   3.318   0.738   9.194  2.3372  1.2090 -0.4676
  107OSM   C14F11042   3.361   0.600   9.040 -0.2581  0.8295 -0.4781
  107OSM   H14F11043   3.256   0.582   9.010 -0.6966  2.5023 -0.0206
  107OSM   H14G11044   3.425   0.510   9.029  0.4769  1.4972 -1.9464
  107OSM   C15F11045   3.418   0.703   8.942 -0.0247 -0.0678 -1.0385
  107OSM   H15F11046   3.506   0.760   8.978 -2.0994  2.5451  0.2517
  107OSM   H15G11047   3.346   0.788   8.952  0.8103  0.6202 -0.7652
  107OSM   C16F11048   3.424   0.656   8.796 -0.7347 -0.7158 -0.3804
  107OSM   H16F11049   3.322   0.639   8.757 -0.3068 -0.2676 -1.7613
  107OSM   H16G11050   3.476   0.558   8.794 -1.6077 -1.1751 -1.7413
  107OSM   C17F11051   3.492   0.749   8.697  0.2673 -0.1666  0.0603
  107OSM   H17F11052   3.436   0.844   8.688 -0.9730 -0.8987 -0.2748
  107OSM   H17G11053   3.479   0.706   8.595 -0.3308 -0.0257  0.0731
  107OSM   C18F11054   3.635   0.785   8.718 -0.2873  0.6724 -0.3971
  107OSM   H18F11055   3.669   0.870   8.656  0.0742  0.5293 -0.4002
  107OSM   H18G11056   3.698   0.694   8.713 -1.7136 -0.3652  0.0039
  107OSM   H18H11057   3.654   0.811   8.825 -1.7178  0.1406  0.0061
  108OSM      N11058   0.120   5.736  11.103 -0.4393 -0.2843 -0.2179
  108OSM    C1511059   0.015   5.813  11.172  0.0086 -0.3385 -0.5724
  108OSM   H15A11060  -0.063   5.848  11.107  0.0347  0.4322 -0.2049
  108OSM   H15B11061   0.062   5.900  11.217  1.9208 -0.8485 -1.4668
  108OSM   H15C11062  -0.039   5.753  11.243 -0.9434  0.8571 -0.2531
  108OSM    C1411063   0.190   5.815  11.004 -0.9711 -0.6829 -0.0563
  108OSM   H14A11064   0.298   5.807  11.014 -0.8951  1.0197  0.8337
  108OSM   H14B11065   0.176   5.921  11.017 -0.3611 -0.3686 -1.6742
  108OSM   H14C11066   0.159   5.792  10.903  2.4153  3.3167 -2.3303
  108OSM    C1311067   0.225   5.698  11.200 -0.0540 -0.0573 -0.1263
  108OSM   H13A11068   0.246   5.779  11.268 -1.7380 -0.6115  1.1048
  108OSM   H13B11069   0.317   5.659  11.159 -0.2246 -0.2771 -0.3023
  108OSM   H13C11070   0.171   5.630  11.264 -0.5116  0.1613 -0.2690
  108OSM    C1211071   0.062   5.616  11.038  0.5503  0.2779  0.2271
  108OSM   H12A11072   0.017   5.549  11.110 -2.8034 -0.8016 -2.5870
  108OSM   H12B11073   0.140   5.562  10.986 -0.7567  0.5492 -2.1754
  108OSM    C1111074  -0.045   5.628  10.929  0.7637  0.1818  0.5116
  108OSM   H11A11075  -0.079   5.538  10.873 -0.0613  1.5441 -1.2636
  108OSM   H11B11076  -0.003   5.690  10.847 -0.1636 -0.9225 -0.8474
  108OSM      P11077  -0.272   5.608  11.063  0.2323 -0.4644  0.2164
  108OSM    O1311078  -0.214   5.484  11.107  0.1936 -0.5508 -0.0697
  108OSM    O1411079  -0.339   5.693  11.164 -0.8062 -1.0768  0.6940
  108OSM    O1111080  -0.379   5.583  10.947  0.2125 -0.1882 -0.2424
  108OSM    O1211081  -0.161   5.690  10.983 -0.1342  0.7503 -0.3091
  108OSM    C1S11082  -0.362   5.625  10.810  1.2580  0.2235 -0.7598
  108OSM    H1S11083  -0.256   5.615  10.777  2.1232 -0.4401  1.9398
  108OSM    H1T11084  -0.385   5.733  10.819  2.2469  0.2923  1.8224
  108OSM     NF11085  -0.460   5.586  10.584  0.9934  0.0306  0.1510
  108OSM    HNF11086  -0.542   5.639  10.560  0.8074 -0.0374  0.6209
  108OSM    C2S11087  -0.460   5.537  10.719 -0.2588  0.7715 -0.1890
  108OSM    H2S11088  -0.419   5.434  10.727 -0.9583  0.5333  0.4154
  108OSM    C3S11089  -0.603   5.526  10.780 -0.1751 -0.1980  0.2567
  108OSM    H3S11090  -0.639   5.629  10.801  0.1615 -0.1810  0.7620
  108OSM     O311091  -0.609   5.451  10.905 -0.1166  0.1439 -0.5972
  108OSM    HO311092  -0.518   5.450  10.937 -0.9330 -0.7377  1.9585
  108OSM    C4S11093  -0.695   5.456  10.675  0.0219  0.1011  0.0533
  108OSM    H4S11094  -0.653   5.358  10.651  2.3701  1.0684 -0.0938
  108OSM    C5S11095  -0.811   5.502  10.625 -0.3336 -0.4373 -0.0441
  108OSM    H5S11096  -0.852   5.599  10.656  1.7319  1.0087 -1.5423
  108OSM    C6S11097  -0.896   5.425  10.530 -0.3711 -0.2248  0.0537
  108OSM    H6S11098  -0.938   5.484  10.446  0.4172  1.1740  0.5972
  108OSM    H6T11099  -0.977   5.385  10.594  1.1636 -3.0501  0.3866
  108OSM    C7S11100  -0.828   5.302  10.469 -0.0703  0.1315 -0.1825
  108OSM    H7S11101  -0.897   5.252  10.396 -0.0097 -0.8869  0.4357
  108OSM    H7T11102  -0.815   5.230  10.552  3.0980  0.6938 -0.0856
  108OSM    C8S11103  -0.703   5.329  10.379 -1.2791 -0.1655  0.8339
  108OSM    H8S11104  -0.680   5.225  10.345 -0.1097 -0.4110  2.2405
  108OSM    H8T11105  -0.614   5.361  10.437 -0.7460 -1.0940  0.5628
  108OSM    C9S11106  -0.729   5.406  10.255 -0.9372 -0.4215  0.0290
  108OSM    H9S11107  -0.740   5.514  10.279  1.7645 -0.2697  0.9264
  108OSM    H9T11108  -0.825   5.371  10.212 -2.0557  1.2653  1.0187
  108OSM   C10S11109  -0.614   5.402  10.151 -0.4129  0.1370  1.0820
  108OSM   H10S11110  -0.522   5.381  10.211  2.5578  2.0339 -2.4069
  108OSM   H10T11111  -0.604   5.508  10.121 -1.8358  0.8498  2.9078
  108OSM   C11S11112  -0.633   5.301  10.039 -0.0117  0.8525  0.2142
  108OSM   H11S11113  -0.688   5.347   9.955 -0.0296 -0.3191 -0.4407
  108OSM   H11T11114  -0.694   5.215  10.075 -0.2603  1.1908  0.6082
  108OSM   C12S11115  -0.500   5.247   9.982  0.5224 -0.0628 -0.7265
  108OSM   H12S11116  -0.462   5.176  10.059 -2.0599  1.8794  2.6195
  108OSM   H12T11117  -0.420   5.323   9.979  0.7069 -0.1337  1.3465
  108OSM   C13S11118  -0.512   5.185   9.844  0.3172  0.6896 -0.4024
  108OSM   H13S11119  -0.409   5.160   9.810  0.2602  0.8892 -0.7185
  108OSM   H13T11120  -0.550   5.244   9.759  1.0300  1.8046  0.0344
  108OSM   C14S11121  -0.589   5.049   9.836  0.2440 -0.3356 -0.0798
  108OSM   H14S11122  -0.667   5.036   9.914 -0.0286  1.9101  0.0973
  108OSM   H14T11123  -0.518   4.973   9.874 -0.8965 -1.5323 -0.2441
  108OSM   C15S11124  -0.653   5.007   9.703  0.0649  0.3762 -0.0560
  108OSM   H15S11125  -0.741   5.074   9.693 -0.5596  0.0112  2.2328
  108OSM   H15T11126  -0.674   4.898   9.708  1.1570 -0.0077 -2.5822
  108OSM   C16S11127  -0.547   5.024   9.592 -0.2686 -0.5754 -0.9967
  108OSM   H16S11128  -0.470   4.946   9.612  0.3315 -0.0284 -1.1279
  108OSM   H16T11129  -0.492   5.120   9.587  0.3343 -0.6621  2.0310
  108OSM   C17S11130  -0.612   4.998   9.460 -0.4179 -1.1647  0.3705
  108OSM   H17S11131  -0.699   4.934   9.484  0.4457 -1.9455  1.5088
  108OSM   H17T11132  -0.549   4.938   9.391 -0.8240 -2.0011  0.7225
  108OSM   C18S11133  -0.655   5.127   9.384  0.0108  1.2335  0.4865
  108OSM   H18S11134  -0.659   5.120   9.273  2.2386  2.9596  0.2293
  108OSM   H18T11135  -0.579   5.206   9.399  0.0495  1.7627 -1.9996
  108OSM   H18U11136  -0.748   5.171   9.428  0.4367  1.8975  0.7374
  108OSM    C1F11137  -0.348   5.572  10.509  0.0421  0.2529 -0.4143
  108OSM     OF11138  -0.239   5.539  10.551  0.0007 -0.0346 -0.1508
  108OSM    C2F11139  -0.365   5.614  10.360 -0.2929 -0.4119 -0.0971
  108OSM    H2F11140  -0.349   5.724  10.352  0.7050 -0.6254 -1.4692
  108OSM    H2G11141  -0.466   5.581  10.328 -0.1554 -1.5957  0.6300
  108OSM    C3F11142  -0.272   5.547  10.256  0.5493  0.6011 -0.7330
  108OSM    H3F11143  -0.292   5.438  10.256  2.0987  0.2890 -1.4079
  108OSM    H3G11144  -0.166   5.561  10.285 -0.0838  0.3765  1.8817
  108OSM    C4F11145  -0.286   5.602  10.113  0.1665 -0.1833 -0.3536
  108OSM    H4F11146  -0.258   5.709  10.102  0.3647 -0.3440 -1.5741
  108OSM    H4G11147  -0.384   5.580  10.067 -0.5756  0.7789  0.7304
  108OSM    C5F11148  -0.186   5.539  10.013  0.7109  0.8004 -0.6409
  108OSM    H5F11149  -0.202   5.430  10.027  1.9237  0.6195 -0.5534
  108OSM    H5G11150  -0.080   5.557  10.040  0.6210  0.2128  0.1232
  108OSM    C6F11151  -0.234   5.562   9.873 -0.5259 -0.0366 -0.6605
  108OSM    H6F11152  -0.243   5.672   9.857  2.3938  0.7612  2.1183
  108OSM    H6G11153  -0.329   5.506   9.868 -1.4765  1.3528  0.8497
  108OSM    C7F11154  -0.137   5.510   9.770  0.1744 -0.1007 -0.2429
  108OSM    H7F11155  -0.101   5.410   9.804 -1.7450 -0.9531 -0.5840
  108OSM    H7G11156  -0.045   5.571   9.780  0.2539 -0.1680 -0.5670
  108OSM    C8F11157  -0.188   5.505   9.631 -0.3898  0.4629 -0.0754
  108OSM    H8F11158  -0.236   5.602   9.605  1.5034  1.9802  1.7612
  108OSM    H8G11159  -0.279   5.441   9.622 -0.1076  0.3390 -2.9122
  108OSM    C9F11160  -0.080   5.461   9.541  0.3295 -0.0647  0.6879
  108OSM    H9F11161  -0.058   5.353   9.543  2.2791  0.2385 -0.7643
  108OSM   C10F11162  -0.008   5.535   9.456 -0.2005  0.1961  0.2595
  108OSM   H10F11163   0.058   5.473   9.392 -1.6139 -3.5474  2.1407
  108OSM   C11F11164  -0.017   5.689   9.437 -0.1840  0.2571  0.1088
  108OSM   H11F11165   0.062   5.741   9.496 -0.5774 -0.3505  1.2027
  108OSM   H11G11166  -0.119   5.728   9.457 -2.2885 -2.2339 -4.4678
  108OSM   C12F11167   0.018   5.733   9.293 -0.8973 -0.1784  0.6661
  108OSM   H12F11168   0.123   5.714   9.260 -1.3324 -0.6432 -0.4694
  108OSM   H12G11169   0.001   5.843   9.293 -2.7133 -0.3565 -2.5749
  108OSM   C13F11170  -0.081   5.683   9.187 -1.1075 -0.0772 -0.0047
  108OSM   H13F11171  -0.186   5.701   9.220 -1.2389 -1.4372  0.3798
  108OSM   H13G11172  -0.056   5.575   9.177 -0.4281  0.0564  0.1709
  108OSM   C14F11173  -0.053   5.760   9.054 -0.7580 -0.6136  0.5696
  108OSM   H14F11174  -0.021   5.689   8.975  0.8838 -0.1197  0.7515
  108OSM   H14G11175   0.029   5.835   9.054 -2.0814  0.8983  0.2616
  108OSM   C15F11176  -0.182   5.826   8.999  0.6828  0.1078 -0.1297
  108OSM   H15F11177  -0.217   5.902   9.072 -1.1338 -1.1959  0.4239
  108OSM   H15G11178  -0.251   5.739   8.990 -1.3367  1.6098  0.2356
  108OSM   C16F11179  -0.157   5.886   8.859  0.0245 -0.4450 -0.7293
  108OSM   H16F11180  -0.138   5.807   8.784 -0.6732 -1.3698  0.0199
  108OSM   H16G11181  -0.072   5.955   8.873 -0.9697  0.4670  1.4301
  108OSM   C17F11182  -0.289   5.959   8.819 -0.3833 -1.6358  0.5159
  108OSM   H17F11183  -0.336   6.013   8.903 -2.2065 -1.1650 -0.7371
  108OSM   H17G11184  -0.367   5.894   8.774 -0.1279  0.0983 -2.7509
  108OSM   C18F11185  -0.258   6.058   8.699  0.5927  0.3647 -0.4819
  108OSM   H18F11186  -0.218   6.012   8.607  1.4234 -2.0133  0.9624
  108OSM   H18G11187  -0.189   6.134   8.742  2.0316 -0.8142 -0.6322
  108OSM   H18H11188  -0.352   6.114   8.679  0.8160  1.0889  0.4134
  109OSM      N11189   1.185   5.084  11.023  0.2014  0.8561  0.7036
  109OSM    C1511190   1.096   5.107  11.143  0.2557 -0.3131 -0.4792
  109OSM   H15A11191   0.993   5.079  11.124  0.7572 -1.0742 -2.2669
  109OSM   H15B11192   1.101   5.213  11.163 -2.6279 -0.2851  0.6102
  109OSM   H15C11193   1.123   5.050  11.231  2.7190 -0.0127 -0.9631
  109OSM    C1411194   1.318   5.147  11.057  0.1116  0.1345 -1.1033
  109OSM   H14A11195   1.392   5.160  10.979  2.1968 -2.0419  0.3707
  109OSM   H14B11196   1.360   5.084  11.133  0.1319 -0.6827 -1.7700
  109OSM   H14C11197   1.300   5.238  11.112 -0.6696 -0.9308  0.4776
  109OSM    C1311198   1.192   4.935  11.001 -0.2493 -0.3003  0.4615
  109OSM   H13A11199   1.248   4.891  11.082 -1.4846 -2.4562  0.2389
  109OSM   H13B11200   1.238   4.922  10.903  0.5551  0.5424  0.7137
  109OSM   H13C11201   1.092   4.894  10.998 -0.2572 -0.3698  1.4723
  109OSM    C1211202   1.128   5.159  10.909  0.1787  1.1054  0.0449
  109OSM   H12A11203   1.198   5.134  10.831 -1.3180  0.2117 -1.0721
  109OSM   H12B11204   1.146   5.265  10.917 -1.8848  1.4908  0.2252
  109OSM    C1111205   0.983   5.149  10.862 -0.0385 -0.3068 -0.1545
  109OSM   H11A11206   0.967   5.043  10.833 -1.1836 -0.8955  2.3279
  109OSM   H11B11207   0.971   5.196  10.762  2.2837 -1.5601 -1.0939
  109OSM      P11208   0.768   5.288  10.915  0.2217 -0.2062 -0.0471
  109OSM    O1311209   0.677   5.316  11.028  0.1770 -0.2068 -0.4799
  109OSM    O1411210   0.808   5.408  10.834 -0.4594  0.3268 -0.8848
  109OSM    O1111211   0.694   5.175  10.823 -0.4071  0.1171  0.6060
  109OSM    O1211212   0.893   5.202  10.957 -0.0487  0.5003 -0.2437
  109OSM    C1S11213   0.589   5.214  10.732  0.2257 -0.6251  0.0793
  109OSM    H1S11214   0.572   5.323  10.744 -0.2703 -0.4096 -2.1804
  109OSM    H1T11215   0.500   5.153  10.757  0.9765 -1.3072  1.1161
  109OSM     NF11216   0.504   5.206  10.498 -0.1320 -0.0175 -0.1327
  109OSM    HNF11217   0.453   5.124  10.474 -0.6840  0.0283  0.8503
  109OSM    C2S11218   0.619   5.176  10.581  0.5116  0.6597  0.9750
  109OSM    H2S11219   0.705   5.229  10.537  0.1760 -0.8229 -1.6713
  109OSM    C3S11220   0.661   5.022  10.584 -0.5947 -0.5120  0.1684
  109OSM    H3S11221   0.573   4.963  10.618  0.2165 -1.3608  0.8603
  109OSM     O311222   0.763   4.986  10.675  0.0456  0.5999 -0.0521
  109OSM    HO311223   0.754   5.048  10.747  0.5754 -0.6589  1.1595
  109OSM    C4S11224   0.700   4.984  10.441 -0.7389 -0.2693  0.3286
  109OSM    H4S11225   0.643   4.900  10.400 -0.2256  0.3752 -1.8397
  109OSM    C5S11226   0.812   5.013  10.376 -0.1462  0.4248 -0.7294
  109OSM    H5S11227   0.871   5.098  10.413 -3.1441  2.6017 -0.5272
  109OSM    C6S11228   0.854   4.966  10.243 -0.0714 -0.1226  0.1489
  109OSM    H6S11229   0.937   4.893  10.250  0.6242  0.2447 -2.7767
  109OSM    H6T11230   0.898   5.051  10.187  0.9298  0.3964  1.6580
  109OSM    C7S11231   0.750   4.913  10.138  0.5453  0.4018 -0.1118
  109OSM    H7S11232   0.660   4.979  10.139  0.7842  0.7407 -0.7184
  109OSM    H7T11233   0.720   4.811  10.172  0.5151  0.9795  1.7457
  109OSM    C8S11234   0.812   4.903   9.998  0.1306  0.1051  0.0816
  109OSM    H8S11235   0.909   4.854  10.018  0.4262 -0.2704 -2.0242
  109OSM    H8T11236   0.840   5.001   9.953  1.6818  1.3426  3.4308
  109OSM    C9S11237   0.721   4.826   9.899 -0.3315 -0.0494 -0.1664
  109OSM    H9S11238   0.627   4.885   9.897 -0.7222 -0.6211  0.7145
  109OSM    H9T11239   0.703   4.725   9.940 -0.1735 -0.2757 -0.6412
  109OSM   C10S11240   0.785   4.826   9.751  0.3251  0.0154 -0.2872
  109OSM   H10S11241   0.889   4.785   9.749  0.4566  0.3492 -1.5869
  109OSM   H10T11242   0.791   4.934   9.728  3.1938 -0.0949 -0.4388
  109OSM   C11S11243   0.690   4.769   9.644 -0.6846 -0.2469  0.4690
  109OSM   H11S11244   0.601   4.835   9.633 -2.1509 -1.9185  1.7371
  109OSM   H11T11245   0.656   4.667   9.672  2.3792 -2.0010 -1.6538
  109OSM   C12S11246   0.764   4.752   9.502  0.9952  0.1604 -0.8034
  109OSM   H12S11247   0.682   4.710   9.440 -0.7277  0.9738  0.8474
  109OSM   H12T11248   0.857   4.694   9.520  1.3748  0.3473 -2.0956
  109OSM   C13S11249   0.820   4.884   9.438  0.6766  0.2986 -0.1730
  109OSM   H13S11250   0.890   4.949   9.495 -0.8740  1.3755  0.5827
  109OSM   H13T11251   0.725   4.939   9.422  1.4118  1.6594 -0.0775
  109OSM   C14S11252   0.872   4.863   9.296 -0.8228 -0.0059  0.4720
  109OSM   H14S11253   0.932   4.769   9.302  0.5488  0.9269  2.7375
  109OSM   H14T11254   0.957   4.930   9.271  0.0125 -1.3602 -0.5240
  109OSM   C15S11255   0.770   4.860   9.181 -0.2463  0.2392  0.6076
  109OSM   H15S11256   0.730   4.962   9.167  0.1901  0.7113  2.5296
  109OSM   H15T11257   0.683   4.797   9.208 -0.3557 -0.3728 -1.0224
  109OSM   C16S11258   0.842   4.812   9.051  0.4624  0.2468  0.7643
  109OSM   H16S11259   0.838   4.702   9.035  0.1133  0.3774 -0.0755
  109OSM   H16T11260   0.951   4.834   9.065 -0.0644  2.7595  1.4153
  109OSM   C17S11261   0.797   4.899   8.932 -0.4328 -0.0806 -0.6123
  109OSM   H17S11262   0.866   4.892   8.845 -0.7550 -2.7086 -0.7375
  109OSM   H17T11263   0.805   5.006   8.962 -0.3317  0.1587 -1.4778
  109OSM   C18S11264   0.662   4.859   8.886  0.4419  0.0488  0.7634
  109OSM   H18S11265   0.591   4.866   8.972 -0.4769 -0.1519  0.0445
  109OSM   H18T11266   0.660   4.755   8.848 -1.9414  0.5084 -0.5575
  109OSM   H18U11267   0.634   4.925   8.801 -1.0490 -0.6232  0.6927
  109OSM    C1F11268   0.460   5.331  10.475  0.0631  1.0306  0.6164
  109OSM     OF11269   0.516   5.434  10.507 -0.2745  0.1555  0.2184
  109OSM    C2F11270   0.327   5.339  10.413 -0.7779  0.3175 -0.1296
  109OSM    H2F11271   0.270   5.419  10.464  0.4905  1.1866 -0.0114
  109OSM    H2G11272   0.283   5.237  10.419 -1.9581  0.5700 -2.8787
  109OSM    C3F11273   0.330   5.365  10.259  1.0490 -0.1072  0.9142
  109OSM    H3F11274   0.396   5.293  10.206 -1.0923 -3.2555  2.1768
  109OSM    H3G11275   0.365   5.469  10.241 -0.1782  0.5188  1.9196
  109OSM    C4F11276   0.184   5.357  10.215 -0.5630 -0.0123 -0.4442
  109OSM    H4F11277   0.110   5.420  10.269 -0.8933  0.1086 -1.0268
  109OSM    H4G11278   0.145   5.255  10.236 -0.9589  0.6132  2.1714
  109OSM    C5F11279   0.167   5.384  10.063  0.7777 -0.2491  0.1251
  109OSM    H5F11280   0.182   5.494  10.066 -0.1629 -0.0825 -0.8131
  109OSM    H5G11281   0.062   5.362  10.036  0.3148  0.4603  1.2631
  109OSM    C6F11282   0.268   5.325   9.966 -0.1197 -0.1823 -0.3018
  109OSM    H6F11283   0.266   5.213   9.969 -1.7780 -0.1712  0.8228
  109OSM    H6G11284   0.375   5.341   9.992  0.0646 -2.6264  0.8014
  109OSM    C7F11285   0.234   5.376   9.824 -0.2537  0.3668 -0.2381
  109OSM    H7F11286   0.252   5.485   9.827 -0.2772  0.3713 -0.2687
  109OSM    H7G11287   0.127   5.350   9.806  0.3397 -1.3256 -1.6411
  109OSM    C8F11288   0.322   5.308   9.714 -0.1953  0.3745 -0.5047
  109OSM    H8F11289   0.427   5.330   9.742  0.3287  1.5866 -3.1206
  109OSM    H8G11290   0.304   5.370   9.624 -0.6347  0.7765 -0.1447
  109OSM    C9F11291   0.296   5.164   9.677  0.3810  0.0750 -0.5821
  109OSM    H9F11292   0.215   5.111   9.729  0.0987  0.9821 -0.0577
  109OSM   C10F11293   0.370   5.103   9.584  0.1711 -0.3738  0.5152
  109OSM   H10F11294   0.359   4.995   9.568  2.1449 -0.5559  0.1165
  109OSM   C11F11295   0.490   5.157   9.505 -0.8045 -0.0869  0.3797
  109OSM   H11F11296   0.566   5.084   9.471  2.5748  2.3999  1.9675
  109OSM   H11G11297   0.544   5.236   9.562  1.1574 -0.0252 -1.4257
  109OSM   C12F11298   0.465   5.215   9.362 -0.2213  0.9020 -0.1798
  109OSM   H12F11299   0.563   5.243   9.317 -1.2234  0.6408 -2.6778
  109OSM   H12G11300   0.400   5.301   9.389 -1.8165 -1.5121  5.0949
  109OSM   C13F11301   0.397   5.115   9.265 -0.7439  0.1990  0.4450
  109OSM   H13F11302   0.303   5.087   9.319 -0.6318 -0.0661  0.5064
  109OSM   H13G11303   0.459   5.023   9.256  1.3198  1.4701  1.0307
  109OSM   C14F11304   0.361   5.190   9.131  0.2012  0.6913  0.1598
  109OSM   H14F11305   0.440   5.262   9.100 -0.4646  0.8481 -1.2387
  109OSM   H14G11306   0.272   5.254   9.149  0.1140  0.7270 -0.3772
  109OSM   C15F11307   0.321   5.094   9.018  0.3569  0.5816  0.0236
  109OSM   H15F11308   0.237   5.025   9.040  0.6249 -0.6879 -2.5229
  109OSM   H15G11309   0.409   5.032   8.992 -1.2357 -1.0542 -1.8007
  109OSM   C16F11310   0.279   5.179   8.892  0.4859  0.6219  0.3385
  109OSM   H16F11311   0.348   5.266   8.886  1.5549 -0.2459 -0.3901
  109OSM   H16G11312   0.185   5.233   8.914  0.6017  1.2470 -0.6431
  109OSM   C17F11313   0.262   5.104   8.759 -0.2529  0.2326 -0.3490
  109OSM   H17F11314   0.242   5.177   8.677 -0.2035  1.4452  0.6994
  109OSM   H17G11315   0.173   5.038   8.768 -0.4973  0.6878  0.7737
  109OSM   C18F11316   0.375   5.009   8.728 -0.3396  0.5969 -0.4964
  109OSM   H18F11317   0.388   4.919   8.790  2.2532 -0.4828 -2.4104
  109OSM   H18G11318   0.467   5.070   8.716 -1.5885  2.2627 -2.5098
  109OSM   H18H11319   0.359   4.959   8.630 -0.0520 -0.3801 -0.0543
  110OSM      N11320   0.344   4.407  11.191  0.1350 -0.0408 -0.2462
  110OSM    C1511321   0.323   4.551  11.146 -0.2273  0.1405 -0.3180
  110OSM   H15A11322   0.254   4.603  11.211 -0.9147 -1.1179 -0.0113
  110OSM   H15B11323   0.278   4.555  11.047 -1.3269  0.5905  0.1799
  110OSM   H15C11324   0.416   4.606  11.140 -0.1777  0.1157  0.2122
  110OSM    C1411325   0.392   4.411  11.331 -0.2988 -0.0232 -1.1503
  110OSM   H14A11326   0.390   4.312  11.374  0.1420  1.1126  1.7770
  110OSM   H14B11327   0.322   4.468  11.390  0.7931 -0.5578  0.7517
  110OSM   H14C11328   0.492   4.449  11.348 -0.3742 -0.5911  0.7673
  110OSM    C1311329   0.213   4.330  11.193  0.8676 -0.3312  0.2621
  110OSM   H13A11330   0.185   4.300  11.094  0.7198  2.1449 -0.4925
  110OSM   H13B11331   0.133   4.381  11.243  1.3891 -2.2325  3.3783
  110OSM   H13C11332   0.232   4.236  11.244 -1.1193 -0.6490  0.4740
  110OSM    C1211333   0.451   4.347  11.105  0.5589 -0.4299 -0.8406
  110OSM   H12A11334   0.480   4.248  11.134  3.6251  0.5829 -0.0305
  110OSM   H12B11335   0.537   4.410  11.125 -1.1890  1.0389  3.2754
  110OSM    C1111336   0.415   4.335  10.952  0.0802 -0.6616 -0.4869
  110OSM   H11A11337   0.501   4.300  10.890 -0.2582 -0.5524 -1.0272
  110OSM   H11B11338   0.399   4.443  10.933 -0.6605 -0.3463  1.6438
  110OSM      P11339   0.307   4.102  10.897 -0.4051 -0.2114 -0.3143
  110OSM    O1311340   0.397   4.045  10.998  0.0043  0.0304  0.1217
  110OSM    O1411341   0.173   4.049  10.877 -0.1733 -0.2277 -0.2307
  110OSM    O1111342   0.377   4.104  10.754 -0.7499  0.7066  0.1077
  110OSM    O1211343   0.297   4.262  10.930  0.0468  0.2873 -0.3086
  110OSM    C1S11344   0.409   3.971  10.703 -0.4394  0.7252 -0.7671
  110OSM    H1S11345   0.314   3.924  10.670  0.3392 -1.6755  0.1970
  110OSM    H1T11346   0.460   3.908  10.778 -1.9249 -0.1751 -0.4741
  110OSM     NF11347   0.505   3.862  10.501  0.1450 -0.1557  0.1701
  110OSM    HNF11348   0.577   3.794  10.514  2.4549  2.3316  1.4879
  110OSM    C2S11349   0.518   3.981  10.585 -0.6980  0.5535 -0.0112
  110OSM    H2S11350   0.492   4.070  10.525  2.0930  0.9524 -0.7821
  110OSM    C3S11351   0.656   4.002  10.636  0.8261 -0.0329 -0.3001
  110OSM    H3S11352   0.694   3.914  10.693  1.5837 -1.3758 -2.7620
  110OSM     O311353   0.655   4.109  10.732  0.3531 -0.1892 -0.0573
  110OSM    HO311354   0.563   4.130  10.744  0.3519  2.3098 -3.1083
  110OSM    C4S11355   0.760   4.010  10.524  0.7067  0.7926  0.6705
  110OSM    H4S11356   0.791   3.910  10.492  1.9056  1.3884 -0.1115
  110OSM    C5S11357   0.810   4.121  10.473  0.2383 -0.5917 -0.0824
  110OSM    H5S11358   0.772   4.219  10.506 -0.1337 -0.6495 -0.3309
  110OSM    C6S11359   0.918   4.119  10.366 -0.5500 -1.1289  0.4455
  110OSM    H6S11360   0.974   4.023  10.362 -0.6527 -1.1902  0.4551
  110OSM    H6T11361   1.002   4.189  10.383  1.1173 -2.4159 -1.8775
  110OSM    C7S11362   0.857   4.146  10.228  0.6541  0.0139  0.3122
  110OSM    H7S11363   0.937   4.153  10.151  1.9189 -2.9075  1.2297
  110OSM    H7T11364   0.800   4.241  10.220  0.1585 -0.3775 -1.0322
  110OSM    C8S11365   0.772   4.033  10.181 -0.5324  1.0363 -0.2741
  110OSM    H8S11366   0.690   3.998  10.246  0.1923  1.6676  1.0154
  110OSM    H8T11367   0.839   3.945  10.169 -0.2402  1.4733 -2.1124
  110OSM    C9S11368   0.716   4.045  10.040  0.5584 -0.3021  0.4456
  110OSM    H9S11369   0.721   4.153  10.016 -1.9892 -0.1736  0.2274
  110OSM    H9T11370   0.609   4.018  10.045  0.5510 -0.8577 -1.7452
  110OSM   C10S11371   0.796   3.974   9.930 -0.2343 -0.4588 -0.6839
  110OSM   H10S11372   0.774   3.868   9.954  0.3154 -0.1632  1.2847
  110OSM   H10T11373   0.906   3.989   9.931  0.0217 -2.1497  0.2083
  110OSM   C11S11374   0.759   3.994   9.779 -0.1834  0.3733  0.6092
  110OSM   H11S11375   0.766   4.100   9.748 -2.1201  0.0936 -0.9463
  110OSM   H11T11376   0.657   3.953   9.761  0.3327 -0.3448 -0.8633
  110OSM   C12S11377   0.848   3.922   9.677  0.2872 -0.0429 -0.3527
  110OSM   H12S11378   0.880   3.817   9.697  1.9746  0.3288 -0.9238
  110OSM   H12T11379   0.946   3.975   9.682  0.6747 -0.7364 -0.5793
  110OSM   C13S11380   0.791   3.915   9.538  0.5560 -0.5912 -0.2387
  110OSM   H13S11381   0.753   4.015   9.507  0.4670  0.2640  2.3870
  110OSM   H13T11382   0.702   3.851   9.555  0.6946 -0.2980  1.8380
  110OSM   C14S11383   0.890   3.856   9.436  0.1562 -0.2286 -0.0003
  110OSM   H14S11384   0.938   3.761   9.466  2.9692  0.8136 -0.8783
  110OSM   H14T11385   0.975   3.923   9.408  2.1453 -2.6143 -0.0301
  110OSM   C15S11386   0.817   3.824   9.310  0.2545  0.3678 -0.9244
  110OSM   H15S11387   0.741   3.905   9.305  0.3343  0.8070  2.8007
  110OSM   H15T11388   0.747   3.737   9.313 -1.6092  1.8080  1.5346
  110OSM   C16S11389   0.904   3.810   9.180  0.4834 -0.2756 -0.6648
  110OSM   H16S11390   0.965   3.900   9.158  0.4007 -0.5477 -2.1168
  110OSM   H16T11391   0.839   3.794   9.092  0.0938  1.2428 -0.6753
  110OSM   C17S11392   0.993   3.686   9.181  0.4907  0.2245 -0.4172
  110OSM   H17S11393   0.928   3.601   9.212  0.2836  1.8116  4.2806
  110OSM   H17T11394   1.066   3.705   9.262 -0.5841 -0.3463  0.7201
  110OSM   C18S11395   1.068   3.671   9.050  0.6739 -0.2051 -0.1960
  110OSM   H18S11396   1.008   3.688   8.958  0.8416 -1.7330 -0.6244
  110OSM   H18T11397   1.115   3.571   9.033 -1.4205 -1.3389  0.2769
  110OSM   H18U11398   1.146   3.750   9.040  1.5628 -0.9649  0.4927
  110OSM    C1F11399   0.387   3.838  10.438  0.2974  0.3198  0.2155
  110OSM     OF11400   0.301   3.916  10.419  0.0014 -0.0130 -0.5610
  110OSM    C2F11401   0.373   3.692  10.412 -0.4025  0.3340 -0.6377
  110OSM    H2F11402   0.289   3.660  10.477  1.1878 -1.4070  0.6766
  110OSM    H2G11403   0.457   3.635  10.458 -0.7930  1.0674  1.0662
  110OSM    C3F11404   0.358   3.655  10.261 -0.1410  0.4686 -0.1278
  110OSM    H3F11405   0.272   3.702  10.210 -0.1931 -1.8855 -2.4505
  110OSM    H3G11406   0.327   3.548  10.256  1.6535 -0.0717 -0.6802
  110OSM    C4F11407   0.490   3.657  10.177  0.2106  0.1564  0.1452
  110OSM    H4F11408   0.573   3.598  10.220 -0.1427  0.3824  1.1609
  110OSM    H4G11409   0.530   3.761  10.186 -0.1096  0.5702 -2.3358
  110OSM    C5F11410   0.470   3.631  10.028  0.4280  0.0273 -0.3410
  110OSM    H5F11411   0.405   3.542  10.017 -0.6187  0.2663  2.8292
  110OSM    H5G11412   0.566   3.589   9.990 -0.7643 -2.3916 -0.8526
  110OSM    C6F11413   0.415   3.755   9.956 -0.2882 -0.4720  1.0012
  110OSM    H6F11414   0.488   3.838   9.967 -0.2575 -0.0675 -1.6824
  110OSM    H6G11415   0.319   3.796   9.995 -0.0369  0.4462  0.6800
  110OSM    C7F11416   0.399   3.719   9.806 -0.6778 -0.6614  0.0045
  110OSM    H7F11417   0.352   3.619   9.803 -0.4049 -0.8515  1.4210
  110OSM    H7G11418   0.502   3.696   9.771  1.1313  2.8582  2.3594
  110OSM    C8F11419   0.341   3.824   9.713  0.0776  0.0570 -0.3671
  110OSM    H8F11420   0.400   3.918   9.722  0.1755 -0.0126 -0.2860
  110OSM    H8G11421   0.234   3.847   9.736  0.0927 -1.4106  1.4054
  110OSM    C9F11422   0.370   3.784   9.569 -0.5056 -0.5459 -0.2921
  110OSM    H9F11423   0.478   3.786   9.551 -0.1609 -0.3870  1.6444
  110OSM   C10F11424   0.283   3.752   9.473 -0.0170 -0.3136  0.2509
  110OSM   H10F11425   0.320   3.718   9.376 -1.3553 -1.1759  0.0153
  110OSM   C11F11426   0.128   3.751   9.476  0.2760  0.3441 -0.2312
  110OSM   H11F11427   0.097   3.789   9.376  3.5902 -0.1342 -1.5589
  110OSM   H11G11428   0.073   3.797   9.561 -0.0186  1.4926 -1.0270
  110OSM   C12F11429   0.070   3.607   9.483  1.0416 -0.0795  0.6380
  110OSM   H12F11430   0.126   3.548   9.408  1.0475  0.5994  0.1012
  110OSM   H12G11431  -0.037   3.602   9.453  1.5750  1.3466 -1.7003
  110OSM   C13F11432   0.082   3.535   9.615 -0.0342 -0.4526  0.5281
  110OSM   H13F11433   0.180   3.561   9.662  0.9842  0.1044 -1.7786
  110OSM   H13G11434   0.086   3.426   9.594  2.5203 -0.4735  0.8241
  110OSM   C14F11435  -0.032   3.583   9.705  0.1023 -0.7578 -0.1013
  110OSM   H14F11436  -0.130   3.577   9.653 -0.2013  0.3283  0.3080
  110OSM   H14G11437  -0.019   3.692   9.726 -2.8013 -0.1184 -1.1693
  110OSM   C15F11438  -0.031   3.520   9.844 -0.4029  0.2129 -0.5306
  110OSM   H15F11439  -0.089   3.425   9.837  0.8506 -0.4715 -2.3659
  110OSM   H15G11440  -0.098   3.584   9.906  0.3495 -0.8222  1.4358
  110OSM   C16F11441   0.109   3.494   9.912  0.0498 -0.0816  0.5749
  110OSM   H16F11442   0.164   3.590   9.921  1.5875 -0.7648 -1.0254
  110OSM   H16G11443   0.154   3.426   9.836 -3.5778  0.5293 -2.4395
  110OSM   C17F11444   0.086   3.433  10.049 -0.1248  0.4003 -0.5082
  110OSM   H17F11445   0.186   3.418  10.097 -1.0819  0.7596  1.7427
  110OSM   H17G11446   0.045   3.329  10.043  1.1904 -0.2625  1.0545
  110OSM   C18F11447  -0.008   3.507  10.138  0.0363  0.4733  0.1033
  110OSM   H18F11448  -0.113   3.511  10.104 -0.4646 -2.3235  1.0235
  110OSM   H18G11449   0.033   3.609  10.155  0.1306  0.3067  0.9564
  110OSM   H18H11450   0.001   3.452  10.235  0.0414 -1.1381 -0.7732
  111OSM      N11451   2.062   2.332  10.992 -0.3193  0.4968  0.1939
  111OSM    C1511452   2.198   2.363  10.932 -0.2368  0.0304 -0.9571
  111OSM   H15A11453   2.208   2.297  10.847  0.1864 -0.4586 -0.5300
  111OSM   H15B11454   2.279   2.353  11.003 -0.9374  0.1539 -0.1304
  111OSM   H15C11455   2.193   2.456  10.876 -1.6660 -0.5336 -1.7975
  111OSM    C1411456   2.057   2.192  11.060 -0.2136 -0.2066  0.1600
  111OSM   H14A11457   2.061   2.114  10.986  1.9585  0.4029 -0.4255
  111OSM   H14B11458   1.968   2.187  11.122  0.1848 -0.2025  0.7497
  111OSM   H14C11459   2.142   2.177  11.126 -1.8595  1.0113  2.7569
  111OSM    C1311460   2.042   2.426  11.108  0.3137  0.2767 -0.0882
  111OSM   H13A11461   2.042   2.530  11.079  1.5173  0.8597  1.8094
  111OSM   H13B11462   2.122   2.413  11.179 -0.7131  1.6907  1.4220
  111OSM   H13C11463   1.950   2.402  11.159 -0.5824 -0.2229 -1.8736
  111OSM    C1211464   1.950   2.354  10.892 -0.0767 -0.4580  0.0063
  111OSM   H12A11465   1.955   2.457  10.859 -0.1477  0.3409  2.3165
  111OSM   H12B11466   1.856   2.358  10.946  0.2046  0.5948  0.4553
  111OSM    C1111467   1.940   2.268  10.771  0.1644 -0.0173  0.1008
  111OSM   H11A11468   2.041   2.251  10.728 -0.0496 -2.3246  0.3547
  111OSM   H11B11469   1.884   2.327  10.695 -1.8297 -1.7782  0.0943
  111OSM      P11470   1.709   2.142  10.800  0.2961  0.0761 -0.0796
  111OSM    O1311471   1.665   2.001  10.795 -0.4615  0.1073 -0.5888
  111OSM    O1411472   1.649   2.218  10.910  0.0933 -0.3031 -0.5216
  111OSM    O1111473   1.677   2.201  10.650 -0.9184 -0.4283 -0.8182
  111OSM    O1211474   1.868   2.152  10.814 -0.3111  0.4317  0.3946
  111OSM    C1S11475   1.718   2.138  10.529 -0.5802  0.5884 -1.2638
  111OSM    H1S11476   1.722   2.027  10.538 -1.0820  0.6423 -0.3333
  111OSM    H1T11477   1.817   2.180  10.498  0.5205  0.2124  1.4771
  111OSM     NF11478   1.668   2.104  10.285 -0.3294  0.3161 -0.3215
  111OSM    HNF11479   1.716   2.167  10.224  1.6281 -0.7297  0.0494
  111OSM    C2S11480   1.622   2.167  10.410  0.4412  0.1297  0.4489
  111OSM    H2S11481   1.523   2.123  10.436  0.9241 -0.7366  0.8470
  111OSM    C3S11482   1.596   2.326  10.405 -0.5655 -0.6060 -0.8260
  111OSM    H3S11483   1.691   2.378  10.380  0.5508 -2.9685 -1.7705
  111OSM     O311484   1.562   2.389  10.526  0.1500 -0.1313  0.0080
  111OSM    HO311485   1.576   2.313  10.582  0.3238 -0.9922 -1.1492
  111OSM    C4S11486   1.497   2.357  10.301  0.1841  0.0700  0.3865
  111OSM    H4S11487   1.391   2.327  10.313  0.4611 -1.6050 -0.9901
  111OSM    C5S11488   1.528   2.418  10.185 -0.6917  0.0729  0.4678
  111OSM    H5S11489   1.635   2.439  10.166 -0.6829 -0.4246 -0.0660
  111OSM    C6S11490   1.426   2.451  10.079 -0.6613 -0.1677 -0.1884
  111OSM    H6S11491   1.333   2.391  10.094 -0.3756  0.1942  4.3611
  111OSM    H6T11492   1.476   2.403   9.992 -0.9664 -3.1011  1.1104
  111OSM    C7S11493   1.396   2.602  10.065  0.2243 -0.1509 -0.1982
  111OSM    H7S11494   1.483   2.652  10.017  0.3215 -0.2995 -0.1775
  111OSM    H7T11495   1.376   2.637  10.168 -1.0539  0.6773 -0.6981
  111OSM    C8S11496   1.265   2.627   9.974 -0.0616  0.0227 -0.0254
  111OSM    H8S11497   1.179   2.579  10.025  0.3504  1.0787  1.7299
  111OSM    H8T11498   1.278   2.580   9.873 -3.5590 -0.2981 -0.4405
  111OSM    C9S11499   1.225   2.767   9.936 -0.5406 -0.5038 -1.3311
  111OSM    H9S11500   1.219   2.831  10.027 -0.4679  0.4415 -1.9780
  111OSM    H9T11501   1.119   2.763   9.901 -0.3372 -1.3437 -1.8603
  111OSM   C10S11502   1.328   2.841   9.850  0.8113 -0.0794  0.3316
  111OSM   H10S11503   1.420   2.847   9.913  0.2095 -0.0203  1.2315
  111OSM   H10T11504   1.291   2.946   9.852  0.3174 -0.2453  0.1192
  111OSM   C11S11505   1.359   2.784   9.709 -0.1867  0.0001 -0.1545
  111OSM   H11S11506   1.438   2.706   9.710  1.8969  2.0213  0.6656
  111OSM   H11T11507   1.405   2.869   9.655  1.3649 -0.8523 -0.2290
  111OSM   C12S11508   1.225   2.737   9.643 -0.4683  0.3849 -0.0491
  111OSM   H12S11509   1.146   2.816   9.648 -0.9810 -0.0630 -0.9213
  111OSM   H12T11510   1.186   2.647   9.695 -1.3437  0.5274 -0.4448
  111OSM   C13S11511   1.252   2.687   9.501 -0.5473  0.0262  0.1840
  111OSM   H13S11512   1.283   2.777   9.444 -0.0604 -1.1902 -1.5700
  111OSM   H13T11513   1.170   2.641   9.443  1.7477 -3.2331 -0.8056
  111OSM   C14S11514   1.360   2.579   9.484 -0.0888  0.9331 -0.0640
  111OSM   H14S11515   1.336   2.499   9.558  1.3205  1.4273  0.9533
  111OSM   H14T11516   1.462   2.614   9.509  0.1384  1.1370 -1.2169
  111OSM   C15S11517   1.354   2.514   9.341 -0.1840  0.9092 -0.2336
  111OSM   H15S11518   1.247   2.487   9.331  0.1228 -1.1651  1.4553
  111OSM   H15T11519   1.409   2.418   9.345  2.4439  2.3257  0.3285
  111OSM   C16S11520   1.407   2.617   9.233 -0.3210 -0.2238  0.0181
  111OSM   H16S11521   1.513   2.642   9.253 -0.2780 -0.4808  0.1190
  111OSM   H16T11522   1.354   2.714   9.242  2.1442  1.2171 -0.0477
  111OSM   C17S11523   1.385   2.587   9.087  0.6304 -0.1226 -0.1433
  111OSM   H17S11524   1.275   2.598   9.075  0.6419  1.5151  1.0539
  111OSM   H17T11525   1.421   2.484   9.064 -0.9812 -0.8526  0.4007
  111OSM   C18S11526   1.457   2.685   8.994 -0.2639 -0.7123 -0.2191
  111OSM   H18S11527   1.564   2.692   9.023  1.3087 -4.0229 -4.2020
  111OSM   H18T11528   1.418   2.789   8.996 -0.0637 -0.6511  1.2452
  111OSM   H18U11529   1.469   2.652   8.889 -0.5409 -1.3601 -0.0495
  111OSM    C1F11530   1.662   1.974  10.261 -0.2356  0.2898 -0.2738
  111OSM     OF11531   1.585   1.908  10.322  0.3682  0.1386  0.3001
  111OSM    C2F11532   1.753   1.931  10.154  0.0279 -0.2765 -0.2765
  111OSM    H2F11533   1.855   1.968  10.179 -0.3781 -1.3854  3.5418
  111OSM    H2G11534   1.714   1.979  10.061 -0.3713  1.9619  0.9782
  111OSM    C3F11535   1.785   1.782  10.136 -0.1973 -0.6584  0.1012
  111OSM    H3F11536   1.690   1.725  10.133  0.2380 -1.3705 -0.4239
  111OSM    H3G11537   1.832   1.737  10.227 -0.2104 -0.3542  0.2587
  111OSM    C4F11538   1.860   1.754  10.003 -0.2733 -0.3144  0.4511
  111OSM    H4F11539   1.951   1.817  10.008 -1.1453  0.9435  0.9439
  111OSM    H4G11540   1.806   1.788   9.912  0.0479  0.8845  0.6864
  111OSM    C5F11541   1.925   1.613   9.992  0.5494  0.0739  0.3174
  111OSM    H5F11542   1.855   1.528  10.006  1.8688 -0.9175  1.2251
  111OSM    H5G11543   2.003   1.601  10.071 -0.8240  0.3911  1.7865
  111OSM    C6F11544   1.994   1.596   9.861  0.4353 -1.4329 -0.3713
  111OSM    H6F11545   2.054   1.502   9.867  1.5628 -0.7028  0.0598
  111OSM    H6G11546   2.072   1.673   9.850 -0.7075 -0.2141 -0.1518
  111OSM    C7F11547   1.902   1.585   9.740 -0.0494  0.7392 -0.5458
  111OSM    H7F11548   1.828   1.668   9.737 -1.2281 -0.2531 -0.0856
  111OSM    H7G11549   1.830   1.503   9.762  1.7623 -0.2212  2.4428
  111OSM    C8F11550   1.961   1.554   9.599  0.0714 -0.0022  0.5477
  111OSM    H8F11551   1.877   1.544   9.526 -0.2050  0.6841  0.7654
  111OSM    H8G11552   2.009   1.456   9.619  0.7654  0.1728 -0.2093
  111OSM    C9F11553   2.061   1.653   9.548 -0.6110  0.2105  0.0401
  111OSM    H9F11554   2.132   1.692   9.623  0.1289  1.7358 -1.3802
  111OSM   C10F11555   2.078   1.689   9.419  0.5326  0.0845  0.7008
  111OSM   H10F11556   2.149   1.768   9.393  2.0122 -1.3999  0.0134
  111OSM   C11F11557   2.002   1.644   9.298  0.0941 -0.0817 -0.1126
  111OSM   H11F11558   1.941   1.728   9.259  0.5233  0.0537 -0.5053
  111OSM   H11G11559   1.920   1.575   9.326 -1.9277  1.5089 -1.7590
  111OSM   C12F11560   2.092   1.609   9.183  0.1036  0.0910  0.1217
  111OSM   H12F11561   2.158   1.525   9.212  0.8469  1.2917  2.0500
  111OSM   H12G11562   2.158   1.695   9.161  0.3148 -0.4517 -1.5512
  111OSM   C13F11563   2.016   1.583   9.054 -0.6901 -0.1691 -0.7132
  111OSM   H13F11564   1.962   1.679   9.040 -1.0317 -0.4650 -1.5030
  111OSM   H13G11565   1.951   1.495   9.071  0.6176 -1.1048 -0.3795
  111OSM   C14F11566   2.119   1.548   8.943  0.1696  0.2817  0.5213
  111OSM   H14F11567   2.105   1.443   8.909  0.2643  0.8660 -1.4433
  111OSM   H14G11568   2.225   1.559   8.977  0.6583  0.1952 -0.9270
  111OSM   C15F11569   2.088   1.646   8.831  0.7854 -0.1024  0.1342
  111OSM   H15F11570   2.072   1.748   8.872  0.2649 -0.4992  0.9460
  111OSM   H15G11571   2.000   1.601   8.781  1.8312 -1.7853 -0.2575
  111OSM   C16F11572   2.195   1.652   8.724 -0.3133 -0.0758  0.2760
  111OSM   H16F11573   2.191   1.553   8.674  0.0064  0.1522 -0.2182
  111OSM   H16G11574   2.294   1.669   8.770  0.8001 -0.2112 -1.9309
  111OSM   C17F11575   2.177   1.760   8.615 -1.0315  0.1102  0.4969
  111OSM   H17F11576   2.172   1.855   8.671 -1.9354 -0.7312  1.9075
  111OSM   H17G11577   2.083   1.749   8.555 -1.4960 -1.4251  1.4336
  111OSM   C18F11578   2.293   1.778   8.518 -0.1632  0.5755 -0.4609
  111OSM   H18F11579   2.271   1.858   8.442 -2.3457  1.5148  1.0374
  111OSM   H18G11580   2.326   1.688   8.462  0.5688  0.6921 -0.2264
  111OSM   H18H11581   2.391   1.815   8.555 -0.1538 -0.8359  0.9988
  112OSM      N11582   1.863   5.544  11.079 -0.3127  0.7917 -0.2912
  112OSM    C1511583   1.905   5.454  11.188 -0.7844 -0.9087 -0.3427
  112OSM   H15A11584   1.892   5.352  11.155 -3.7579 -0.6949 -0.1070
  112OSM   H15B11585   1.839   5.451  11.274 -0.2174 -0.0301  0.1414
  112OSM   H15C11586   1.998   5.489  11.229 -0.1041 -1.5114 -1.3152
  112OSM    C1411587   1.715   5.587  11.082 -0.5278 -0.2379  0.2899
  112OSM   H14A11588   1.656   5.497  11.081  0.3243 -0.8232 -1.4178
  112OSM   H14B11589   1.685   5.649  10.999 -2.4206 -1.2652  0.1557
  112OSM   H14C11590   1.700   5.643  11.174  0.7098  0.0804  0.3225
  112OSM    C1311591   1.931   5.681  11.097 -0.4666 -0.5820  0.8033
  112OSM   H13A11592   1.885   5.748  11.026  1.2230 -0.6937 -0.4537
  112OSM   H13B11593   2.035   5.676  11.069 -0.6357  2.9824 -1.0232
  112OSM   H13C11594   1.911   5.720  11.196  0.6859 -0.1534  0.8813
  112OSM    C1211595   1.881   5.482  10.944  0.3349 -0.0550  0.2197
  112OSM   H12A11596   1.985   5.459  10.928  0.7708  2.4803 -1.1674
  112OSM   H12B11597   1.866   5.553  10.865 -0.1460 -1.0089 -0.5783
  112OSM    C1111598   1.806   5.348  10.902 -0.3044  0.1227 -0.2073
  112OSM   H11A11599   1.834   5.344  10.795  1.6963  3.0900  0.1075
  112OSM   H11B11600   1.699   5.377  10.906 -0.1528  0.8562  5.0243
  112OSM      P11601   1.745   5.103  10.971 -0.3208 -0.0140  0.1820
  112OSM    O1311602   1.830   4.981  10.976 -0.9886  0.0395  0.0905
  112OSM    O1411603   1.644   5.122  11.080 -0.4243 -0.0390 -0.0233
  112OSM    O1111604   1.676   5.114  10.828 -0.1675  0.4717  0.3000
  112OSM    O1211605   1.840   5.226  10.975  0.0592 -0.3128  0.1705
  112OSM    C1S11606   1.571   5.019  10.790  0.1875  0.5485  0.2539
  112OSM    H1S11607   1.480   5.042  10.848  1.3027  4.3258  0.7826
  112OSM    H1T11608   1.604   4.915  10.808  0.2638  0.4324 -0.5078
  112OSM     NF11609   1.433   4.967  10.581 -0.1267 -0.5262 -0.6928
  112OSM    HNF11610   1.438   4.872  10.551  0.3677 -0.6346 -0.2744
  112OSM    C2S11611   1.559   5.027  10.632  0.1272 -0.3127  0.7454
  112OSM    H2S11612   1.555   5.137  10.617  1.7892 -0.1680  1.1750
  112OSM    C3S11613   1.688   4.972  10.558  0.2815 -0.2224  0.9265
  112OSM    H3S11614   1.673   4.862  10.568 -1.8240 -0.1300 -0.5820
  112OSM     O311615   1.806   5.002  10.626  0.1667  0.4860  0.3183
  112OSM    HO311616   1.776   5.040  10.709  0.2121 -0.0061  0.5638
  112OSM    C4S11617   1.697   5.021  10.412 -0.5496 -0.4947 -0.2844
  112OSM    H4S11618   1.691   5.130  10.405 -0.4908 -0.2131  2.7281
  112OSM    C5S11619   1.698   4.945  10.302 -0.2662  0.0697 -0.2801
  112OSM    H5S11620   1.691   4.835  10.307  2.0807 -0.2044 -1.6754
  112OSM    C6S11621   1.720   4.989  10.162 -0.6839 -0.8101 -0.5853
  112OSM    H6S11622   1.623   5.009  10.111 -0.8440 -1.6555 -0.6175
  112OSM    H6T11623   1.774   4.908  10.109 -1.2066 -1.2903 -0.3952
  112OSM    C7S11624   1.802   5.122  10.149 -0.4354 -0.8320  0.3110
  112OSM    H7S11625   1.906   5.120  10.187 -0.3960  2.4940  0.7020
  112OSM    H7T11626   1.743   5.209  10.188  2.8715  3.3291 -2.9934
  112OSM    C8S11627   1.809   5.154  10.007 -0.4865 -0.2831  0.9497
  112OSM    H8S11628   1.850   5.257  10.008 -1.4699  0.1268  2.9061
  112OSM    H8T11629   1.713   5.153   9.950  0.9517 -1.0778 -1.6461
  112OSM    C9S11630   1.904   5.071   9.917  0.2276 -0.4843 -0.2939
  112OSM    H9S11631   1.868   4.967   9.928  0.4863 -0.3464  2.6193
  112OSM    H9T11632   2.006   5.075   9.963 -0.3625  1.1373  0.9761
  112OSM   C10S11633   1.925   5.120   9.771  0.2258  0.1361  0.0650
  112OSM   H10S11634   1.853   5.202   9.747 -1.1524 -0.9686  0.2676
  112OSM   H10T11635   1.879   5.036   9.714  0.9060 -1.7441  2.1463
  112OSM   C11S11636   2.069   5.139   9.735 -0.4585 -0.5533  0.0844
  112OSM   H11S11637   2.132   5.068   9.793 -0.2046  0.2875  0.8670
  112OSM   H11T11638   2.103   5.238   9.772  1.3436 -0.9074 -0.4965
  112OSM   C12S11639   2.102   5.126   9.588  0.8238  0.0424 -0.1479
  112OSM   H12S11640   2.017   5.083   9.532 -0.3129 -1.4745  2.5525
  112OSM   H12T11641   2.177   5.045   9.581 -1.4767 -2.0842 -1.9127
  112OSM   C13S11642   2.154   5.253   9.524 -0.2799  0.3718  0.3296
  112OSM   H13S11643   2.245   5.298   9.571  0.0051 -0.4569  0.5890
  112OSM   H13T11644   2.079   5.333   9.541  0.3664  1.2830 -0.9317
  112OSM   C14S11645   2.183   5.240   9.372 -0.6397  0.5363 -0.8393
  112OSM   H14S11646   2.098   5.268   9.306 -2.8305  1.6607  2.1707
  112OSM   H14T11647   2.211   5.136   9.348  0.5884  0.4574  0.8006
  112OSM   C15S11648   2.294   5.343   9.329 -0.2228 -0.3706  0.2199
  112OSM   H15S11649   2.388   5.331   9.387  0.8437  0.4622 -1.2656
  112OSM   H15T11650   2.244   5.440   9.349  0.9250  0.5580 -1.1800
  112OSM   C16S11651   2.317   5.337   9.179  0.4818 -0.2332 -0.4263
  112OSM   H16S11652   2.219   5.326   9.129  0.1868  0.4174 -0.0098
  112OSM   H16T11653   2.378   5.250   9.146  2.6856  1.1591 -0.2550
  112OSM   C17S11654   2.391   5.469   9.139  0.5678 -0.3469  0.2013
  112OSM   H17S11655   2.478   5.495   9.204 -0.7581  0.2037  1.8349
  112OSM   H17T11656   2.319   5.552   9.156  0.1473 -0.4604 -0.9352
  112OSM   C18S11657   2.421   5.474   8.984  0.4446 -0.8865 -1.1678
  112OSM   H18S11658   2.329   5.462   8.924 -0.7832  0.8592  0.2491
  112OSM   H18T11659   2.501   5.402   8.956  0.5525 -1.4262  0.4100
  112OSM   H18U11660   2.457   5.578   8.968  0.9916 -0.4463  2.2016
  112OSM    C1F11661   1.308   5.017  10.586 -0.2231  0.2356 -0.1719
  112OSM     OF11662   1.279   5.123  10.640  0.0129 -0.6642 -0.0250
  112OSM    C2F11663   1.208   4.939  10.514  0.4063  0.1087  1.0984
  112OSM    H2F11664   1.115   4.934  10.574  0.2692 -2.7292  0.7970
  112OSM    H2G11665   1.241   4.833  10.510  0.9045  0.2506  1.2886
  112OSM    C3F11666   1.177   4.993  10.374 -0.7384  0.1731 -0.0621
  112OSM    H3F11667   1.134   5.096  10.368 -0.9036  0.3451  2.6065
  112OSM    H3G11668   1.111   4.915  10.332  1.2883 -1.0446 -1.0908
  112OSM    C4F11669   1.289   4.977  10.270 -0.1495 -0.3883  0.0423
  112OSM    H4F11670   1.337   4.876  10.275  1.0588  0.1992  1.1245
  112OSM    H4G11671   1.368   5.047  10.306  0.6752 -0.3797 -1.6978
  112OSM    C5F11672   1.243   5.025  10.130  0.4722 -0.3030  0.3249
  112OSM    H5F11673   1.256   5.135  10.115  0.2245 -0.5409 -1.8744
  112OSM    H5G11674   1.133   5.016  10.123  0.6215 -1.9167 -0.2543
  112OSM    C6F11675   1.319   4.964  10.012 -0.0503  0.4950 -0.1667
  112OSM    H6F11676   1.298   4.857  10.030  2.4530 -0.0452 -0.0046
  112OSM    H6G11677   1.428   4.986  10.018  0.5664 -2.4382  1.3332
  112OSM    C7F11678   1.271   5.003   9.871 -0.3616 -0.4457 -0.2621
  112OSM    H7F11679   1.355   4.985   9.801 -0.2433  0.6295 -0.4110
  112OSM    H7G11680   1.241   5.110   9.867 -0.9013 -0.5908 -0.2041
  112OSM    C8F11681   1.153   4.925   9.815 -0.6986 -0.2507 -0.6277
  112OSM    H8F11682   1.121   4.968   9.718 -0.3066 -1.1373 -1.1726
  112OSM    H8G11683   1.065   4.929   9.883  0.7576 -2.8549  1.6484
  112OSM    C9F11684   1.175   4.777   9.783 -0.6334  0.7211  0.1896
  112OSM    H9F11685   1.143   4.707   9.861  3.0089 -0.6415  0.6729
  112OSM   C10F11686   1.241   4.731   9.676 -0.2660  0.2698 -0.1764
  112OSM   H10F11687   1.270   4.625   9.673  0.7873  0.5378  0.4844
  112OSM   C11F11688   1.293   4.823   9.571 -0.1540  0.6020 -0.1030
  112OSM   H11F11689   1.398   4.795   9.552  0.5004  2.5591  0.3736
  112OSM   H11G11690   1.281   4.931   9.594  0.1590  0.6520 -0.1711
  112OSM   C12F11691   1.219   4.810   9.435  0.2980 -0.2756 -0.1791
  112OSM   H12F11692   1.131   4.873   9.458  2.1880  1.3524  3.4573
  112OSM   H12G11693   1.189   4.707   9.406  0.9100 -0.2779 -0.8108
  112OSM   C13F11694   1.300   4.857   9.323 -0.2578  0.2996  0.5749
  112OSM   H13F11695   1.397   4.803   9.328 -2.0593 -3.2101  0.4542
  112OSM   H13G11696   1.309   4.968   9.330 -0.1407  0.2439  1.4577
  112OSM   C14F11697   1.223   4.838   9.187 -0.1964  0.3605 -0.8385
  112OSM   H14F11698   1.117   4.868   9.202 -0.8770 -2.6780  1.3792
  112OSM   H14G11699   1.218   4.731   9.158 -1.5758  0.3852 -0.7325
  112OSM   C15F11700   1.280   4.931   9.076 -0.0037  0.0777 -0.6903
  112OSM   H15F11701   1.269   5.036   9.110 -2.2206 -0.0154 -0.9752
  112OSM   H15G11702   1.213   4.905   8.992 -2.1760 -0.2420  1.0475
  112OSM   C16F11703   1.425   4.884   9.043 -0.0548  0.4372  0.0411
  112OSM   H16F11704   1.424   4.773   9.039  1.7907  0.2394  2.3030
  112OSM   H16G11705   1.493   4.912   9.126  0.2379 -0.7859  0.2380
  112OSM   C17F11706   1.470   4.948   8.916  0.9374  1.1507 -0.2131
  112OSM   H17F11707   1.464   5.056   8.938  0.5380  0.7353  1.9459
  112OSM   H17G11708   1.389   4.925   8.843  0.0510  0.2113  1.0222
  112OSM   C18F11709   1.604   4.899   8.849  0.4725 -0.5635 -0.2049
  112OSM   H18F11710   1.615   4.794   8.815  3.2459 -1.2542  2.4582
  112OSM   H18G11711   1.693   4.905   8.916 -0.2842 -0.8720  0.8603
  112OSM   H18H11712   1.627   4.967   8.764 -0.1752 -0.5496 -0.3757
  113OSM      N11713   4.462   2.448  11.037  0.4300 -0.4252  0.0870
  113OSM    C1511714   4.464   2.380  10.902  0.1417  0.0762  0.6259
  113OSM   H15A11715   4.382   2.412  10.839 -0.6359 -2.8367 -0.0054
  113OSM   H15B11716   4.481   2.273  10.908 -1.1661 -0.1471  0.5283
  113OSM   H15C11717   4.551   2.423  10.853 -0.1095  0.5807  0.6218
  113OSM    C1411718   4.347   2.393  11.107  0.4531 -0.4919 -0.0701
  113OSM   H14A11719   4.342   2.431  11.207 -2.2412 -0.1053 -0.2891
  113OSM   H14B11720   4.359   2.286  11.118 -0.2885 -0.3845  2.1996
  113OSM   H14C11721   4.257   2.418  11.054  0.6456  0.1037 -0.1208
  113OSM    C1311722   4.587   2.422  11.110 -0.9624  0.6483  0.0894
  113OSM   H13A11723   4.622   2.321  11.107  1.0384  1.2099  1.8451
  113OSM   H13B11724   4.575   2.456  11.212 -0.8576  2.4510 -0.4569
  113OSM   H13C11725   4.663   2.488  11.070 -1.0076  0.5725 -0.1199
  113OSM    C1211726   4.450   2.599  11.010 -1.2529 -0.6872 -0.1714
  113OSM   H12A11727   4.544   2.629  10.967 -0.6409 -0.1761  1.4502
  113OSM   H12B11728   4.453   2.655  11.103  0.4824 -1.6481  0.4005
  113OSM    C1111729   4.343   2.652  10.921 -0.0437 -0.0143  0.3119
  113OSM   H11A11730   4.355   2.632  10.812 -1.1350  0.5265  0.0763
  113OSM   H11B11731   4.350   2.760  10.942 -1.1188  0.1829 -0.2922
  113OSM      P11732   4.097   2.708  11.000  0.0890 -0.0082  0.1160
  113OSM    O1311733   3.980   2.628  11.043 -0.1736 -0.1067 -0.7052
  113OSM    O1411734   4.146   2.808  11.096  0.3478 -0.2066 -0.6787
  113OSM    O1111735   4.064   2.779  10.869 -0.6019  0.2499 -0.2629
  113OSM    O1211736   4.213   2.612  10.958  0.4128  0.2153 -0.2687
  113OSM    C1S11737   4.020   2.714  10.752  0.1983 -0.0464  0.3222
  113OSM    H1S11738   3.909   2.701  10.760 -0.1923  2.4205 -0.1338
  113OSM    H1T11739   4.081   2.623  10.736  1.3311  0.9399 -1.2831
  113OSM     NF11740   3.982   2.734  10.506 -0.3917  0.4465  0.2273
  113OSM    HNF11741   4.038   2.678  10.446  0.7485  0.0739  1.5879
  113OSM    C2S11742   4.051   2.793  10.624  0.5153  0.6755  0.3207
  113OSM    H2S11743   4.020   2.899  10.629  3.7822  1.7462  0.2225
  113OSM    C3S11744   4.200   2.813  10.606 -0.2838 -0.1536  0.8871
  113OSM    H3S11745   4.239   2.712  10.580 -0.0259  0.6213 -2.0568
  113OSM     O311746   4.264   2.860  10.721  0.1974 -0.5074 -0.5879
  113OSM    HO311747   4.199   2.846  10.790  1.0607 -1.5295  0.0658
  113OSM    C4S11748   4.229   2.899  10.486 -0.4128 -0.0347  0.4734
  113OSM    H4S11749   4.218   2.848  10.389  0.3242  0.8541 -0.0969
  113OSM    C5S11750   4.252   3.030  10.479  0.6062 -0.4688 -0.7835
  113OSM    H5S11751   4.245   3.089  10.571 -1.5630 -0.3055 -1.0010
  113OSM    C6S11752   4.288   3.113  10.357  0.5668 -0.0649  0.3149
  113OSM    H6S11753   4.393   3.148  10.362  0.7317 -0.3660 -0.9152
  113OSM    H6T11754   4.219   3.201  10.365 -0.4568 -0.9673  1.9091
  113OSM    C7S11755   4.261   3.051  10.214 -0.4313 -0.3492 -0.1178
  113OSM    H7S11756   4.153   3.025  10.208 -0.5986  0.5742 -1.5062
  113OSM    H7T11757   4.304   2.949  10.222  0.7475  0.1796  0.7369
  113OSM    C8S11758   4.326   3.140  10.115  0.3847  1.1963  0.3157
  113OSM    H8S11759   4.429   3.168  10.147  0.6396  0.4555  0.1802
  113OSM    H8T11760   4.254   3.223  10.105  0.0367  1.2109  2.5784
  113OSM    C9S11761   4.332   3.057   9.982  0.0112 -0.1284 -0.0699
  113OSM    H9S11762   4.230   3.023   9.952  0.1938  0.3299 -1.2585
  113OSM    H9T11763   4.401   2.970   9.982 -0.6431 -0.7379  2.4659
  113OSM   C10S11764   4.388   3.146   9.865 -0.3642 -0.2244 -0.1511
  113OSM   H10S11765   4.496   3.149   9.888 -0.1950  0.9076 -1.0205
  113OSM   H10T11766   4.348   3.250   9.868  0.1974  0.1752 -3.3610
  113OSM   C11S11767   4.370   3.082   9.731 -0.0930  0.3739  0.5694
  113OSM   H11S11768   4.267   3.103   9.693  0.1472 -0.5638 -0.6563
  113OSM   H11T11769   4.385   2.974   9.753  1.7211 -0.0686 -2.4144
  113OSM   C12S11770   4.471   3.120   9.617 -0.1997 -0.1028  0.7333
  113OSM   H12S11771   4.571   3.085   9.649 -0.1971 -1.1447 -0.3516
  113OSM   H12T11772   4.471   3.231   9.620 -0.5620 -0.0989  0.7244
  113OSM   C13S11773   4.430   3.064   9.477 -0.0521  0.4148 -0.7300
  113OSM   H13S11774   4.336   3.105   9.434 -1.1300 -1.9136 -0.7530
  113OSM   H13T11775   4.402   2.957   9.485 -0.8911  0.6359 -0.6274
  113OSM   C14S11776   4.542   3.072   9.376 -0.2215 -0.0052  0.5641
  113OSM   H14S11777   4.634   3.020   9.409  0.1293  0.1928 -0.1062
  113OSM   H14T11778   4.562   3.179   9.356 -0.1790 -0.1105  0.0242
  113OSM   C15S11779   4.504   3.009   9.236 -0.8374  0.1580 -0.3172
  113OSM   H15S11780   4.401   3.044   9.213 -0.5103  1.0733 -0.4350
  113OSM   H15T11781   4.508   2.900   9.258  0.3076  0.2668  0.0728
  113OSM   C16S11782   4.602   3.055   9.123  0.5492  0.0553  0.3316
  113OSM   H16S11783   4.708   3.028   9.140  0.4632 -1.0781 -0.7430
  113OSM   H16T11784   4.594   3.166   9.115  0.9295  0.2741  2.3582
  113OSM   C17S11785   4.568   2.985   8.979  0.1495  0.6713  0.4090
  113OSM   H17S11786   4.641   3.012   8.900  1.5537  0.9869  1.7558
  113OSM   H17T11787   4.464   3.018   8.955 -0.3368  1.6384  3.3823
  113OSM   C18S11788   4.559   2.836   8.996 -0.4178 -0.6435 -0.0750
  113OSM   H18S11789   4.659   2.795   9.024  0.8844  2.0703 -0.4043
  113OSM   H18T11790   4.536   2.794   8.896 -1.1147  0.7399 -0.5079
  113OSM   H18U11791   4.478   2.799   9.062 -1.3214 -0.2141 -0.9303
  113OSM    C1F11792   3.845   2.733  10.495 -0.3354  0.2556 -0.7930
  113OSM     OF11793   3.778   2.784  10.580  0.0206  0.2289  0.2848
  113OSM    C2F11794   3.785   2.682  10.372  0.5579  0.6195  0.2154
  113OSM    H2F11795   3.783   2.572  10.354  1.7740  1.0480 -3.3341
  113OSM    H2G11796   3.843   2.727  10.289  0.5438 -0.9033 -0.6473
  113OSM    C3F11797   3.635   2.726  10.348  0.0584  0.5957  0.0678
  113OSM    H3F11798   3.629   2.835  10.364  0.6230  0.3895  1.9820
  113OSM    H3G11799   3.572   2.685  10.430  1.3833 -1.5205  0.1236
  113OSM    C4F11800   3.602   2.683  10.204  0.1380  0.5566 -0.1441
  113OSM    H4F11801   3.672   2.724  10.129 -0.2256  1.2628 -0.1034
  113OSM    H4G11802   3.503   2.730  10.187  0.9023  2.1129 -0.4112
  113OSM    C5F11803   3.574   2.528  10.187 -0.0306  0.2824 -0.1863
  113OSM    H5F11804   3.495   2.509  10.263  0.3463 -0.8124 -0.0526
  113OSM    H5G11805   3.667   2.468  10.201 -0.3254 -0.0478  0.4167
  113OSM    C6F11806   3.521   2.496  10.046  0.0757 -0.6178 -0.3449
  113OSM    H6F11807   3.427   2.555  10.041 -0.0704 -0.7654  0.5376
  113OSM    H6G11808   3.502   2.387  10.041  1.8294 -0.9821  0.3037
  113OSM    C7F11809   3.621   2.527   9.940  0.2029  0.2210  0.6957
  113OSM    H7F11810   3.694   2.444   9.954 -1.6291 -1.5472  0.2089
  113OSM    H7G11811   3.664   2.627   9.964 -0.0979  0.6019 -0.3049
  113OSM    C8F11812   3.577   2.517   9.791 -0.9606  0.1044  0.4615
  113OSM    H8F11813   3.505   2.599   9.770  2.0275  2.6395 -0.7603
  113OSM    H8G11814   3.544   2.412   9.776 -0.6881  0.0134  0.4938
  113OSM    C9F11815   3.701   2.543   9.707  0.3352 -0.3890 -1.0985
  113OSM    H9F11816   3.732   2.648   9.720 -1.0339 -0.2914  3.4010
  113OSM   C10F11817   3.769   2.455   9.632 -0.0560 -0.5220 -0.2476
  113OSM   H10F11818   3.854   2.500   9.578 -0.5283 -0.4382 -0.9345
  113OSM   C11F11819   3.735   2.312   9.603  0.2939  0.4692 -0.0639
  113OSM   H11F11820   3.626   2.298   9.587  0.0972  1.0259  0.7203
  113OSM   H11G11821   3.768   2.245   9.686  0.6347 -0.3842 -0.8698
  113OSM   C12F11822   3.795   2.266   9.469  0.2131  0.0167  0.4198
  113OSM   H12F11823   3.782   2.156   9.473  3.5048 -0.5459 -0.9732
  113OSM   H12G11824   3.905   2.278   9.471  0.3354  0.0623 -2.4718
  113OSM   C13F11825   3.739   2.336   9.345 -0.2890 -0.1293  0.8021
  113OSM   H13F11826   3.729   2.445   9.362  0.6671 -0.2013  1.9580
  113OSM   H13G11827   3.631   2.308   9.341 -0.2755 -0.1061  0.1914
  113OSM   C14F11828   3.804   2.301   9.213 -0.3446  0.1479  0.3706
  113OSM   H14F11829   3.747   2.212   9.178 -0.8140  1.1455 -1.5635
  113OSM   H14G11830   3.911   2.274   9.221 -0.6326 -1.6198 -1.0684
  113OSM   C15F11831   3.787   2.416   9.113  0.3783 -0.1486 -0.2338
  113OSM   H15F11832   3.842   2.497   9.165  0.0321 -0.0603  0.0013
  113OSM   H15G11833   3.682   2.453   9.105  0.1824 -0.4719  0.7157
  113OSM   C16F11834   3.838   2.388   8.967 -0.4975  0.2279 -0.0549
  113OSM   H16F11835   3.934   2.335   8.982 -0.7721 -0.2942 -0.1073
  113OSM   H16G11836   3.858   2.489   8.926  0.3905 -0.5460 -1.6420
  113OSM   C17F11837   3.752   2.293   8.883  0.6232  0.3868 -0.3160
  113OSM   H17F11838   3.666   2.357   8.854  0.1876 -1.6471 -4.3133
  113OSM   H17G11839   3.698   2.219   8.946  1.4197 -0.2382 -0.3533
  113OSM   C18F11840   3.820   2.222   8.766  0.7676 -0.4510 -0.2208
  113OSM   H18F11841   3.887   2.286   8.705 -0.7542  1.1039 -0.3101
  113OSM   H18G11842   3.741   2.186   8.696  0.8898  2.1181 -1.7815
  113OSM   H18H11843   3.881   2.134   8.797  1.7387 -0.2795 -1.5626
  114OSM      N11844   0.665   6.471  11.077 -0.3893  0.0884  0.3337
  114OSM    C1511845   0.576   6.583  11.129 -0.3061  0.7374 -0.6538
  114OSM   H15A11846   0.500   6.610  11.057  1.1382  0.1932 -2.4733
  114OSM   H15B11847   0.641   6.664  11.160  0.1957  0.1257 -0.0819
  114OSM   H15C11848   0.527   6.558  11.222  1.6691 -0.1966  0.1898
  114OSM    C1411849   0.745   6.557  10.985 -0.1887  0.9049  0.4756
  114OSM   H14A11850   0.831   6.498  10.954 -1.5188 -0.3373 -1.0223
  114OSM   H14B11851   0.784   6.645  11.034 -2.6232  1.0179  2.4017
  114OSM   H14C11852   0.698   6.579  10.890  1.5120 -0.8840 -0.8641
  114OSM    C1311853   0.752   6.404  11.184 -0.5141 -0.3543  0.1317
  114OSM   H13A11854   0.698   6.364  11.268  1.0505 -0.4270  1.1413
  114OSM   H13B11855   0.830   6.474  11.212 -0.8743 -0.1928  0.7459
  114OSM   H13C11856   0.809   6.317  11.155  1.7490  0.4248  1.9228
  114OSM    C1211857   0.582   6.363  11.015 -0.0279 -0.4061 -0.2257
  114OSM   H12A11858   0.507   6.405  10.949  2.2202  0.8332 -2.1461
  114OSM   H12B11859   0.533   6.310  11.095  0.5153 -1.9423 -0.8773
  114OSM    C1111860   0.658   6.257  10.928 -0.0472 -0.1967  0.1413
  114OSM   H11A11861   0.717   6.303  10.846  1.3959 -1.6995  0.2756
  114OSM   H11B11862   0.581   6.200  10.872 -0.5766 -1.2169  1.8437
  114OSM      P11863   0.674   6.019  11.032  0.3436  0.0100  0.0131
  114OSM    O1311864   0.762   5.946  11.124  0.1648  0.1715 -0.2857
  114OSM    O1411865   0.529   6.040  11.074 -0.2639 -0.1796  0.1741
  114OSM    O1111866   0.671   5.948  10.888 -0.5858  0.3348 -0.5443
  114OSM    O1211867   0.742   6.165  11.002 -0.0785 -0.4045 -0.4762
  114OSM    C1S11868   0.765   5.987  10.789  0.5143 -0.1573  0.2390
  114OSM    H1S11869   0.862   5.942  10.818  0.4983 -0.0360  0.4853
  114OSM    H1T11870   0.783   6.094  10.763  0.5694 -0.2444 -0.0870
  114OSM     NF11871   0.816   5.925  10.551 -0.0262 -0.2077  0.0017
  114OSM    HNF11872   0.794   5.994  10.482 -0.9624 -0.4301  0.0610
  114OSM    C2S11873   0.716   5.925  10.656 -0.1379 -0.5292 -0.1500
  114OSM    H2S11874   0.700   5.820  10.686  2.0644 -0.3741  1.9356
  114OSM    C3S11875   0.578   5.991  10.622  0.8184  0.0836  0.1657
  114OSM    H3S11876   0.595   6.100  10.607 -0.5694  0.4937  1.3953
  114OSM     O311877   0.475   5.995  10.722 -0.4185  0.0161 -0.2124
  114OSM    HO311878   0.528   5.964  10.796  0.4536  4.0374  1.0627
  114OSM    C4S11879   0.517   5.942  10.488 -0.5123  0.3529  0.2303
  114OSM    H4S11880   0.546   6.008  10.405 -1.3937 -0.3577 -0.6669
  114OSM    C5S11881   0.434   5.839  10.485 -0.1793 -0.0675  0.2800
  114OSM    H5S11882   0.404   5.806  10.585  1.9935  1.1886  1.4281
  114OSM    C6S11883   0.365   5.780  10.355  0.2907  0.3650  0.4592
  114OSM    H6S11884   0.254   5.781  10.358  0.1743 -2.8198  0.3990
  114OSM    H6T11885   0.396   5.673  10.355  2.8175  1.0461 -1.0802
  114OSM    C7S11886   0.400   5.854  10.220  0.5161  0.6664 -0.4364
  114OSM    H7S11887   0.510   5.862  10.212  0.6596  0.2862  0.8920
  114OSM    H7T11888   0.358   5.957  10.223 -1.1846  0.0021  0.1517
  114OSM    C8S11889   0.333   5.787  10.100  0.0587 -0.1235 -0.0842
  114OSM    H8S11890   0.225   5.792  10.122 -0.1591 -1.3078 -0.7860
  114OSM    H8T11891   0.359   5.679  10.103  1.7094  0.2475  1.2541
  114OSM    C9S11892   0.396   5.835   9.968  0.0355 -0.2584 -0.3308
  114OSM    H9S11893   0.506   5.824   9.983 -0.0886 -0.3551  0.5124
  114OSM    H9T11894   0.359   5.939   9.951 -1.6699 -0.8545 -0.4476
  114OSM   C10S11895   0.350   5.749   9.849  0.2266  0.2352  0.0187
  114OSM   H10S11896   0.240   5.740   9.851  0.2695 -0.5957 -0.7396
  114OSM   H10T11897   0.380   5.645   9.876 -3.9267 -0.2373  3.9840
  114OSM   C11S11898   0.397   5.786   9.708 -0.2616 -0.7536  0.0785
  114OSM   H11S11899   0.500   5.826   9.716 -1.2368  2.1241 -0.5722
  114OSM   H11T11900   0.336   5.866   9.660  0.0347 -1.1876 -1.0517
  114OSM   C12S11901   0.412   5.660   9.628 -0.1068  0.4434  0.2683
  114OSM   H12S11902   0.327   5.589   9.620  2.1327 -2.2629 -1.3507
  114OSM   H12T11903   0.496   5.602   9.670  1.4904  0.3492 -2.8120
  114OSM   C13S11904   0.466   5.708   9.487  0.1280  0.3393  0.4451
  114OSM   H13S11905   0.567   5.752   9.501 -0.3161  1.5739 -0.0849
  114OSM   H13T11906   0.399   5.786   9.446 -0.9612 -0.6389  0.3086
  114OSM   C14S11907   0.465   5.601   9.378 -0.0929 -0.1178 -0.6789
  114OSM   H14S11908   0.372   5.540   9.382  0.6370 -1.2429 -0.1636
  114OSM   H14T11909   0.551   5.539   9.411  0.2736  0.3308 -0.7841
  114OSM   C15S11910   0.490   5.658   9.237 -0.0064 -0.5491  0.6591
  114OSM   H15S11911   0.579   5.724   9.234  1.3027 -2.2551 -0.7688
  114OSM   H15T11912   0.408   5.724   9.201 -0.2023  0.4003  2.7528
  114OSM   C16S11913   0.503   5.558   9.123  0.1154  0.2921  0.6707
  114OSM   H16S11914   0.406   5.505   9.122 -0.0346  0.4877  2.3005
  114OSM   H16T11915   0.580   5.480   9.142  1.4024  1.7832  1.8348
  114OSM   C17S11916   0.525   5.617   8.982  0.1232 -0.0540  0.5432
  114OSM   H17S11917   0.557   5.533   8.917  0.6240  0.2355  0.4084
  114OSM   H17T11918   0.605   5.694   8.987  2.8804 -2.7366  1.0941
  114OSM   C18S11919   0.401   5.679   8.922  1.0199  0.3193  0.7942
  114OSM   H18S11920   0.378   5.776   8.972  0.4940 -0.0823  1.3496
  114OSM   H18T11921   0.318   5.606   8.935 -1.2679  2.7782  0.8347
  114OSM   H18U11922   0.409   5.689   8.811 -2.4460  1.4745  0.5175
  114OSM    C1F11923   0.930   5.866  10.550 -0.1054  0.4232  0.0265
  114OSM     OF11924   0.957   5.797  10.648  0.3769 -0.5439  0.0332
  114OSM    C2F11925   1.006   5.878  10.417 -0.4862  0.6457 -0.7864
  114OSM    H2F11926   1.049   5.980  10.412  1.7208 -0.2640 -1.3711
  114OSM    H2G11927   0.934   5.855  10.335  0.7787  1.4498 -2.1698
  114OSM    C3F11928   1.128   5.787  10.398 -0.0265  0.5034 -0.0484
  114OSM    H3F11929   1.105   5.680  10.379 -0.6018  0.6097  0.0565
  114OSM    H3G11930   1.182   5.792  10.495 -1.9549 -0.0849  1.0949
  114OSM    C4F11931   1.219   5.831  10.283  0.7435  0.5026 -0.2675
  114OSM    H4F11932   1.306   5.763  10.288  1.8775  1.8579 -1.0190
  114OSM    H4G11933   1.261   5.934  10.290 -0.9005  1.1345  1.3873
  114OSM    C5F11934   1.149   5.806  10.148  0.1212  0.2378  0.3338
  114OSM    H5F11935   1.065   5.875  10.124  1.1943  0.8582 -1.8971
  114OSM    H5G11936   1.100   5.708  10.166  2.2389 -0.6921  1.3370
  114OSM    C6F11937   1.253   5.820  10.038  0.1913  0.5290 -0.0264
  114OSM    H6F11938   1.342   5.754  10.043 -0.3386 -0.3512 -1.5424
  114OSM    H6G11939   1.300   5.920  10.037 -2.4493  1.9503  2.6139
  114OSM    C7F11940   1.169   5.805   9.909 -0.4955 -0.2453  0.5132
  114OSM    H7F11941   1.093   5.886   9.916  1.3149  1.5179  0.5777
  114OSM    H7G11942   1.115   5.710   9.890  1.6988 -1.6261  0.9261
  114OSM    C8F11943   1.237   5.830   9.773  0.6474 -0.1705  0.4745
  114OSM    H8F11944   1.303   5.920   9.765  1.2998 -0.5359  1.4612
  114OSM    H8G11945   1.155   5.826   9.699 -0.3331 -0.2324  1.5291
  114OSM    C9F11946   1.335   5.718   9.746 -0.1490  0.5510 -0.4636
  114OSM    H9F11947   1.360   5.651   9.830 -0.1781 -0.3596 -1.1593
  114OSM   C10F11948   1.387   5.704   9.625  0.0490 -0.4369  0.1259
  114OSM   H10F11949   1.456   5.618   9.623 -0.6460 -1.0856  1.9309
  114OSM   C11F11950   1.367   5.781   9.498 -0.1412  0.0046  0.7498
  114OSM   H11F11951   1.461   5.819   9.451 -0.1062 -0.8696  0.0960
  114OSM   H11G11952   1.308   5.872   9.521 -1.0142 -0.2742 -0.3318
  114OSM   C12F11953   1.275   5.723   9.385  0.0371  0.3197  0.4924
  114OSM   H12F11954   1.180   5.693   9.433 -0.4069  1.0284  0.0784
  114OSM   H12G11955   1.307   5.627   9.340 -2.1843 -0.2164 -0.0519
  114OSM   C13F11956   1.240   5.819   9.264 -0.0102 -0.5083 -0.8288
  114OSM   H13F11957   1.340   5.835   9.219  0.9484 -1.4685  0.8646
  114OSM   H13G11958   1.199   5.913   9.308 -2.1189 -2.2604  1.2488
  114OSM   C14F11959   1.140   5.758   9.173 -0.1496 -0.5814  0.4356
  114OSM   H14F11960   1.047   5.716   9.216 -2.1218  1.2083 -1.7863
  114OSM   H14G11961   1.178   5.666   9.123 -0.5061 -0.9097  0.7661
  114OSM   C15F11962   1.100   5.854   9.050  0.1637 -0.0992  0.0434
  114OSM   H15F11963   1.179   5.932   9.049 -0.9198  1.0274 -0.5468
  114OSM   H15G11964   1.009   5.899   9.094 -0.9961 -0.9659 -1.3872
  114OSM   C16F11965   1.070   5.786   8.920  0.6364  0.2427  0.1074
  114OSM   H16F11966   1.159   5.723   8.901  0.1539 -0.3905 -0.1225
  114OSM   H16G11967   1.061   5.866   8.843 -0.5315  0.1243  0.0968
  114OSM   C17F11968   0.948   5.686   8.935  0.5108  0.0962 -0.2642
  114OSM   H17F11969   0.873   5.753   8.983  0.5071 -1.6275  2.3593
  114OSM   H17G11970   0.977   5.618   9.018 -0.1038 -1.1565 -1.0527
  114OSM   C18F11971   0.898   5.618   8.805  0.3059 -0.3451 -0.1764
  114OSM   H18F11972   0.869   5.697   8.732 -0.3383  0.0544  0.5073
  114OSM   H18G11973   0.806   5.565   8.838  0.9743  0.6506  3.8168
  114OSM   H18H11974   0.968   5.552   8.749 -0.8742  0.1167 -2.3127
  115OSM      N11975   3.410   4.350  11.218  0.1999 -0.2737 -0.0080
  115OSM    C1511976   3.262   4.355  11.188  0.4092 -0.1979  0.0749
  115OSM   H15A11977   3.222   4.254  11.187 -0.7702  0.2555 -0.0754
  115OSM   H15B11978   3.243   4.389  11.087 -0.4898  0.0802  0.3333
  115OSM   H15C11979   3.212   4.424  11.254  0.8815 -0.6774  0.9510
  115OSM    C1411980   3.459   4.492  11.249  0.2214 -0.0560 -0.2782
  115OSM   H14A11981   3.566   4.497  11.257  0.2015 -1.9126  2.0456
  115OSM   H14B11982   3.408   4.533  11.335 -0.2671  1.1938 -1.1337
  115OSM   H14C11983   3.427   4.560  11.171 -0.6646  1.5730  1.4516
  115OSM    C1311984   3.432   4.264  11.335  0.0664  0.6268  0.0415
  115OSM   H13A11985   3.524   4.295  11.382 -0.4415  0.6177  1.0714
  115OSM   H13B11986   3.445   4.163  11.300 -2.5692  0.2979 -0.2070
  115OSM   H13C11987   3.353   4.260  11.409 -1.9952  1.4738 -1.9855
  115OSM    C1211988   3.488   4.312  11.095  0.8525 -0.2056 -0.3081
  115OSM   H12A11989   3.593   4.334  11.107  0.4216  0.6753  2.2952
  115OSM   H12B11990   3.444   4.355  11.006  0.6024 -0.5103 -0.3363
  115OSM    C1111991   3.495   4.158  11.051  0.4897 -0.0313  0.6212
  115OSM   H11A11992   3.516   4.139  10.944  1.5287 -1.2045  0.9944
  115OSM   H11B11993   3.396   4.109  11.062  2.0585 -3.3634  1.4732
  115OSM      P11994   3.742   4.108  11.099 -0.0902 -0.0767 -0.3370
  115OSM    O1311995   3.782   4.209  11.199 -0.3186 -0.1804  0.1702
  115OSM    O1411996   3.817   3.982  11.104 -0.4274 -0.5588 -0.1235
  115OSM    O1111997   3.754   4.168  10.952 -0.0563 -0.2273  0.2045
  115OSM    O1211998   3.583   4.081  11.123 -0.6674 -0.5189 -0.1385
  115OSM    C1S11999   3.742   4.066  10.846  0.3409 -0.3935  0.0743
  115OSM    H1S12000   3.659   3.994  10.856  1.4823 -1.7199  0.3611
  115OSM    H1T12001   3.830   3.999  10.839 -0.4992 -1.6978  1.4720
  115OSM     NF12002   3.677   4.065  10.616  0.1776 -0.6180 -0.0108
  115OSM    HNF12003   3.717   4.001  10.551  0.3793 -0.6213  0.1166
  115OSM    C2S12004   3.751   4.137  10.713  0.2117 -1.0021  0.4386
  115OSM    H2S12005   3.699   4.235  10.721 -1.8797 -2.0789  0.7167
  115OSM    C3S12006   3.898   4.163  10.665 -0.1054  0.4558 -0.3150
  115OSM    H3S12007   3.929   4.060  10.638 -2.5329 -0.6370  0.8596
  115OSM     O312008   3.984   4.204  10.770 -0.1857  0.1200 -0.2291
  115OSM    HO312009   3.923   4.186  10.842 -2.7882 -5.9132 -3.1989
  115OSM    C4S12010   3.907   4.266  10.560 -0.0243 -0.6519  0.3684
  115OSM    H4S12011   3.873   4.362  10.602  2.7242  0.3162  0.6152
  115OSM    C5S12012   3.943   4.255  10.434 -0.1751 -0.4176 -0.3550
  115OSM    H5S12013   3.983   4.161  10.395  2.9976 -0.0668  1.6831
  115OSM    C6S12014   3.948   4.368  10.338  0.6573  0.0823 -0.1830
  115OSM    H6S12015   3.925   4.466  10.385 -0.0821 -0.4758  0.6758
  115OSM    H6T12016   3.863   4.349  10.269 -0.8464  0.6376  1.4333
  115OSM    C7S12017   4.085   4.371  10.263  0.6054 -0.3608  0.0716
  115OSM    H7S12018   4.091   4.277  10.204  4.2003 -0.2259  0.0286
  115OSM    H7T12019   4.168   4.366  10.336  0.6728  1.6469  0.1792
  115OSM    C8S12020   4.112   4.493  10.168  0.2821  0.8511  0.0908
  115OSM    H8S12021   4.208   4.464  10.120 -0.3010 -1.3488  0.1410
  115OSM    H8T12022   4.145   4.577  10.232  2.2111  0.0267  0.2569
  115OSM    C9S12023   4.002   4.523  10.064  0.9708  0.4141  0.4377
  115OSM    H9S12024   4.031   4.611  10.003  0.2780 -0.2584 -0.9033
  115OSM    H9T12025   3.904   4.550  10.109  0.9256 -1.7437  1.8166
  115OSM   C10S12026   4.006   4.405   9.964  0.1208  0.4348  0.2921
  115OSM   H10S12027   4.003   4.313  10.026  0.2117 -0.3721 -0.8740
  115OSM   H10T12028   4.095   4.401   9.897  0.1956 -2.1943  0.4370
  115OSM   C11S12029   3.887   4.406   9.866  0.4043 -0.0823 -0.2077
  115OSM   H11S12030   3.876   4.504   9.815  0.1290  0.8701  1.5931
  115OSM   H11T12031   3.794   4.406   9.927 -0.6419  2.0587 -1.7070
  115OSM   C12S12032   3.895   4.293   9.766 -0.0549 -0.1145 -0.3411
  115OSM   H12S12033   3.915   4.198   9.820  1.1826 -1.1268 -2.4718
  115OSM   H12T12034   3.983   4.308   9.700  1.3050  0.3346  1.4546
  115OSM   C13S12035   3.771   4.273   9.678  0.7432 -0.3772 -0.3500
  115OSM   H13S12036   3.687   4.237   9.742 -0.1419  2.7605  0.4204
  115OSM   H13T12037   3.803   4.189   9.613 -0.1695 -1.2664  0.3166
  115OSM   C14S12038   3.707   4.391   9.600  0.0033 -0.5883 -0.3916
  115OSM   H14S12039   3.789   4.451   9.553 -0.1673 -0.8851 -1.0815
  115OSM   H14T12040   3.651   4.457   9.669  1.2203 -1.9358  2.0172
  115OSM   C15S12041   3.609   4.352   9.480 -0.9636  0.0193  0.2707
  115OSM   H15S12042   3.564   4.447   9.446 -1.3485 -0.2098  0.1380
  115OSM   H15T12043   3.536   4.271   9.500  1.4480 -2.2258  0.5530
  115OSM   C16S12044   3.698   4.296   9.368 -0.3476 -0.0331  0.1586
  115OSM   H16S12045   3.723   4.190   9.389 -2.4283 -0.5338  0.3457
  115OSM   H16T12046   3.796   4.347   9.360  0.5567 -1.7033  0.0157
  115OSM   C17S12047   3.611   4.306   9.233 -0.2643  1.4425 -0.4606
  115OSM   H17S12048   3.572   4.409   9.244 -0.6242  1.2413  0.1977
  115OSM   H17T12049   3.519   4.245   9.227  0.2076  0.2080  2.8592
  115OSM   C18S12050   3.695   4.289   9.103 -0.4788 -0.3666  0.0659
  115OSM   H18S12051   3.616   4.262   9.029 -2.1529  2.9714  0.4361
  115OSM   H18T12052   3.769   4.207   9.112  1.7169  1.4976 -0.1824
  115OSM   H18U12053   3.758   4.379   9.087 -1.1784  0.3611  1.2230
  115OSM    C1F12054   3.543   4.058  10.613 -0.7998  0.0186 -0.0896
  115OSM     OF12055   3.474   4.105  10.701  0.0149 -0.4089  0.2555
  115OSM    C2F12056   3.484   3.985  10.495  0.2315  0.3046  0.4791
  115OSM    H2F12057   3.490   3.875  10.511 -0.8333 -0.0461 -1.2852
  115OSM    H2G12058   3.554   4.020  10.416 -0.5227 -1.5999 -1.1178
  115OSM    C3F12059   3.337   4.019  10.467 -0.1724  0.1123  0.2148
  115OSM    H3F12060   3.322   4.128  10.453 -1.2589 -0.2511 -1.8475
  115OSM    H3G12061   3.280   3.983  10.555  0.7633  2.4739  1.8925
  115OSM    C4F12062   3.286   3.956  10.335  0.2617 -0.2345 -0.9230
  115OSM    H4F12063   3.181   3.991  10.324 -0.2882 -2.0965 -2.1048
  115OSM    H4G12064   3.279   3.847  10.356 -0.5821 -0.2679 -1.3395
  115OSM    C5F12065   3.367   3.984  10.205 -0.3990  0.2146 -0.9081
  115OSM    H5F12066   3.469   3.943  10.223 -0.7361  0.0173  0.7104
  115OSM    H5G12067   3.381   4.094  10.199 -0.4732  0.3142  0.4550
  115OSM    C6F12068   3.305   3.941  10.077  0.1573  0.5005  1.2714
  115OSM    H6F12069   3.223   4.011  10.052  1.2782  0.9348 -1.6572
  115OSM    H6G12070   3.256   3.843  10.095  0.1643  0.6488  2.1550
  115OSM    C7F12071   3.413   3.936   9.961 -0.5215  0.3570 -0.0001
  115OSM    H7F12072   3.487   3.854   9.975  1.9211  2.4737  0.1179
  115OSM    H7G12073   3.483   4.021   9.951 -0.6980  0.5619  0.5083
  115OSM    C8F12074   3.343   3.928   9.822  0.9352 -0.1534 -0.2846
  115OSM    H8F12075   3.417   3.952   9.742  2.2119  1.7071  1.3612
  115OSM    H8G12076   3.257   3.998   9.816  1.2771  0.4498  1.3290
  115OSM    C9F12077   3.281   3.787   9.815 -0.5047 -0.4248  0.0317
  115OSM    H9F12078   3.313   3.722   9.898 -1.0553 -0.0494  0.5519
  115OSM   C10F12079   3.190   3.750   9.727 -0.5379  0.1751  0.2291
  115OSM   H10F12080   3.148   3.649   9.735  0.3291 -0.4740 -2.3814
  115OSM   C11F12081   3.116   3.823   9.615  0.7223 -0.0611  0.1696
  115OSM   H11F12082   3.127   3.932   9.630  2.4749  0.1401 -1.9930
  115OSM   H11G12083   3.012   3.788   9.604  0.2979  1.5559 -1.3284
  115OSM   C12F12084   3.189   3.791   9.482  0.0673  0.3728  0.2209
  115OSM   H12F12085   3.296   3.796   9.509 -0.3320 -0.3165  2.0776
  115OSM   H12G12086   3.146   3.852   9.399  1.3630 -0.6373 -1.2524
  115OSM   C13F12087   3.183   3.638   9.434  0.2274  0.0593  0.2497
  115OSM   H13F12088   3.234   3.572   9.507 -0.4560 -0.3608  0.3484
  115OSM   H13G12089   3.246   3.642   9.342  0.9077  2.6688  0.7460
  115OSM   C14F12090   3.046   3.570   9.420  0.0967  0.0402 -0.6706
  115OSM   H14F12091   2.990   3.572   9.515  2.1813 -1.0383  0.6598
  115OSM   H14G12092   3.065   3.461   9.408  0.9122  0.0261  0.5965
  115OSM   C15F12093   2.959   3.633   9.315  0.3417  0.5381  0.3239
  115OSM   H15F12094   2.926   3.729   9.360 -0.8791  0.8568 -1.1613
  115OSM   H15G12095   2.862   3.582   9.298  0.5153 -0.1329  1.2798
  115OSM   C16F12096   3.021   3.646   9.178  0.2249  0.7553 -0.0310
  115OSM   H16F12097   3.027   3.544   9.134  0.4459  0.5866  0.3861
  115OSM   H16G12098   3.111   3.709   9.165 -0.3422  1.2131 -1.9483
  115OSM   C17F12099   2.924   3.724   9.093 -0.3941 -0.1446  0.1845
  115OSM   H17F12100   2.928   3.829   9.127 -1.6024 -1.0607  3.6728
  115OSM   H17G12101   2.818   3.696   9.114  0.0609  0.7495  4.6519
  115OSM   C18F12102   2.948   3.715   8.943 -0.3744 -0.2334  0.4435
  115OSM   H18F12103   2.928   3.612   8.908  0.7110  0.0551 -1.1652
  115OSM   H18G12104   3.050   3.752   8.916 -0.8281  2.8399  2.4273
  115OSM   H18H12105   2.873   3.780   8.893  0.2347  0.3925  0.3211
  116OSM      N12106   1.435   0.477  11.162  0.2222 -0.3505  0.4981
  116OSM    C1512107   1.548   0.555  11.095  0.5620  0.6175 -1.0453
  116OSM   H15A12108   1.510   0.647  11.054  2.5714  1.4264 -1.2280
  116OSM   H15B12109   1.583   0.502  11.007  0.6012 -0.7278 -0.2512
  116OSM   H15C12110   1.636   0.583  11.150  0.3387  0.7184 -0.7370
  116OSM    C1412111   1.480   0.353  11.228 -0.0335 -0.6618  0.1775
  116OSM   H14A12112   1.411   0.317  11.303 -0.7512  0.2595 -0.0216
  116OSM   H14B12113   1.567   0.373  11.288 -0.8334 -0.2485  1.2363
  116OSM   H14C12114   1.504   0.269  11.164 -0.3340 -1.2538  0.8310
  116OSM    C1312115   1.371   0.567  11.273 -0.5240  0.8384  0.5019
  116OSM   H13A12116   1.317   0.648  11.226 -0.8649 -0.1585 -0.8804
  116OSM   H13B12117   1.453   0.606  11.331 -0.0499 -1.1038  1.2415
  116OSM   H13C12118   1.314   0.516  11.349 -0.1600  0.6191  0.6336
  116OSM    C1212119   1.323   0.451  11.059  0.0194 -0.3161 -0.0900
  116OSM   H12A12120   1.235   0.418  11.112  0.7016 -0.4222  1.0344
  116OSM   H12B12121   1.364   0.376  10.993 -1.7249 -0.6820 -0.8060
  116OSM    C1112122   1.286   0.562  10.963  0.0037  0.5353  0.2805
  116OSM   H11A12123   1.204   0.519  10.902  0.6414 -0.0077 -0.2217
  116OSM   H11B12124   1.366   0.589  10.891 -1.2358  0.4811 -1.1705
  116OSM      P12125   1.220   0.803  10.929  0.3731  0.0612  0.1566
  116OSM    O1312126   1.098   0.875  10.962 -0.2786 -0.3886 -0.5971
  116OSM    O1412127   1.344   0.884  10.923 -0.1962  0.5730 -0.3668
  116OSM    O1112128   1.200   0.726  10.786 -0.2456 -0.0647 -0.5294
  116OSM    O1212129   1.248   0.682  11.025 -0.4335 -0.7942  0.0768
  116OSM    C1S12130   1.237   0.805  10.669  0.4049  0.0199 -0.2714
  116OSM    H1S12131   1.341   0.842  10.679  0.5058 -0.6826  1.7969
  116OSM    H1T12132   1.179   0.900  10.660  1.6341  0.6225 -2.6095
  116OSM     NF12133   1.242   0.841  10.429  0.5534  0.1557  0.4267
  116OSM    HNF12134   1.175   0.908  10.396  0.4375 -0.8912 -1.6683
  116OSM    C2S12135   1.204   0.749  10.535  0.0357 -0.2794  0.1983
  116OSM    H2S12136   1.271   0.662  10.518  0.6869  0.0758  0.8725
  116OSM    C3S12137   1.056   0.691  10.534  0.3201 -0.5815 -0.1320
  116OSM    H3S12138   1.007   0.788  10.555 -0.6294 -1.2759  0.9795
  116OSM     O312139   1.018   0.606  10.645 -0.1830  0.8200 -0.1943
  116OSM    HO312140   1.094   0.601  10.703 -0.5287 -0.7545  0.1932
  116OSM    C4S12141   1.027   0.629  10.400 -0.0089  0.0878  0.4325
  116OSM    H4S12142   0.995   0.707  10.329  0.8737  2.3107  2.3208
  116OSM    C5S12143   1.041   0.495  10.362 -0.0997 -0.3677 -0.1046
  116OSM    H5S12144   1.068   0.421  10.439 -1.2665 -0.1635  0.5232
  116OSM    C6S12145   1.020   0.446  10.221  0.0847 -0.0423 -0.7129
  116OSM    H6S12146   0.916   0.407  10.215  0.4930 -0.9347 -2.6041
  116OSM    H6T12147   1.093   0.366  10.198 -0.5200 -0.5420 -0.8930
  116OSM    C7S12148   1.029   0.554  10.111  0.6179 -0.4420 -0.3714
  116OSM    H7S12149   1.126   0.609  10.111  0.5037 -0.1705  1.5067
  116OSM    H7T12150   0.944   0.625  10.121  0.5376 -0.1680 -2.5135
  116OSM    C8S12151   1.013   0.490   9.972  0.5393 -0.0002  0.2800
  116OSM    H8S12152   0.939   0.408   9.984  1.3160 -0.5448  1.6039
  116OSM    H8T12153   1.109   0.440   9.948  1.5551  2.3442 -0.8390
  116OSM    C9S12154   0.977   0.594   9.862 -0.3987  0.9232  0.1527
  116OSM    H9S12155   1.049   0.679   9.865  0.3637  0.2954 -0.2070
  116OSM    H9T12156   0.879   0.644   9.879 -0.2679  1.1788  0.1717
  116OSM   C10S12157   0.974   0.534   9.725 -0.2328 -0.1839 -0.2125
  116OSM   H10S12158   0.904   0.448   9.718  0.3275 -0.9839  2.5651
  116OSM   H10T12159   1.072   0.489   9.696  0.1385  0.4996 -0.0575
  116OSM   C11S12160   0.931   0.634   9.618 -0.3405 -0.0741  0.0668
  116OSM   H11S12161   1.005   0.717   9.619  0.8501 -1.1014 -0.8489
  116OSM   H11T12162   0.829   0.669   9.645  0.9865  2.3905  2.3552
  116OSM   C12S12163   0.950   0.570   9.479  0.5241  0.3489  0.4249
  116OSM   H12S12164   0.874   0.490   9.469 -0.9679  1.7487  0.1213
  116OSM   H12T12165   1.051   0.525   9.470  0.1885 -1.3207  3.6887
  116OSM   C13S12166   0.920   0.676   9.368  0.5915 -0.2732  0.4330
  116OSM   H13S12167   0.982   0.766   9.382  2.5617 -1.5894  0.5857
  116OSM   H13T12168   0.813   0.701   9.382  0.6390 -0.3726  0.9909
  116OSM   C14S12169   0.965   0.625   9.233  0.5329  0.5554  0.2428
  116OSM   H14S12170   0.913   0.531   9.203 -1.2232  2.4195 -3.2043
  116OSM   H14T12171   1.076   0.611   9.232  0.2769 -1.9398 -0.6344
  116OSM   C15S12172   0.936   0.734   9.126  0.2314  0.1315 -0.4565
  116OSM   H15S12173   0.976   0.830   9.165 -0.7717  1.6793 -2.9885
  116OSM   H15T12174   0.826   0.735   9.109  0.3425 -0.5829 -1.2962
  116OSM   C16S12175   1.005   0.702   8.991 -0.3807  0.5310 -0.1593
  116OSM   H16S12176   0.964   0.610   8.944 -2.9989  0.9774  1.0851
  116OSM   H16T12177   1.111   0.676   9.015 -0.3583  0.1180 -0.6836
  116OSM   C17S12178   0.985   0.827   8.906 -0.1756  0.1625 -0.1435
  116OSM   H17S12179   1.045   0.901   8.965  0.2794 -1.1113  1.0492
  116OSM   H17T12180   0.881   0.864   8.898  0.2909  1.6575  0.2986
  116OSM   C18S12181   1.050   0.813   8.767  0.2122 -0.3135 -0.7729
  116OSM   H18S12182   0.996   0.741   8.702 -0.4129 -0.4766 -0.0873
  116OSM   H18T12183   1.152   0.774   8.786 -0.6813 -2.6327 -0.4923
  116OSM   H18U12184   1.052   0.916   8.726 -2.0509  0.2037  0.2513
  116OSM    C1F12185   1.368   0.878  10.404 -0.4602  0.2000  0.5827
  116OSM     OF12186   1.459   0.798  10.436  0.2950  0.4444 -0.2083
  116OSM    C2F12187   1.398   1.015  10.349  0.2470  0.1185  0.6687
  116OSM    H2F12188   1.505   1.041  10.365  0.9464 -0.0638 -2.8835
  116OSM    H2G12189   1.343   1.095  10.404  0.5619  1.6986 -1.1911
  116OSM    C3F12190   1.359   1.022  10.199 -0.7495 -0.0543  0.1213
  116OSM    H3F12191   1.422   1.099  10.149 -2.8489  0.2801 -2.2031
  116OSM    H3G12192   1.250   1.038  10.188 -0.4494  0.9113 -2.0966
  116OSM    C4F12193   1.400   0.899  10.116 -0.2005 -0.8863  0.1079
  116OSM    H4F12194   1.340   0.809  10.139  0.0114 -1.2423 -0.7131
  116OSM    H4G12195   1.505   0.880  10.147  0.4806  0.7581 -1.0386
  116OSM    C5F12196   1.418   0.929   9.968 -0.4700 -0.3772  0.6631
  116OSM    H5F12197   1.501   1.003   9.955  0.1937 -0.7926  2.3177
  116OSM    H5G12198   1.322   0.976   9.939 -0.4272 -0.1567  0.8712
  116OSM    C6F12199   1.443   0.806   9.878  0.3062 -0.3273 -0.5575
  116OSM    H6F12200   1.433   0.710   9.932  2.3566 -0.7165 -0.7747
  116OSM    H6G12201   1.541   0.809   9.826  0.0318  0.6295 -1.0532
  116OSM    C7F12202   1.341   0.807   9.762  0.1362 -0.6074  0.5736
  116OSM    H7F12203   1.243   0.834   9.804  0.1443 -0.4820  0.5117
  116OSM    H7G12204   1.328   0.705   9.719  0.2661  0.1948 -1.4910
  116OSM    C8F12205   1.373   0.910   9.645  0.6808 -0.3298  0.1053
  116OSM    H8F12206   1.466   0.875   9.595  1.5484  0.1761  1.3027
  116OSM    H8G12207   1.400   1.004   9.697 -1.5011 -0.2170  1.1530
  116OSM    C9F12208   1.254   0.952   9.562 -0.4162 -0.8005  0.2252
  116OSM    H9F12209   1.163   0.974   9.619 -0.2083 -2.3867  1.2292
  116OSM   C10F12210   1.249   0.974   9.425  0.1680  0.4479 -0.1772
  116OSM   H10F12211   1.156   1.016   9.382 -2.4975 -3.3423  1.3439
  116OSM   C11F12212   1.349   0.950   9.317 -0.2982 -0.1349  0.0146
  116OSM   H11F12213   1.441   0.899   9.354 -0.4044 -1.7137 -1.7918
  116OSM   H11G12214   1.383   1.048   9.276 -0.4214  1.1697  2.7781
  116OSM   C12F12215   1.297   0.868   9.201 -0.3721 -0.1310  0.6000
  116OSM   H12F12216   1.219   0.926   9.146  2.2580  1.5047 -1.6916
  116OSM   H12G12217   1.252   0.772   9.234 -0.3503 -0.2689  0.2357
  116OSM   C13F12218   1.413   0.846   9.108  0.6252  0.0347 -0.2264
  116OSM   H13F12219   1.506   0.820   9.164 -0.1548 -0.5894  0.8156
  116OSM   H13G12220   1.428   0.948   9.066  1.2499  0.2039  0.3856
  116OSM   C14F12221   1.381   0.757   8.989  0.3654 -0.8341  0.2041
  116OSM   H14F12222   1.307   0.810   8.925  0.1073 -1.4657 -0.0319
  116OSM   H14G12223   1.341   0.660   9.026  1.8598 -1.0034  1.4718
  116OSM   C15F12224   1.495   0.731   8.896 -0.6458 -0.8144 -0.3016
  116OSM   H15F12225   1.582   0.674   8.934  1.9725  1.9217 -1.7385
  116OSM   H15G12226   1.539   0.828   8.863 -1.4931 -0.7093 -1.1931
  116OSM   C16F12227   1.456   0.656   8.766  0.1235 -0.6349 -0.3455
  116OSM   H16F12228   1.378   0.706   8.705  0.3742  2.0857  1.4166
  116OSM   H16G12229   1.420   0.554   8.794 -1.6315 -0.1305 -0.6113
  116OSM   C17F12230   1.574   0.626   8.664 -0.1402  0.2504 -0.5282
  116OSM   H17F12231   1.513   0.588   8.578 -0.9795 -1.3930  0.7355
  116OSM   H17G12232   1.647   0.547   8.691  0.0175  0.6557  0.2391
  116OSM   C18F12233   1.659   0.752   8.630 -0.3011  0.4100  0.2057
  116OSM   H18F12234   1.589   0.825   8.586 -0.5046  0.1468  0.0883
  116OSM   H18G12235   1.736   0.719   8.556 -1.4738  2.2504 -1.9684
  116OSM   H18H12236   1.701   0.782   8.728 -2.2139 -0.2578  1.2765
  117OSM      N12237   5.314   3.106  11.065 -0.4589  0.0894 -0.0248
  117OSM    C1512238   5.388   3.102  10.934 -0.0109  0.2753 -0.4146
  117OSM   H15A12239   5.316   3.139  10.863  0.1299  0.1119 -0.6411
  117OSM   H15B12240   5.400   3.000  10.900  1.2423 -0.0808  0.9910
  117OSM   H15C12241   5.476   3.164  10.927 -0.7254  1.4620  0.5382
  117OSM    C1412242   5.411   3.049  11.166  0.4938 -0.0242 -0.2037
  117OSM   H14A12243   5.446   2.951  11.136  0.0987  0.2553 -1.6960
  117OSM   H14B12244   5.370   3.029  11.264  1.3381 -0.7521  0.0181
  117OSM   H14C12245   5.494   3.113  11.188 -0.0615  0.5934  0.1240
  117OSM    C1312246   5.287   3.248  11.093  0.3368 -0.3678  0.2093
  117OSM   H13A12247   5.252   3.260  11.194  0.7037 -0.0573  0.2999
  117OSM   H13B12248   5.224   3.296  11.019 -0.0836 -1.8148 -0.4152
  117OSM   H13C12249   5.374   3.312  11.098 -1.3927  2.6548 -3.4500
  117OSM    C1212250   5.183   3.027  11.054  0.1098 -0.6832 -0.0276
  117OSM   H12A12251   5.103   3.085  11.010 -0.1559  0.0251  1.3400
  117OSM   H12B12252   5.155   3.009  11.157  1.4134 -1.9428  0.1410
  117OSM    C1112253   5.171   2.892  10.974 -0.3631 -0.6803 -0.8501
  117OSM   H11A12254   5.185   2.900  10.864 -1.3938 -3.6205 -1.2838
  117OSM   H11B12255   5.065   2.867  10.996 -0.8969  0.5359 -1.9118
  117OSM      P12256   5.337   2.698  10.952 -0.0530  0.1185  0.2963
  117OSM    O1312257   5.420   2.616  11.037  0.2828  0.4006 -0.1756
  117OSM    O1412258   5.244   2.625  10.863  0.4537 -0.2938 -0.3888
  117OSM    O1112259   5.423   2.788  10.856  0.1221 -0.3385 -0.3966
  117OSM    O1212260   5.255   2.801  11.037 -0.1715 -0.3658 -0.0376
  117OSM    C1S12261   5.540   2.737  10.794 -0.0649 -0.1475 -0.0980
  117OSM    H1S12262   5.596   2.671  10.864  1.2348  2.9140  1.9576
  117OSM    H1T12263   5.612   2.819  10.776 -0.7041 -0.0764 -2.8453
  117OSM     NF12264   5.634   2.628  10.606  0.1191 -0.4317  0.6287
  117OSM    HNF12265   5.661   2.680  10.525 -2.7496 -0.1106 -0.2412
  117OSM    C2S12266   5.510   2.660  10.658 -0.5556  0.2000 -0.2178
  117OSM    H2S12267   5.466   2.563  10.689  0.7095  0.0521  1.2223
  117OSM    C3S12268   5.422   2.735  10.555 -0.3446  0.6642 -0.2670
  117OSM    H3S12269   5.482   2.817  10.513  1.7151 -1.1383 -1.0288
  117OSM     O312270   5.295   2.784  10.602 -0.2095 -0.3412  0.5304
  117OSM    HO312271   5.298   2.745  10.690 -1.8252  0.8529  1.1758
  117OSM    C4S12272   5.405   2.657  10.423 -0.5088  0.7947 -0.0258
  117OSM    H4S12273   5.491   2.674  10.356 -0.9170 -0.3343 -0.8549
  117OSM    C5S12274   5.306   2.567  10.387 -1.3054 -0.3485 -0.1894
  117OSM    H5S12275   5.225   2.557  10.460 -1.6899  0.5255 -0.4824
  117OSM    C6S12276   5.305   2.495  10.254  0.1925  0.2281  0.3980
  117OSM    H6S12277   5.213   2.433  10.238  0.2822 -0.2295  1.5380
  117OSM    H6T12278   5.385   2.418  10.246 -0.6449 -0.6156 -0.1143
  117OSM    C7S12279   5.346   2.575  10.134 -0.7143  0.9023 -0.3523
  117OSM    H7S12280   5.450   2.612  10.146 -0.9757  1.0455  1.8541
  117OSM    H7T12281   5.291   2.670  10.120  0.2117  1.2486 -1.7950
  117OSM    C8S12282   5.329   2.482  10.009 -0.1627 -0.0771  0.8700
  117OSM    H8S12283   5.221   2.478   9.983 -0.3328  0.4997  1.4718
  117OSM    H8T12284   5.376   2.383  10.026  1.5686  0.9378  2.5442
  117OSM    C9S12285   5.410   2.548   9.901 -0.0254 -0.8148  0.6002
  117OSM    H9S12286   5.517   2.562   9.929  0.2409 -1.4576 -0.0598
  117OSM    H9T12287   5.381   2.655   9.885 -1.2021 -1.0648  0.9994
  117OSM   C10S12288   5.392   2.468   9.776  0.4372 -0.3393 -0.4739
  117OSM   H10S12289   5.287   2.437   9.757  0.0523  1.6284 -1.8904
  117OSM   H10T12290   5.460   2.383   9.794  0.0054 -0.3429  1.3386
  117OSM   C11S12291   5.418   2.538   9.644  0.1366 -0.4488  0.1644
  117OSM   H11S12292   5.521   2.581   9.649 -0.0122 -0.0005 -0.4775
  117OSM   H11T12293   5.345   2.620   9.628  0.2279 -0.7456 -2.0524
  117OSM   C12S12294   5.411   2.450   9.529  0.1900 -0.3280 -0.0257
  117OSM   H12S12295   5.312   2.398   9.526  0.8399 -1.8123  2.1826
  117OSM   H12T12296   5.493   2.375   9.534  0.0668 -0.3950  1.2638
  117OSM   C13S12297   5.441   2.514   9.394  0.3318  0.4334 -0.5884
  117OSM   H13S12298   5.536   2.570   9.403  1.4480 -1.1695 -1.8259
  117OSM   H13T12299   5.354   2.581   9.371 -0.3878 -0.4646 -0.5312
  117OSM   C14S12300   5.469   2.415   9.281  0.1718 -0.0061 -0.0821
  117OSM   H14S12301   5.377   2.353   9.275 -0.8137  1.5416 -2.0583
  117OSM   H14T12302   5.561   2.357   9.303  0.8774  0.6357 -1.2620
  117OSM   C15S12303   5.482   2.485   9.149  0.3544 -0.2963  0.6931
  117OSM   H15S12304   5.579   2.537   9.139 -0.2631  0.8244  0.4270
  117OSM   H15T12305   5.397   2.556   9.144 -0.0961 -0.8980 -2.6377
  117OSM   C16S12306   5.474   2.392   9.023  0.0960  0.4569  0.0183
  117OSM   H16S12307   5.372   2.356   9.000  0.8039 -0.9167 -1.1501
  117OSM   H16T12308   5.531   2.299   9.046  0.6597  0.5901 -0.7586
  117OSM   C17S12309   5.519   2.458   8.897 -0.3138  1.2899  0.4177
  117OSM   H17S12310   5.628   2.479   8.901  0.0835 -0.5142 -0.0753
  117OSM   H17T12311   5.479   2.561   8.899 -1.0590  1.0015  1.0474
  117OSM   C18S12312   5.494   2.379   8.766 -0.1787 -0.0515 -0.2223
  117OSM   H18S12313   5.512   2.438   8.674 -2.3561  0.1921 -0.5429
  117OSM   H18T12314   5.385   2.356   8.767 -0.0108 -0.8574  0.1843
  117OSM   H18U12315   5.552   2.285   8.773  1.4497  0.9466  0.3373
  117OSM    C1F12316   5.707   2.530  10.647  0.2206 -0.7246  0.1241
  117OSM     OF12317   5.697   2.483  10.761  0.2284  0.3473 -0.2073
  117OSM    C2F12318   5.814   2.485  10.556 -0.5137  0.0913 -0.1204
  117OSM    H2F12319   5.903   2.459  10.617  0.9341  1.3748 -1.5802
  117OSM    H2G12320   5.846   2.566  10.486 -0.5077  0.8816  0.7795
  117OSM    C3F12321   5.771   2.359  10.476  0.2065  0.3119 -0.0035
  117OSM    H3F12322   5.741   2.279  10.547 -0.3657  0.4758 -0.0505
  117OSM    H3G12323   5.858   2.327  10.415  0.0059 -1.9477  0.8036
  117OSM    C4F12324   5.653   2.366  10.368  0.4289  0.1731 -0.5918
  117OSM    H4F12325   5.565   2.403  10.425  1.0691  2.9822 -1.2837
  117OSM    H4G12326   5.626   2.265  10.330  0.7995 -0.4606  0.7541
  117OSM    C5F12327   5.675   2.454  10.247 -0.9477 -0.6670 -0.3886
  117OSM    H5F12328   5.673   2.562  10.274 -1.4176 -0.7545 -0.0586
  117OSM    H5G12329   5.587   2.430  10.185 -1.5311 -2.0923  0.9356
  117OSM    C6F12330   5.805   2.421  10.164  0.0648 -0.2616 -0.4928
  117OSM    H6F12331   5.811   2.310  10.164  0.3366 -0.3458  2.8913
  117OSM    H6G12332   5.889   2.466  10.221  1.7749  0.1245 -3.1517
  117OSM    C7F12333   5.796   2.481  10.024 -0.6431  0.1894  0.3097
  117OSM    H7F12334   5.792   2.590  10.047 -1.6706 -0.1106  1.6939
  117OSM    H7G12335   5.700   2.442   9.984  0.9220 -1.4836 -2.0588
  117OSM    C8F12336   5.916   2.456   9.924  0.4217 -0.2256 -0.3350
  117OSM    H8F12337   6.017   2.468   9.969  0.5785  0.3276 -0.8171
  117OSM    H8G12338   5.908   2.528   9.840  0.4959 -0.5896 -0.6571
  117OSM    C9F12339   5.902   2.310   9.891 -0.7642 -0.7360 -0.2507
  117OSM    H9F12340   5.952   2.244   9.964 -1.2511 -0.3690  0.4265
  117OSM   C10F12341   5.827   2.262   9.795  0.7969 -0.1475  0.1259
  117OSM   H10F12342   5.820   2.155   9.770 -0.0617 -0.6970  2.4281
  117OSM   C11F12343   5.747   2.347   9.699 -0.4756  0.3778  0.2985
  117OSM   H11F12344   5.751   2.456   9.721 -0.0429  0.4535 -0.1413
  117OSM   H11G12345   5.638   2.327   9.689 -0.6321  1.2220  0.2122
  117OSM   C12F12346   5.807   2.340   9.556  0.7586 -0.2768 -0.8919
  117OSM   H12F12347   5.917   2.341   9.562  0.7772  1.1626 -1.1933
  117OSM   H12G12348   5.764   2.428   9.504 -1.8059 -1.3040 -0.6786
  117OSM   C13F12349   5.749   2.219   9.483  0.4838  0.0922 -0.6145
  117OSM   H13F12350   5.641   2.239   9.465  0.2584 -0.1548  0.3856
  117OSM   H13G12351   5.758   2.136   9.556  3.2589  2.1759  1.6175
  117OSM   C14F12352   5.836   2.176   9.368  0.0694 -0.1136  0.4490
  117OSM   H14F12353   5.942   2.168   9.401 -0.6356 -0.3909  2.8290
  117OSM   H14G12354   5.834   2.263   9.299 -3.1358 -0.5946 -0.1943
  117OSM   C15F12355   5.782   2.050   9.290  0.2203  0.1202 -0.2686
  117OSM   H15F12356   5.671   2.053   9.288  0.2503  1.9451 -1.5608
  117OSM   H15G12357   5.812   1.971   9.363  0.6776  0.1118 -0.4657
  117OSM   C16F12358   5.841   2.030   9.151 -0.0942  0.5067 -0.4156
  117OSM   H16F12359   5.834   1.924   9.117 -3.3970  0.1351  1.0573
  117OSM   H16G12360   5.947   2.063   9.144  0.3690 -0.3622  1.7193
  117OSM   C17F12361   5.762   2.111   9.041  0.2066 -0.1613  0.1243
  117OSM   H17F12362   5.795   2.217   9.050 -0.7062  0.4648 -2.6507
  117OSM   H17G12363   5.651   2.109   9.035  0.2790 -2.2066 -1.7181
  117OSM   C18F12364   5.818   2.071   8.904  0.2941  0.3494  0.4456
  117OSM   H18F12365   5.928   2.055   8.910  0.3936  1.3299  1.6982
  117OSM   H18G12366   5.802   2.153   8.831  0.1020 -1.3923 -1.5570
  117OSM   H18H12367   5.768   1.980   8.866 -0.8018  1.8984 -2.0460
  118OSM      N12368   4.810   3.937  11.197 -0.0922  0.3461  1.0266
  118OSM    C1512369   4.818   3.854  11.325 -0.1777  0.2765  0.5431
  118OSM   H15A12370   4.907   3.792  11.326  0.1344  0.6553 -0.9649
  118OSM   H15B12371   4.725   3.806  11.348 -1.5492  1.1811 -2.5343
  118OSM   H15C12372   4.833   3.914  11.413  1.3027 -1.3881  1.5006
  118OSM    C1412373   4.923   4.037  11.200  0.4300  0.3633 -0.8934
  118OSM   H14A12374   5.015   3.985  11.221  0.9536  1.8161  0.6489
  118OSM   H14B12375   4.911   4.107  11.282 -0.9576  0.1501 -0.8876
  118OSM   H14C12376   4.928   4.092  11.107  1.6258  2.7629  0.4673
  118OSM    C1312377   4.839   3.844  11.076  0.1297 -0.0997  1.1640
  118OSM   H13A12378   4.930   3.789  11.091  0.5332  0.5397  1.0929
  118OSM   H13B12379   4.849   3.902  10.985  1.0601 -2.5941 -0.4256
  118OSM   H13C12380   4.759   3.772  11.066  0.1250  0.0451  0.0132
  118OSM    C1212381   4.687   4.010  11.175  0.2084 -0.8497 -0.1773
  118OSM   H12A12382   4.608   3.941  11.150  0.0144 -0.4489 -0.6763
  118OSM   H12B12383   4.695   4.094  11.108 -0.5516  1.1655  2.1062
  118OSM    C1112384   4.637   4.088  11.298  0.3620  0.0724  0.5491
  118OSM   H11A12385   4.712   4.156  11.344 -0.9213  2.3682 -0.5753
  118OSM   H11B12386   4.616   4.022  11.385  1.5908 -0.8217  0.2023
  118OSM      P12387   4.515   4.299  11.170  0.1119  0.0419 -0.2859
  118OSM    O1312388   4.374   4.326  11.140 -0.1257  0.1573 -0.0478
  118OSM    O1412389   4.592   4.410  11.235  0.5721  0.1356 -0.2409
  118OSM    O1112390   4.601   4.253  11.042  0.1263  0.4924  0.3157
  118OSM    O1212391   4.515   4.165  11.262  0.0923  0.4635 -0.4544
  118OSM    C1S12392   4.520   4.200  10.933  0.3112 -0.4037  0.1800
  118OSM    H1S12393   4.431   4.257  10.897  0.3518 -0.7944 -0.5667
  118OSM    H1T12394   4.479   4.099  10.954  1.2821 -0.9177 -0.3204
  118OSM     NF12395   4.497   4.130  10.695  0.1267  0.0552 -0.7130
  118OSM    HNF12396   4.510   4.033  10.674  1.3370  0.3758 -1.5317
  118OSM    C2S12397   4.591   4.188  10.796  0.2084 -0.1065  0.8298
  118OSM    H2S12398   4.621   4.291  10.769  0.0286  0.5587  3.0087
  118OSM    C3S12399   4.724   4.101  10.806  0.9985  0.2338  0.6419
  118OSM    H3S12400   4.699   4.003  10.853 -1.2563  0.9273  1.0026
  118OSM     O312401   4.830   4.148  10.894  0.4239 -0.0919  0.3742
  118OSM    HO312402   4.791   4.225  10.935  0.8243  0.3387 -0.0351
  118OSM    C4S12403   4.777   4.088  10.663  0.7774  1.1523  0.3115
  118OSM    H4S12404   4.823   4.177  10.618 -1.3346  1.4294 -1.4598
  118OSM    C5S12405   4.767   3.977  10.583 -0.2649  0.0220 -0.3170
  118OSM    H5S12406   4.717   3.889  10.626  0.8570  0.2607  1.5527
  118OSM    C6S12407   4.823   3.970  10.439 -0.1860 -0.2841 -0.7238
  118OSM    H6S12408   4.926   3.931  10.445  0.1043  0.6931  1.5110
  118OSM    H6T12409   4.830   4.074  10.400  3.8673  0.0206  0.4149
  118OSM    C7S12410   4.735   3.882  10.342 -0.6509  0.1479  1.1108
  118OSM    H7S12411   4.626   3.903  10.349 -0.8538  0.2939 -1.6077
  118OSM    H7T12412   4.744   3.777  10.378 -1.5593  0.1258  1.2870
  118OSM    C8S12413   4.788   3.883  10.203  0.3220 -0.1780  0.1194
  118OSM    H8S12414   4.897   3.860  10.206  0.5180  0.4929 -0.9778
  118OSM    H8T12415   4.771   3.983  10.156  0.2723 -0.1424  0.2136
  118OSM    C9S12416   4.716   3.780  10.110 -0.3234 -0.0507  0.5415
  118OSM    H9S12417   4.606   3.794  10.105 -0.3050 -0.1367 -0.2149
  118OSM    H9T12418   4.737   3.683  10.160 -3.1609 -1.1204 -0.1372
  118OSM   C10S12419   4.778   3.756   9.970  0.1721 -1.1249  0.0827
  118OSM   H10S12420   4.732   3.668   9.921 -2.4636 -0.7005  1.6087
  118OSM   H10T12421   4.889   3.750   9.965  0.2275  0.1593 -0.9216
  118OSM   C11S12422   4.754   3.881   9.880  0.2627 -0.2586  0.7507
  118OSM   H11S12423   4.850   3.933   9.855 -0.6532  0.7366 -0.8839
  118OSM   H11T12424   4.695   3.951   9.944  1.1191  2.7148 -1.4777
  118OSM   C12S12425   4.665   3.858   9.761 -0.3806 -0.3535  0.0095
  118OSM   H12S12426   4.639   3.958   9.721  0.0772  1.3161  3.4879
  118OSM   H12T12427   4.578   3.802   9.801  1.0566 -3.3878 -0.7542
  118OSM   C13S12428   4.742   3.777   9.648 -0.1986  0.1054  0.3927
  118OSM   H13S12429   4.753   3.674   9.686  2.3027 -0.2475 -1.0860
  118OSM   H13T12430   4.846   3.813   9.636  0.3066 -1.0039  1.2929
  118OSM   C14S12431   4.668   3.780   9.516 -0.4488  0.2964 -0.8278
  118OSM   H14S12432   4.677   3.878   9.464  1.5505  0.3593 -0.4213
  118OSM   H14T12433   4.559   3.769   9.536 -0.1991  0.1644  0.5373
  118OSM   C15S12434   4.712   3.675   9.418  0.1889 -0.3751 -0.3721
  118OSM   H15S12435   4.671   3.581   9.460  2.1799 -1.2944 -0.3608
  118OSM   H15T12436   4.822   3.659   9.409  0.0410 -0.7211 -1.9694
  118OSM   C16S12437   4.645   3.688   9.284  0.3305 -0.7239  0.2491
  118OSM   H16S12438   4.657   3.781   9.223 -0.9414 -0.4285  0.4271
  118OSM   H16T12439   4.535   3.695   9.296  0.3581 -0.5129  0.3903
  118OSM   C17S12440   4.667   3.567   9.195 -1.0124  0.2266  0.5608
  118OSM   H17S12441   4.614   3.481   9.241 -0.2354 -0.0515  0.9491
  118OSM   H17T12442   4.773   3.535   9.195 -0.9884  0.1031 -1.7941
  118OSM   C18S12443   4.622   3.589   9.050  0.2195 -0.2361 -0.1224
  118OSM   H18S12444   4.675   3.671   8.997 -0.6687 -0.3870 -1.2741
  118OSM   H18T12445   4.520   3.630   9.067 -0.6519 -1.8800 -1.1489
  118OSM   H18U12446   4.615   3.495   8.992 -0.9358  1.3961 -2.7918
  118OSM    C1F12447   4.383   4.193  10.652  0.3254  0.3501  0.1800
  118OSM     OF12448   4.378   4.315  10.641  0.6682  0.1495  0.2314
  118OSM    C2F12449   4.263   4.107  10.607 -1.1407 -0.4105 -0.6860
  118OSM    H2F12450   4.187   4.178  10.568  0.8201  4.3169  3.2004
  118OSM    H2G12451   4.209   4.066  10.695 -2.6210 -0.5738 -1.6206
  118OSM    C3F12452   4.312   3.999  10.526  0.6560 -0.5867  0.0895
  118OSM    H3F12453   4.222   3.938  10.503  0.3726 -0.1663  0.0732
  118OSM    H3G12454   4.385   3.935  10.580 -0.3765 -2.6370 -0.8382
  118OSM    C4F12455   4.363   4.026  10.384  0.3056 -0.4255  0.3368
  118OSM    H4F12456   4.413   3.935  10.345 -0.2283 -0.4734 -0.2588
  118OSM    H4G12457   4.442   4.102  10.405 -0.1058 -0.1477  0.8842
  118OSM    C5F12458   4.265   4.077  10.277 -0.1717 -0.1438  0.0807
  118OSM    H5F12459   4.240   4.181  10.306  0.9516  0.0090  0.5376
  118OSM    H5G12460   4.170   4.020  10.275  0.2809 -0.9439  0.7248
  118OSM    C6F12461   4.327   4.080  10.126  0.0440 -0.2466  0.0298
  118OSM    H6F12462   4.378   3.984  10.102 -0.0231 -1.1925  3.2908
  118OSM    H6G12463   4.391   4.170  10.130  0.2534 -0.4431  1.2588
  118OSM    C7F12464   4.219   4.103  10.014 -0.6368 -0.5607  0.3862
  118OSM    H7F12465   4.156   4.191  10.040  0.0453 -0.6098  2.4478
  118OSM    H7G12466   4.157   4.013   9.993 -1.5045  0.4252 -1.4792
  118OSM    C8F12467   4.281   4.144   9.880 -0.5279  0.6632 -0.4549
  118OSM    H8F12468   4.369   4.210   9.897  1.0906 -1.2899 -0.8226
  118OSM    H8G12469   4.215   4.217   9.829  0.8977  2.8887  0.7193
  118OSM    C9F12470   4.320   4.037   9.791  0.4302  0.8425  0.1346
  118OSM    H9F12471   4.410   3.985   9.827 -1.0488 -1.4221  0.6857
  118OSM   C10F12472   4.275   3.992   9.674  0.3765  0.0151  0.3466
  118OSM   H10F12473   4.336   3.916   9.623 -1.2080 -0.9892 -0.1219
  118OSM   C11F12474   4.159   4.048   9.592 -0.0673 -0.1434  0.2014
  118OSM   H11F12475   4.097   4.106   9.663 -1.9634 -0.6819 -0.9502
  118OSM   H11G12476   4.090   3.967   9.562  1.8077 -1.0580 -1.9660
  118OSM   C12F12477   4.195   4.125   9.466  0.1247 -0.8384 -0.6184
  118OSM   H12F12478   4.269   4.204   9.491 -1.4884  0.7797 -0.7225
  118OSM   H12G12479   4.105   4.184   9.439  1.1375  0.8824 -0.3865
  118OSM   C13F12480   4.225   4.041   9.339 -0.0668  0.3642 -0.1971
  118OSM   H13F12481   4.298   3.961   9.365 -0.6872 -0.0543  0.2915
  118OSM   H13G12482   4.277   4.106   9.266  2.4855 -0.4448  0.7577
  118OSM   C14F12483   4.103   3.968   9.285 -0.1726 -0.6130 -0.0596
  118OSM   H14F12484   4.011   4.029   9.279 -0.5105 -1.1562 -0.4367
  118OSM   H14G12485   4.077   3.885   9.354 -0.6221  0.0083  0.5182
  118OSM   C15F12486   4.123   3.917   9.142 -0.3038  0.8174 -0.1959
  118OSM   H15F12487   4.231   3.892   9.146 -0.5320 -0.3694 -1.2197
  118OSM   H15G12488   4.113   3.986   9.056  2.2825  1.2223 -0.2521
  118OSM   C16F12489   4.042   3.787   9.110  0.7468 -0.1859 -0.1999
  118OSM   H16F12490   3.936   3.820   9.106  0.8977  0.2989 -0.1851
  118OSM   H16G12491   4.061   3.713   9.191 -0.9380  0.7385  1.1033
  118OSM   C17F12492   4.059   3.727   8.965 -0.5687  0.4358 -0.2999
  118OSM   H17F12493   4.163   3.695   8.941 -0.5028  0.5094 -0.1173
  118OSM   H17G12494   4.026   3.808   8.897  1.8029  1.1779 -0.6630
  118OSM   C18F12495   3.995   3.596   8.926  0.1141  0.3510 -0.5171
  118OSM   H18F12496   4.028   3.514   8.992 -0.0987  0.5856 -0.1159
  118OSM   H18G12497   4.017   3.571   8.820  1.0720  0.2730 -0.3061
  118OSM   H18H12498   3.888   3.621   8.944  0.7340  1.2525  2.4020
  119OSM      N12499   5.940   2.651  11.213 -0.0342 -0.5416  0.0759
  119OSM    C1512500   6.081   2.691  11.191 -0.6490 -0.5825  0.4544
  119OSM   H15A12501   6.106   2.786  11.236  1.0947 -0.0160 -1.5596
  119OSM   H15B12502   6.108   2.714  11.089 -0.6860  2.3193  0.9963
  119OSM   H15C12503   6.153   2.624  11.237 -0.2936 -0.6829 -0.2464
  119OSM    C1412504   5.910   2.513  11.174 -0.0215 -0.0173 -0.1427
  119OSM   H14A12505   5.942   2.485  11.074 -0.3375 -1.3093  0.1084
  119OSM   H14B12506   5.803   2.501  11.182  0.0820 -0.0977  1.3612
  119OSM   H14C12507   5.939   2.440  11.248  1.6103 -0.2043 -0.9166
  119OSM    C1312508   5.896   2.668  11.356 -0.3605  0.5029 -0.5186
  119OSM   H13A12509   5.795   2.628  11.355  0.4142 -1.6437 -2.8823
  119OSM   H13B12510   5.883   2.771  11.386 -0.2823  0.2055  0.5710
  119OSM   H13C12511   5.963   2.606  11.413  0.1805  1.0728 -0.5267
  119OSM    C1212512   5.854   2.743  11.122  0.5938 -0.3347  0.2752
  119OSM   H12A12513   5.872   2.845  11.151  1.0456 -0.1080 -0.7649
  119OSM   H12B12514   5.751   2.728  11.150  0.1064 -0.3333 -1.4263
  119OSM    C1112515   5.858   2.741  10.964  0.4246  0.6886 -0.3073
  119OSM   H11A12516   5.789   2.817  10.921  0.9022  0.4055 -1.6414
  119OSM   H11B12517   5.828   2.640  10.928 -0.2943  0.2686  1.3794
  119OSM      P12518   6.044   2.899  10.882  0.0432 -0.3569  0.0687
  119OSM    O1312519   6.025   2.988  10.997  0.5632 -0.6935  0.2378
  119OSM    O1412520   6.178   2.887  10.821  0.1302  0.3374 -0.1432
  119OSM    O1112521   5.938   2.947  10.769  0.2926  0.3560 -0.6696
  119OSM    O1212522   5.991   2.753  10.910  0.1040 -0.1186 -0.5929
  119OSM    C1S12523   5.966   2.914  10.635 -0.2407 -0.1687 -0.2743
  119OSM    H1S12524   5.927   2.812  10.616 -0.4274 -0.4374  1.4275
  119OSM    H1T12525   6.074   2.910  10.610  0.2357  0.9670  1.4156
  119OSM     NF12526   5.922   2.976  10.401 -0.6252 -0.3997 -0.2162
  119OSM    HNF12527   5.984   3.022  10.338 -2.6580  2.5035 -0.2970
  119OSM    C2S12528   5.894   3.019  10.541 -0.4589 -0.9448 -0.0897
  119OSM    H2S12529   5.786   3.013  10.565 -0.4882  1.0484  0.4480
  119OSM    C3S12530   5.936   3.167  10.580 -0.1235  0.9203  0.3283
  119OSM    H3S12531   6.039   3.193  10.548 -0.1305 -1.1662 -1.6106
  119OSM     O312532   5.920   3.198  10.715 -0.4207 -0.3323  0.2206
  119OSM    HO312533   5.923   3.108  10.751 -1.8519 -0.4485  0.0732
  119OSM    C4S12534   5.845   3.263  10.511 -1.0362  0.1263 -0.6037
  119OSM    H4S12535   5.745   3.245  10.553 -0.6672 -0.9948 -0.1880
  119OSM    C5S12536   5.864   3.362  10.421 -0.6895  0.5869 -0.0809
  119OSM    H5S12537   5.969   3.375  10.389 -0.0649 -1.0125  1.1291
  119OSM    C6S12538   5.759   3.439  10.359  0.2562 -0.1330 -0.0838
  119OSM    H6S12539   5.787   3.545  10.338 -0.3922  0.3947  1.5377
  119OSM    H6T12540   5.670   3.447  10.425  0.5806  1.8068  0.1798
  119OSM    C7S12541   5.720   3.371  10.226  0.3717  0.3133  0.2534
  119OSM    H7S12542   5.625   3.417  10.191  0.5363  0.8963  0.5583
  119OSM    H7T12543   5.700   3.262  10.238 -0.6577  0.2080 -2.0079
  119OSM    C8S12544   5.824   3.394  10.115  0.6395  0.0944  0.0171
  119OSM    H8S12545   5.915   3.343  10.154  1.0081 -0.2152 -1.2259
  119OSM    H8T12546   5.835   3.502  10.094  0.7801  0.2762  0.9846
  119OSM    C9S12547   5.778   3.333   9.983  0.0523  0.1596 -0.6751
  119OSM    H9S12548   5.693   3.383   9.932 -1.3741 -1.6554 -0.1773
  119OSM    H9T12549   5.755   3.226   9.999 -2.5437  0.7212 -0.1660
  119OSM   C10S12550   5.897   3.328   9.892 -0.0516 -0.5371  0.4152
  119OSM   H10S12551   5.989   3.290   9.942  1.3003 -1.6487 -2.6200
  119OSM   H10T12552   5.915   3.432   9.859 -2.5461  0.0112  0.6260
  119OSM   C11S12553   5.885   3.232   9.769  0.0589  0.6505 -0.3427
  119OSM   H11S12554   5.788   3.269   9.728 -1.4625 -2.0372  0.5697
  119OSM   H11T12555   5.848   3.129   9.788 -0.3677  0.7058 -0.8606
  119OSM   C12S12556   5.991   3.250   9.669 -1.2124  0.5964  0.1081
  119OSM   H12S12557   6.078   3.216   9.729 -0.7317  1.4605 -0.0953
  119OSM   H12T12558   6.012   3.355   9.640  3.2557 -0.1577 -0.0531
  119OSM   C13S12559   5.970   3.167   9.536 -0.7738 -0.0033  0.2362
  119OSM   H13S12560   5.903   3.221   9.465  1.6113  0.9386 -1.4385
  119OSM   H13T12561   5.928   3.072   9.573  0.2717  0.1367  1.8722
  119OSM   C14S12562   6.099   3.143   9.451 -0.3519 -0.8288 -0.7811
  119OSM   H14S12563   6.180   3.098   9.512 -0.9528 -0.7722  0.0866
  119OSM   H14T12564   6.138   3.240   9.414 -1.6936  0.3691  0.7596
  119OSM   C15S12565   6.073   3.049   9.329  0.0293 -0.2014  0.2776
  119OSM   H15S12566   5.990   3.098   9.273 -3.3650 -1.9113  3.4010
  119OSM   H15T12567   6.016   2.959   9.360 -0.4400 -0.5326 -1.4161
  119OSM   C16S12568   6.191   3.005   9.239  0.0338  0.2277 -0.1702
  119OSM   H16S12569   6.151   2.942   9.156  0.1063  0.1806 -0.1694
  119OSM   H16T12570   6.267   2.941   9.287  1.3376  1.0252 -1.1089
  119OSM   C17S12571   6.277   3.121   9.178  0.7175  0.4417 -0.2417
  119OSM   H17S12572   6.336   3.057   9.108  0.3168  1.3067 -1.4162
  119OSM   H17T12573   6.343   3.172   9.251 -0.1090  0.0200  0.8174
  119OSM   C18S12574   6.204   3.225   9.096  0.3340  0.2853 -0.2287
  119OSM   H18S12575   6.129   3.176   9.031 -1.2928  1.8268  0.3993
  119OSM   H18T12576   6.275   3.287   9.036  0.0935  0.8578  0.0669
  119OSM   H18U12577   6.141   3.282   9.168 -1.4770 -1.7613 -0.1199
  119OSM    C1F12578   5.864   2.871  10.358  0.9019 -0.2082  0.3974
  119OSM     OF12579   5.754   2.829  10.386 -0.1096 -0.0433 -0.1431
  119OSM    C2F12580   5.956   2.794  10.261  0.5759  0.3062 -0.5853
  119OSM    H2F12581   5.933   2.686  10.270 -0.1232  0.5971  1.7615
  119OSM    H2G12582   6.061   2.813  10.292 -0.0433  2.1518  0.5862
  119OSM    C3F12583   5.930   2.843  10.117  0.2925 -0.6954 -0.6094
  119OSM    H3F12584   5.921   2.953  10.114  0.0206 -0.6631  0.7773
  119OSM    H3G12585   5.832   2.798  10.090 -0.0679  0.0041 -0.4887
  119OSM    C4F12586   6.035   2.777  10.023  0.7305  0.2164 -0.3773
  119OSM    H4F12587   6.037   2.667  10.041  1.7670  0.4934  1.4010
  119OSM    H4G12588   6.134   2.818  10.051  0.6546  1.0422 -1.2704
  119OSM    C5F12589   6.027   2.806   9.872  0.2809 -0.1624  0.2545
  119OSM    H5F12590   6.022   2.916   9.860 -0.7573 -0.2663 -0.3965
  119OSM    H5G12591   5.933   2.767   9.828 -1.1166  1.3410  1.7697
  119OSM    C6F12592   6.143   2.747   9.791 -0.0309 -0.2682  0.2040
  119OSM    H6F12593   6.128   2.637   9.794  2.0974 -0.6039  3.8000
  119OSM    H6G12594   6.240   2.765   9.843  0.3565  0.1498 -0.6498
  119OSM    C7F12595   6.155   2.801   9.647 -1.0449 -0.5552 -0.5569
  119OSM    H7F12596   6.260   2.834   9.634 -0.9540  0.0779  1.4116
  119OSM    H7G12597   6.082   2.884   9.639  0.4735  0.7172 -1.7143
  119OSM    C8F12598   6.138   2.689   9.538 -0.0193  0.6300  1.1523
  119OSM    H8F12599   6.189   2.593   9.557  0.8754  0.3875 -1.9167
  119OSM    H8G12600   6.171   2.744   9.447 -0.2105  1.1269  1.3800
  119OSM    C9F12601   5.990   2.654   9.515 -0.4950  0.2431 -0.6744
  119OSM    H9F12602   5.932   2.671   9.607 -0.9083 -0.4062 -0.8074
  119OSM   C10F12603   5.925   2.631   9.398  1.0215  0.2510  0.6307
  119OSM   H10F12604   5.821   2.594   9.394  0.9167  0.6184 -0.1985
  119OSM   C11F12605   5.998   2.621   9.264  0.4317  0.1585  0.3817
  119OSM   H11F12606   6.105   2.593   9.272  0.8127  0.9424 -1.4276
  119OSM   H11G12607   5.982   2.712   9.202  1.6473 -0.0057 -0.2012
  119OSM   C12F12608   5.918   2.512   9.187  0.5176 -0.3390 -0.9913
  119OSM   H12F12609   5.807   2.520   9.197  0.6112 -0.9037  0.7936
  119OSM   H12G12610   5.946   2.412   9.225  1.3166 -0.3787 -1.6500
  119OSM   C13F12611   5.957   2.512   9.034  0.0624  0.2869 -1.3180
  119OSM   H13F12612   5.913   2.609   9.000  0.4071  1.0636  0.3192
  119OSM   H13G12613   5.892   2.436   8.985 -1.7114 -0.6419  2.1366
  119OSM   C14F12614   6.105   2.504   9.009 -0.0070  0.6611 -0.4292
  119OSM   H14F12615   6.129   2.399   9.034 -1.6118  0.6460  1.1850
  119OSM   H14G12616   6.160   2.575   9.074  3.0006 -1.2303 -0.7017
  119OSM   C15F12617   6.149   2.523   8.864  0.1287  0.5113  1.0588
  119OSM   H15F12618   6.141   2.629   8.833 -0.6917  0.3561  0.7381
  119OSM   H15G12619   6.075   2.479   8.794  1.5206  0.8454 -0.6929
  119OSM   C16F12620   6.286   2.468   8.833  0.0686  0.1760  0.2317
  119OSM   H16F12621   6.272   2.362   8.803  0.5394  0.3718 -0.7230
  119OSM   H16G12622   6.352   2.491   8.920 -0.2344  0.8619  0.2931
  119OSM   C17F12623   6.363   2.524   8.709  0.3359  0.7790 -0.4064
  119OSM   H17F12624   6.391   2.631   8.723  1.2126  0.6844 -1.3341
  119OSM   H17G12625   6.302   2.512   8.617 -0.5570 -0.6795  0.3385
  119OSM   C18F12626   6.493   2.442   8.682  0.6589 -0.5670 -0.0665
  119OSM   H18F12627   6.549   2.495   8.602  2.2086 -1.1734  0.5797
  119OSM   H18G12628   6.452   2.350   8.635 -1.6464  0.9188 -1.1542
  119OSM   H18H12629   6.556   2.424   8.773 -0.2305 -0.8404  0.5091
  120OSM      N12630   6.119   5.818  11.171  0.2524 -1.0697 -0.4045
  120OSM    C1512631   6.128   5.679  11.236 -0.2453  0.0236 -0.3035
  120OSM   H15A12632   6.126   5.694  11.343  0.8539  1.4231 -0.4453
  120OSM   H15B12633   6.211   5.620  11.200 -0.7342  0.7179 -2.7985
  120OSM   H15C12634   6.049   5.608  11.219  0.6032 -0.9711 -0.1442
  120OSM    C1412635   5.978   5.866  11.187 -0.0744 -0.7116 -0.7100
  120OSM   H14A12636   5.915   5.798  11.131  1.0572 -0.2018 -2.7334
  120OSM   H14B12637   5.964   5.961  11.137  1.2856 -0.0775  0.0814
  120OSM   H14C12638   5.949   5.871  11.291 -1.3561 -2.4380 -0.9161
  120OSM    C1312639   6.213   5.913  11.247 -0.2678 -0.2267  0.5410
  120OSM   H13A12640   6.207   6.016  11.217  0.8167 -0.3861 -0.2569
  120OSM   H13B12641   6.309   5.875  11.216 -1.1079 -2.2755  0.2794
  120OSM   H13C12642   6.205   5.910  11.355 -1.7102  1.6351  0.5455
  120OSM    C1212643   6.164   5.808  11.026 -0.0580 -1.2917  0.1716
  120OSM   H12A12644   6.106   5.738  10.968  0.4429 -1.5523 -0.0185
  120OSM   H12B12645   6.263   5.766  11.028  0.1825 -0.6937  1.2978
  120OSM    C1112646   6.186   5.941  10.945  0.5091  0.7271 -0.1937
  120OSM   H11A12647   6.215   5.901  10.846  1.2176 -3.1092  1.4047
  120OSM   H11B12648   6.264   6.006  10.990  0.2694  0.9274 -0.0662
  120OSM      P12649   5.935   5.952  10.852  0.4600 -0.5832 -0.0936
  120OSM    O1312650   5.912   5.802  10.867 -0.0600  0.2301 -0.1170
  120OSM    O1412651   5.825   6.044  10.892 -0.2046 -0.2838 -0.1562
  120OSM    O1112652   5.971   5.986  10.704  0.5557 -0.1087  0.0026
  120OSM    O1212653   6.063   6.004  10.927  0.0034  0.0684 -0.6127
  120OSM    C1S12654   5.873   5.945  10.611 -0.0806  0.2909  0.6336
  120OSM    H1S12655   5.787   6.015  10.619 -1.1704 -0.9343  0.0592
  120OSM    H1T12656   5.839   5.840  10.619 -0.1082  0.3905  1.8995
  120OSM     NF12657   5.808   5.956  10.370 -0.2559 -0.2877 -0.7878
  120OSM    HNF12658   5.797   5.876  10.312 -1.4198 -0.8463  0.1578
  120OSM    C2S12659   5.919   5.950  10.465  0.0017 -0.6199  0.1526
  120OSM    H2S12660   5.974   6.047  10.460  0.2938 -0.6555  2.0843
  120OSM    C3S12661   6.010   5.830  10.444  0.5956  0.2481 -0.0570
  120OSM    H3S12662   5.951   5.737  10.454  2.1026 -0.9708 -1.8425
  120OSM     O312663   6.102   5.807  10.551 -0.3418  0.1325 -0.3585
  120OSM    HO312664   6.084   5.862  10.627  0.4137 -0.6807  0.4251
  120OSM    C4S12665   6.086   5.828  10.314 -0.5711 -0.2035 -0.0149
  120OSM    H4S12666   6.033   5.775  10.234  2.0101 -3.7825  0.3830
  120OSM    C5S12667   6.203   5.887  10.285  0.3642  0.2947 -0.8246
  120OSM    H5S12668   6.257   5.940  10.365  0.7302  1.7861 -2.0347
  120OSM    C6S12669   6.280   5.889  10.159 -0.1092 -0.1666 -0.1642
  120OSM    H6S12670   6.362   5.816  10.175 -0.4110 -0.6494 -0.7780
  120OSM    H6T12671   6.327   5.988  10.140  1.4112 -0.3499  2.2141
  120OSM    C7S12672   6.202   5.846  10.034 -0.5739 -0.4127  0.2949
  120OSM    H7S12673   6.107   5.905  10.030 -0.2362  0.0703 -1.4679
  120OSM    H7T12674   6.182   5.737  10.031  1.3681 -0.7833 -1.0435
  120OSM    C8S12675   6.286   5.901   9.911  0.6309 -0.0596  0.2246
  120OSM    H8S12676   6.390   5.862   9.911  0.2120 -1.4465 -2.9741
  120OSM    H8T12677   6.290   6.012   9.919 -2.0783  0.0750  0.3983
  120OSM    C9S12678   6.234   5.878   9.770  0.3408  1.1794 -0.1008
  120OSM    H9S12679   6.302   5.929   9.698  0.8043 -0.0285 -0.5419
  120OSM    H9T12680   6.132   5.922   9.771 -0.7808 -1.2387  0.3904
  120OSM   C10S12681   6.218   5.734   9.730 -0.2799 -0.0905  0.9240
  120OSM   H10S12682   6.167   5.668   9.803 -0.5636  0.8891  1.6286
  120OSM   H10T12683   6.321   5.691   9.732  1.1536  3.1095  1.3560
  120OSM   C11S12684   6.164   5.710   9.588  0.4581  0.7235 -0.4714
  120OSM   H11S12685   6.183   5.791   9.515 -0.1296  1.6174  0.3540
  120OSM   H11T12686   6.054   5.716   9.587  0.3798 -0.4039 -1.0673
  120OSM   C12S12687   6.217   5.578   9.526 -1.1048  0.5000 -0.4499
  120OSM   H12S12688   6.205   5.492   9.596 -2.7157  1.3838  0.4297
  120OSM   H12T12689   6.326   5.586   9.508 -1.4389 -0.1728 -3.1506
  120OSM   C13S12690   6.139   5.549   9.394 -0.9378 -0.0638 -0.5236
  120OSM   H13S12691   6.092   5.641   9.355 -1.3479  0.3624  0.9044
  120OSM   H13T12692   6.058   5.475   9.407 -2.3264  1.6898  1.5029
  120OSM   C14S12693   6.237   5.516   9.282  0.0901 -0.4714 -0.4758
  120OSM   H14S12694   6.286   5.417   9.298  2.7443  0.8583  0.2675
  120OSM   H14T12695   6.309   5.601   9.275 -1.1947  0.5727 -1.4155
  120OSM   C15S12696   6.173   5.504   9.140  0.2293 -0.5259  0.4534
  120OSM   H15S12697   6.242   5.514   9.054 -0.5238 -2.2503 -0.3959
  120OSM   H15T12698   6.099   5.588   9.134  0.7392 -0.0607  0.6312
  120OSM   C16S12699   6.075   5.379   9.114 -0.1698  0.2264  0.4918
  120OSM   H16S12700   5.982   5.396   9.172 -0.5209 -0.9134  0.2993
  120OSM   H16T12701   6.123   5.282   9.140 -0.8757 -0.6920 -1.4586
  120OSM   C17S12702   6.052   5.386   8.956 -0.0023  0.6020  0.0909
  120OSM   H17S12703   6.142   5.338   8.912 -0.6825  0.9846 -1.8125
  120OSM   H17T12704   6.058   5.488   8.912 -2.5424  0.2509 -1.3121
  120OSM   C18S12705   5.927   5.314   8.907  0.0437 -0.3106  0.2223
  120OSM   H18S12706   5.925   5.319   8.796 -0.7915  0.2798  0.2555
  120OSM   H18T12707   5.841   5.363   8.956  0.9707  3.7103 -1.7619
  120OSM   H18U12708   5.923   5.206   8.934 -1.8208 -0.1348  0.7962
  120OSM    C1F12709   5.734   6.060  10.357  0.3614 -0.3538  0.2176
  120OSM     OF12710   5.757   6.158  10.426 -0.8936  0.3419  0.3581
  120OSM    C2F12711   5.629   6.056  10.250 -0.1272 -0.0514  0.3716
  120OSM    H2F12712   5.561   5.968  10.247 -0.2709  0.0832 -0.6001
  120OSM    H2G12713   5.668   6.061  10.146 -3.1325  1.5599 -0.8019
  120OSM    C3F12714   5.539   6.188  10.265  0.6500 -1.2735 -0.2738
  120OSM    H3F12715   5.600   6.278  10.287 -2.2837 -0.0153  3.8984
  120OSM    H3G12716   5.473   6.170  10.352 -3.1627  2.8856 -1.9193
  120OSM    C4F12717   5.439   6.217  10.153 -0.0247  0.0361  0.3232
  120OSM    H4F12718   5.382   6.309  10.181 -2.3593 -1.8696  2.2167
  120OSM    H4G12719   5.369   6.131  10.158  3.4561 -3.2943 -2.3752
  120OSM    C5F12720   5.502   6.225  10.011  0.0437  0.4376 -0.2843
  120OSM    H5F12721   5.581   6.148   9.996 -1.0594 -0.5959 -0.9682
  120OSM    H5G12722   5.554   6.322  10.006 -0.5823  0.8081  0.2555
  120OSM    C6F12723   5.411   6.220   9.882  0.2375 -0.4305  0.4733
  120OSM    H6F12724   5.344   6.308   9.890  0.3933 -0.2187 -0.4648
  120OSM    H6G12725   5.353   6.126   9.890  0.9983 -0.7928  2.1959
  120OSM    C7F12726   5.492   6.229   9.754 -0.2341  0.0543  0.9223
  120OSM    H7F12727   5.564   6.146   9.732  4.5350  4.3035 -1.6552
  120OSM    H7G12728   5.542   6.328   9.752 -0.8299  0.3559  0.8951
  120OSM    C8F12729   5.420   6.228   9.616  0.3630 -0.5462  0.3772
  120OSM    H8F12730   5.393   6.123   9.593  0.0763 -0.0668 -1.6785
  120OSM    H8G12731   5.496   6.263   9.544  0.8145 -0.2942  0.9715
  120OSM    C9F12732   5.310   6.333   9.609 -0.4021  0.1182 -0.0213
  120OSM    H9F12733   5.316   6.414   9.683  1.0424 -1.2558  1.4363
  120OSM   C10F12734   5.211   6.345   9.519  0.5944  0.0575 -0.0377
  120OSM   H10F12735   5.135   6.424   9.532  1.7922  1.1732  0.4166
  120OSM   C11F12736   5.193   6.250   9.414  0.5933 -0.2433  0.3219
  120OSM   H11F12737   5.091   6.213   9.437  0.3807  0.4934  0.5776
  120OSM   H11G12738   5.259   6.160   9.413  1.9237  0.6556 -2.8150
  120OSM   C12F12739   5.204   6.305   9.267  0.2753  0.2797 -0.0107
  120OSM   H12F12740   5.255   6.223   9.212 -0.1932 -0.4959  0.6943
  120OSM   H12G12741   5.259   6.401   9.258  0.9748 -0.2192 -1.3271
  120OSM   C13F12742   5.069   6.329   9.203 -0.8347  0.0349 -0.0218
  120OSM   H13F12743   5.009   6.395   9.269 -0.3291 -0.4626  0.9395
  120OSM   H13G12744   5.012   6.233   9.195  0.4602 -0.7374 -0.2122
  120OSM   C14F12745   5.091   6.397   9.070 -0.1904  0.6255  0.4337
  120OSM   H14F12746   5.148   6.332   9.000 -0.2023  0.7484  0.3091
  120OSM   H14G12747   5.165   6.479   9.084 -0.0725  0.6179 -0.1218
  120OSM   C15F12748   4.963   6.447   9.001  0.5779 -0.2424  0.5475
  120OSM   H15F12749   4.928   6.533   9.063  0.2848  0.8423 -1.0575
  120OSM   H15G12750   4.893   6.362   8.994  0.2358  0.0992 -0.3447
  120OSM   C16F12751   4.996   6.485   8.854  0.4633 -0.5657 -0.6652
  120OSM   H16F12752   4.899   6.512   8.807  1.4919  0.6519 -2.1945
  120OSM   H16G12753   5.032   6.387   8.815  0.9660 -1.4898  1.9169
  120OSM   C17F12754   5.108   6.587   8.812 -0.6557 -0.8587  0.5583
  120OSM   H17F12755   5.204   6.551   8.854 -1.3465 -1.2241  1.8908
  120OSM   H17G12756   5.089   6.691   8.846 -1.4796 -1.5949  2.4493
  120OSM   C18F12757   5.140   6.581   8.665 -0.2829  0.9065  0.0445
  120OSM   H18F12758   5.042   6.579   8.613 -0.4813  1.9200  0.3699
  120OSM   H18G12759   5.174   6.476   8.647 -0.3532  1.0086 -0.7209
  120OSM   H18H12760   5.214   6.653   8.624  1.4915 -2.0722 -2.5373
  121OSM      N12761   5.270   2.191  11.111  0.4753 -0.5900 -0.7548
  121OSM    C1512762   5.173   2.235  11.003  0.1908  0.1591  0.6673
  121OSM   H15A12763   5.075   2.255  11.045  0.3605  1.0824  0.6525
  121OSM   H15B12764   5.150   2.154  10.937  0.9973  0.1919  0.3356
  121OSM   H15C12765   5.203   2.319  10.942  1.5570 -1.4210 -0.9528
  121OSM    C1412766   5.317   2.317  11.179 -0.1776  0.6431 -0.1311
  121OSM   H14A12767   5.237   2.368  11.232  0.5647  1.2070  0.4754
  121OSM   H14B12768   5.374   2.383  11.115 -0.8438 -0.1131 -1.5511
  121OSM   H14C12769   5.386   2.295  11.259  0.1610  1.3604 -0.2195
  121OSM    C1312770   5.201   2.113  11.214  0.3081 -0.3496 -0.1852
  121OSM   H13A12771   5.156   2.022  11.177 -2.0946  1.0189 -0.8394
  121OSM   H13B12772   5.123   2.173  11.259  0.3186  1.5220 -2.4295
  121OSM   H13C12773   5.270   2.091  11.294 -0.1468 -0.4295  0.1915
  121OSM    C1212774   5.385   2.115  11.039  0.3535 -0.2710 -0.1897
  121OSM   H12A12775   5.451   2.068  11.111  0.1300 -0.2632  0.0239
  121OSM   H12B12776   5.433   2.191  10.979 -1.7726  0.7407 -0.6866
  121OSM    C1112777   5.340   2.011  10.937  0.1618  0.2938 -0.4240
  121OSM   H11A12778   5.420   1.934  10.931  0.2794  0.1318  2.2361
  121OSM   H11B12779   5.315   2.059  10.840 -1.0463 -0.4612 -0.5151
  121OSM      P12780   5.149   1.827  10.923  0.6228  0.2241  0.0162
  121OSM    O1312781   5.215   1.695  10.943  0.3174 -0.3979 -0.0459
  121OSM    O1412782   5.007   1.842  10.967  0.0870 -0.2144 -0.2096
  121OSM    O1112783   5.151   1.866  10.777 -0.2125 -0.2959  0.1720
  121OSM    O1212784   5.231   1.937  10.993  0.4991 -0.0726  0.0773
  121OSM    C1S12785   5.035   1.917  10.711  0.4450 -0.5219  0.4219
  121OSM    H1S12786   4.975   1.979  10.781  0.0132 -2.3008  1.6951
  121OSM    H1T12787   4.972   1.837  10.669 -0.2988 -0.0983  0.7121
  121OSM     NF12788   4.990   2.091  10.541  0.1671 -0.5428  0.0018
  121OSM    HNF12789   4.924   2.069  10.469 -0.8261 -0.5368  0.8789
  121OSM    C2S12790   5.089   1.998  10.580 -0.2137  0.5888  0.0491
  121OSM    H2S12791   5.180   2.061  10.594 -0.2766  0.8951 -0.8024
  121OSM    C3S12792   5.133   1.882  10.471 -0.5161 -0.5531  0.2188
  121OSM    H3S12793   5.044   1.821  10.443 -1.7510 -0.0101  2.6720
  121OSM     O312794   5.238   1.797  10.515  0.6342  0.8325 -0.3467
  121OSM    HO312795   5.241   1.811  10.610 -0.8936 -2.5165  0.3688
  121OSM    C4S12796   5.173   1.961  10.342 -0.4371  0.0918 -0.3164
  121OSM    H4S12797   5.095   1.961  10.264 -3.1885 -1.5676  2.1740
  121OSM    C5S12798   5.296   2.006  10.318  0.5373 -0.1456  0.1711
  121OSM    H5S12799   5.378   1.979  10.386 -0.0615  1.2099  1.4879
  121OSM    C6S12800   5.323   2.092  10.197 -0.2268  0.9279 -0.1331
  121OSM    H6S12801   5.410   2.159  10.213  0.4875 -0.1594  0.6880
  121OSM    H6T12802   5.239   2.162  10.181  0.2484  1.0707 -2.4073
  121OSM    C7S12803   5.330   2.005  10.073  0.5544  0.3712  0.4036
  121OSM    H7S12804   5.227   1.962  10.072  0.6794  0.0074  1.8813
  121OSM    H7T12805   5.416   1.935  10.072 -0.2799 -0.7030  0.9660
  121OSM    C8S12806   5.346   2.090   9.943 -0.0484 -0.7331 -0.3402
  121OSM    H8S12807   5.439   2.149   9.957 -0.6358 -0.0252  0.7083
  121OSM    H8T12808   5.256   2.152   9.922  0.9645  0.5256 -1.1163
  121OSM    C9S12809   5.383   2.005   9.820 -0.6956  0.1823  0.6969
  121OSM    H9S12810   5.302   1.931   9.807 -1.2873  0.7057  1.3989
  121OSM    H9T12811   5.474   1.947   9.847  0.2678  1.9695  1.4176
  121OSM   C10S12812   5.399   2.085   9.694 -0.4517  0.0029  0.5839
  121OSM   H10S12813   5.485   2.154   9.712  0.3801 -1.0550  0.7995
  121OSM   H10T12814   5.316   2.158   9.690  0.2515  0.7719 -1.0239
  121OSM   C11S12815   5.419   2.021   9.552 -0.0186  0.3413  0.1043
  121OSM   H11S12816   5.510   1.959   9.539 -0.5849 -0.2962 -0.8903
  121OSM   H11T12817   5.432   2.097   9.473  4.2515 -0.4013 -0.1631
  121OSM   C12S12818   5.300   1.943   9.504  0.1421  0.0632 -0.0882
  121OSM   H12S12819   5.201   1.992   9.515  0.2352 -0.2660  2.8153
  121OSM   H12T12820   5.294   1.854   9.570  2.1319 -0.3599 -0.4248
  121OSM   C13S12821   5.317   1.886   9.358 -0.2476  0.3515 -1.1770
  121OSM   H13S12822   5.278   1.782   9.350  1.9312 -0.5824 -0.4596
  121OSM   H13T12823   5.427   1.867   9.354  0.0266  1.6700 -0.5526
  121OSM   C14S12824   5.268   1.980   9.254  0.1784  0.2899  0.1048
  121OSM   H14S12825   5.314   2.078   9.278  0.6712 -0.7231  4.0062
  121OSM   H14T12826   5.160   2.001   9.266 -0.4727  0.1673 -4.1672
  121OSM   C15S12827   5.293   1.942   9.112 -0.8588  0.7350  0.7694
  121OSM   H15S12828   5.226   1.863   9.073 -1.5447 -0.6590  4.3626
  121OSM   H15T12829   5.400   1.910   9.104 -1.6009 -1.8993  0.4852
  121OSM   C16S12830   5.277   2.058   9.013 -0.4476  0.7029  0.7001
  121OSM   H16S12831   5.359   2.132   9.020  2.6609 -2.1249 -2.3213
  121OSM   H16T12832   5.178   2.107   9.022 -2.5538 -3.0332  0.0555
  121OSM   C17S12833   5.272   2.008   8.872 -0.1575  0.4991 -0.4363
  121OSM   H17S12834   5.214   2.088   8.821 -1.2513 -0.8616 -1.4264
  121OSM   H17T12835   5.207   1.920   8.851  2.0431 -1.1605 -0.6191
  121OSM   C18S12836   5.418   1.981   8.814 -0.4500  0.0217  0.2738
  121OSM   H18S12837   5.466   2.081   8.799  1.7776 -0.9325  0.5473
  121OSM   H18T12838   5.400   1.929   8.718 -1.0954  1.2207 -0.2832
  121OSM   H18U12839   5.478   1.919   8.884 -0.6701 -1.0776 -0.4913
  121OSM    C1F12840   4.963   2.197  10.618  0.4498  0.3667  0.1298
  121OSM     OF12841   5.024   2.227  10.717 -0.4219 -0.4306  0.0319
  121OSM    C2F12842   4.848   2.293  10.576 -1.0681 -0.0611 -0.0134
  121OSM    H2F12843   4.799   2.340  10.664 -2.2370  0.6001 -0.9790
  121OSM    H2G12844   4.778   2.233  10.513 -0.7792  0.5428 -0.9231
  121OSM    C3F12845   4.906   2.412  10.493  0.6305  0.5751  0.0254
  121OSM    H3F12846   4.984   2.462  10.555  0.8759 -0.6925  0.7721
  121OSM    H3G12847   4.820   2.476  10.463 -1.0607 -2.1377 -1.2627
  121OSM    C4F12848   4.965   2.379  10.356  0.7922  0.1060  0.1906
  121OSM    H4F12849   5.051   2.308  10.365  0.7347 -0.2679 -1.8292
  121OSM    H4G12850   5.009   2.471  10.312 -1.1476  0.9256 -0.0972
  121OSM    C5F12851   4.859   2.316  10.258 -0.5769 -0.1471  0.0331
  121OSM    H5F12852   4.768   2.379  10.252  0.1317  0.8346 -0.6049
  121OSM    H5G12853   4.837   2.213  10.293  2.1892 -0.8328 -0.0286
  121OSM    C6F12854   4.924   2.291  10.117 -0.0405  0.5778 -0.3955
  121OSM    H6F12855   4.986   2.200  10.136 -0.4487  0.2227 -0.7446
  121OSM    H6G12856   4.987   2.380  10.097 -2.8630  2.9466  0.5602
  121OSM    C7F12857   4.815   2.275  10.008 -0.1335 -0.4343  0.1536
  121OSM    H7F12858   4.781   2.380   9.994 -1.7655 -0.9069  0.3936
  121OSM    H7G12859   4.731   2.210  10.039  0.4670 -2.6973 -2.5437
  121OSM    C8F12860   4.883   2.227   9.882 -0.0816 -0.1672  0.3525
  121OSM    H8F12861   4.807   2.180   9.815 -1.1323  0.8354  0.7882
  121OSM    H8G12862   4.958   2.150   9.910  2.5253  1.6090 -1.3167
  121OSM    C9F12863   4.960   2.334   9.814 -1.2042 -0.5564  0.8585
  121OSM    H9F12864   5.002   2.393   9.897 -1.8363  1.0612  0.0851
  121OSM   C10F12865   4.984   2.354   9.685  0.0857 -1.4532 -0.0269
  121OSM   H10F12866   5.057   2.428   9.649 -1.1186 -0.4063 -0.3998
  121OSM   C11F12867   4.917   2.284   9.568 -0.1669  0.0344 -0.1102
  121OSM   H11F12868   4.807   2.294   9.556 -0.4489 -2.0017  0.4874
  121OSM   H11G12869   4.946   2.177   9.563  1.5467  0.2540  2.7943
  121OSM   C12F12870   4.964   2.364   9.439  0.7520  1.0375  0.2578
  121OSM   H12F12871   5.074   2.378   9.432  0.9774 -0.8275 -0.4135
  121OSM   H12G12872   4.910   2.460   9.427 -0.3496  0.2915 -0.9018
  121OSM   C13F12873   4.922   2.287   9.306  0.3883  0.4152  0.4601
  121OSM   H13F12874   4.811   2.278   9.305  0.4275 -0.3453 -1.2494
  121OSM   H13G12875   4.961   2.183   9.308  0.4433  0.4409  1.6361
  121OSM   C14F12876   4.948   2.378   9.189  0.1979 -0.1525  0.3546
  121OSM   H14F12877   5.056   2.389   9.169 -0.0632  1.5122 -0.2974
  121OSM   H14G12878   4.910   2.479   9.214 -0.0467 -0.7645  2.6469
  121OSM   C15F12879   4.880   2.317   9.065  0.0576 -0.5345 -0.7549
  121OSM   H15F12880   4.774   2.310   9.098  0.5936 -0.6818  1.0396
  121OSM   H15G12881   4.926   2.217   9.051  2.6840  0.3526  0.7155
  121OSM   C16F12882   4.905   2.391   8.930 -0.2487 -0.1973 -0.0687
  121OSM   H16F12883   4.900   2.500   8.952  2.0766  0.2323 -1.3462
  121OSM   H16G12884   4.821   2.358   8.866 -0.3855 -1.7894  0.8814
  121OSM   C17F12885   5.056   2.362   8.880 -0.0106  0.2494 -0.6850
  121OSM   H17F12886   5.060   2.252   8.871 -0.2005  0.0487  1.3173
  121OSM   H17G12887   5.126   2.394   8.960  0.2805 -2.5519  0.2957
  121OSM   C18F12888   5.083   2.433   8.755 -0.0967 -0.3515  0.2348
  121OSM   H18F12889   5.060   2.541   8.769 -2.4582 -0.8219  0.3764
  121OSM   H18G12890   5.025   2.392   8.670  1.5159  1.0087 -1.6259
  121OSM   H18H12891   5.189   2.437   8.720  0.1465  2.5553  1.0586
  122OSM      N12892   5.006   1.179  10.783 -0.1290 -0.2281 -0.1898
  122OSM    C1512893   4.879   1.256  10.773 -0.6043  0.0754  0.0830
  122OSM   H15A12894   4.794   1.195  10.747  0.7914 -2.1293  0.4380
  122OSM   H15B12895   4.873   1.325  10.690 -0.6239  0.1439  0.1416
  122OSM   H15C12896   4.853   1.295  10.870  0.0037 -0.1959  0.3527
  122OSM    C1412897   5.118   1.278  10.799 -0.4530 -0.5050  0.0782
  122OSM   H14A12898   5.108   1.352  10.877 -3.1764  1.3387 -1.8079
  122OSM   H14B12899   5.126   1.333  10.706 -1.5361 -2.4243 -1.2200
  122OSM   H14C12900   5.208   1.221  10.818 -0.4363  0.3135  2.9133
  122OSM    C1312901   4.999   1.093  10.914  0.7717 -0.1007  0.3585
  122OSM   H13A12902   4.916   1.024  10.909  1.5067 -1.0927  1.4182
  122OSM   H13B12903   4.991   1.150  11.005  1.7103 -1.9784  1.6859
  122OSM   H13C12904   5.083   1.026  10.920 -0.3535 -1.4230  3.1446
  122OSM    C1212905   5.034   1.099  10.654  0.0486 -0.2538  0.0863
  122OSM   H12A12906   5.134   1.060  10.660 -0.2863 -1.0621  0.4958
  122OSM   H12B12907   5.031   1.159  10.565  2.8045  1.0198  0.7619
  122OSM    C1112908   4.945   0.976  10.626 -0.4147 -0.6399  0.8355
  122OSM   H11A12909   4.964   0.937  10.524 -1.1654  2.1606 -0.4816
  122OSM   H11B12910   4.840   1.012  10.617 -1.3398 -3.3005 -0.1238
  122OSM      P12911   5.082   0.787  10.743  0.5427 -0.0024 -0.4768
  122OSM    O1312912   5.191   0.846  10.656  0.0136  0.3293 -0.5455
  122OSM    O1412913   5.119   0.790  10.889 -0.8979  0.0636 -0.2423
  122OSM    O1112914   5.042   0.639  10.706 -0.0502 -0.0000  0.0915
  122OSM    O1212915   4.946   0.871  10.721 -0.3319 -0.6347 -0.0559
  122OSM    C1S12916   4.939   0.585  10.623  0.3614  0.1950 -0.3381
  122OSM    H1S12917   4.878   0.673  10.592 -1.7938  0.0135  2.8234
  122OSM    H1T12918   4.872   0.519  10.683  0.0396 -0.1035 -1.0113
  122OSM     NF12919   4.903   0.500  10.389 -0.3580 -0.5958  0.3147
  122OSM    HNF12920   4.849   0.419  10.366 -0.5184 -0.3853 -0.0627
  122OSM    C2S12921   4.993   0.501  10.503  0.1592 -0.2304  0.0457
  122OSM    H2S12922   5.084   0.551  10.464  0.6622 -2.2244 -1.4674
  122OSM    C3S12923   5.043   0.364  10.546  0.4868 -0.7806  0.8733
  122OSM    H3S12924   4.957   0.305  10.584 -1.0309  2.3061  2.5676
  122OSM     O312925   5.130   0.376  10.660  0.2324 -0.0553 -0.0915
  122OSM    HO312926   5.128   0.471  10.674 -1.5564 -0.1708  0.6434
  122OSM    C4S12927   5.118   0.283  10.447  0.2700  0.9779 -0.5204
  122OSM    H4S12928   5.215   0.321  10.410 -0.4406  3.0296 -0.3984
  122OSM    C5S12929   5.062   0.171  10.399 -0.8527  0.1265 -0.5098
  122OSM    H5S12930   4.963   0.140  10.437  0.8525 -1.0022  3.4354
  122OSM    C6S12931   5.122   0.091  10.285  0.2239 -0.0761  0.1266
  122OSM    H6S12932   5.042   0.037  10.228  0.1923 -1.8016  1.6919
  122OSM    H6T12933   5.176   0.001  10.320  0.3538 -0.9827 -2.2041
  122OSM    C7S12934   5.211   0.173  10.184 -0.4399 -0.0582  0.0419
  122OSM    H7S12935   5.302   0.198  10.242 -1.1586  0.4476  0.9859
  122OSM    H7T12936   5.159   0.266  10.152  2.8055  2.8149  2.3808
  122OSM    C8S12937   5.268   0.092  10.064 -0.7220  0.2342 -0.4413
  122OSM    H8S12938   5.291  -0.011  10.096 -1.2698 -0.7005 -2.7900
  122OSM    H8T12939   5.355   0.143  10.019 -1.3325  0.9879 -0.7990
  122OSM    C9S12940   5.158   0.075   9.956 -0.2374  0.7500  0.0045
  122OSM    H9S12941   5.093   0.164   9.937  0.3157  1.3359  0.7896
  122OSM    H9T12942   5.090  -0.006   9.990  1.4278 -1.8039 -2.3577
  122OSM   C10S12943   5.212   0.014   9.829  0.4821 -0.0331  0.3304
  122OSM   H10S12944   5.244  -0.090   9.853  1.4862  0.2597  0.2909
  122OSM   H10T12945   5.309   0.062   9.805 -0.4609  2.0610  0.5150
  122OSM   C11S12946   5.117   0.002   9.710 -0.3553  0.2890 -0.2533
  122OSM   H11S12947   5.058   0.094   9.691 -0.0387  0.8745  1.4199
  122OSM   H11T12948   5.041  -0.072   9.743 -0.5005  1.4829  2.2858
  122OSM   C12S12949   5.201  -0.039   9.593  0.2797 -0.2951 -0.0658
  122OSM   H12S12950   5.141  -0.098   9.520  0.0291  1.8146 -1.6801
  122OSM   H12T12951   5.285  -0.106   9.624 -1.0135 -2.0143 -0.1148
  122OSM   C13S12952   5.262   0.083   9.524  0.0534  0.3812  0.2000
  122OSM   H13S12953   5.325   0.125   9.606 -0.1401  0.4443  0.3147
  122OSM   H13T12954   5.190   0.161   9.492 -0.3069  0.0197  0.1243
  122OSM   C14S12955   5.347   0.036   9.404 -1.4149  0.8102 -0.6828
  122OSM   H14S12956   5.417  -0.044   9.439 -3.4116 -0.5480  0.3963
  122OSM   H14T12957   5.418   0.119   9.387  3.0683 -2.3553  0.5811
  122OSM   C15S12958   5.285  -0.028   9.286 -0.4954 -0.1274  0.2469
  122OSM   H15S12959   5.271  -0.131   9.325  0.6216 -0.6113 -0.5809
  122OSM   H15T12960   5.362  -0.029   9.206  1.5245  1.7533  2.0310
  122OSM   C16S12961   5.145   0.028   9.255  0.2971 -0.3052  0.3799
  122OSM   H16S12962   5.077   0.018   9.342  0.3822 -2.2080  0.2692
  122OSM   H16T12963   5.103  -0.042   9.180 -0.1380  0.9464 -0.5887
  122OSM   C17S12964   5.134   0.174   9.199 -0.4443  0.6282 -0.0589
  122OSM   H17S12965   5.163   0.246   9.279  0.7879  1.0535 -0.8420
  122OSM   H17T12966   5.029   0.205   9.181 -1.0424 -1.7506 -0.9948
  122OSM   C18S12967   5.219   0.190   9.075 -0.6987 -0.4038  0.5058
  122OSM   H18S12968   5.325   0.198   9.107 -0.4059  3.1241 -0.8516
  122OSM   H18T12969   5.191   0.285   9.024 -0.2699  0.0943  1.1729
  122OSM   H18U12970   5.208   0.107   9.002 -0.0026 -0.6232  0.6452
  122OSM    C1F12971   4.878   0.616  10.336 -0.3984  0.2053 -0.3774
  122OSM     OF12972   4.965   0.703  10.329  0.2471 -0.1979 -0.3016
  122OSM    C2F12973   4.749   0.651  10.279 -0.1845 -0.6264 -0.4468
  122OSM    H2F12974   4.734   0.759  10.299  0.1660 -0.9695  1.9778
  122OSM    H2G12975   4.666   0.598  10.330 -0.4596  0.5204  0.3520
  122OSM    C3F12976   4.745   0.614  10.131 -0.5573  0.1470  0.5180
  122OSM    H3F12977   4.812   0.671  10.063  1.7107 -1.8946  0.8983
  122OSM    H3G12978   4.647   0.654  10.097 -0.5814 -0.6673 -0.4284
  122OSM    C4F12979   4.744   0.468  10.097  0.3441 -0.2293  0.7865
  122OSM    H4F12980   4.668   0.424  10.165  0.0318  1.7042  1.7603
  122OSM    H4G12981   4.844   0.425  10.119  0.0291 -1.8738 -0.7566
  122OSM    C5F12982   4.707   0.451   9.949  0.3133 -0.3718  1.2080
  122OSM    H5F12983   4.611   0.503   9.931  0.4145 -0.5474  0.0858
  122OSM    H5G12984   4.686   0.344   9.925 -0.7837  0.1926 -0.4933
  122OSM    C6F12985   4.814   0.495   9.862 -0.2654 -0.6376  0.3692
  122OSM    H6F12986   4.912   0.478   9.911 -0.1775 -2.1158 -0.2681
  122OSM    H6G12987   4.805   0.604   9.845 -1.8210 -1.0306 -1.7535
  122OSM    C7F12988   4.820   0.424   9.724 -0.3082  0.2093  0.2697
  122OSM    H7F12989   4.737   0.456   9.657  0.2417  2.8956  0.7463
  122OSM    H7G12990   4.815   0.315   9.742 -0.0455 -0.3552 -2.6216
  122OSM    C8F12991   4.951   0.441   9.643  0.0123  0.3934  0.1700
  122OSM    H8F12992   5.022   0.407   9.721 -0.1691 -0.6561 -0.1073
  122OSM    H8G12993   4.967   0.550   9.630  0.6158  0.2861 -0.0623
  122OSM    C9F12994   4.952   0.361   9.512  0.2192 -0.2300  0.7495
  122OSM    H9F12995   4.977   0.253   9.514 -1.5285 -0.6485  0.9340
  122OSM   C10F12996   4.919   0.405   9.388 -0.6271 -0.4915  0.5049
  122OSM   H10F12997   4.930   0.333   9.305 -0.6428  0.9984 -0.8430
  122OSM   C11F12998   4.878   0.543   9.349  0.8830 -0.0113 -0.3186
  122OSM   H11F12999   4.936   0.612   9.414  0.9772 -1.9331  1.7596
  122OSM   H11G13000   4.774   0.575   9.372  0.9889  0.0654  0.0641
  122OSM   C12F13001   4.908   0.567   9.202  0.3176  0.1307 -0.0023
  122OSM   H12F13002   5.016   0.556   9.178  0.3770  0.3252  0.1698
  122OSM   H12G13003   4.894   0.677   9.201 -0.9358 -0.0000  0.6322
  122OSM   C13F13004   4.803   0.502   9.108 -0.4666  0.0169  0.1740
  122OSM   H13F13005   4.704   0.533   9.149 -1.3090 -0.1653 -1.5947
  122OSM   H13G13006   4.819   0.393   9.124  0.3897  0.4136  2.3008
  122OSM   C14F13007   4.802   0.536   8.954 -0.6200  0.0081 -0.3702
  122OSM   H14F13008   4.797   0.647   8.950 -3.2095 -0.0609 -0.1839
  122OSM   H14G13009   4.716   0.492   8.900 -0.9111  1.0524 -0.7885
  122OSM   C15F13010   4.940   0.503   8.903 -0.7494 -0.0367 -0.2109
  122OSM   H15F13011   4.980   0.401   8.920  0.3169  0.6331  1.4506
  122OSM   H15G13012   5.016   0.559   8.961 -0.5289 -0.1354 -0.4030
  122OSM   C16F13013   4.960   0.538   8.755 -0.5876 -0.6348  0.3356
  122OSM   H16F13014   5.069   0.517   8.744 -0.4345 -0.0881  0.7483
  122OSM   H16G13015   4.944   0.648   8.757  1.1542 -0.3172 -0.6579
  122OSM   C17F13016   4.881   0.477   8.638  0.4678 -0.9325 -0.2277
  122OSM   H17F13017   4.773   0.495   8.657  1.0394 -0.1836  2.9730
  122OSM   H17G13018   4.903   0.368   8.638  3.5589 -0.4233  0.7690
  122OSM   C18F13019   4.905   0.524   8.496  1.0600 -0.9373 -0.0439
  122OSM   H18F13020   4.869   0.447   8.425  2.0677 -0.5606 -0.9950
  122OSM   H18G13021   5.011   0.552   8.475  0.3546  2.2625  0.0699
  122OSM   H18H13022   4.838   0.613   8.490 -0.8810 -2.3023  0.3304
  123OSM      N13023   6.655   0.351   5.911 -0.1485  0.0359  0.0610
  123OSM    C1513024   6.508   0.357   5.888  0.0931  0.0605  0.4125
  123OSM   H15A13025   6.470   0.454   5.915  1.5021  0.5665  0.6580
  123OSM   H15B13026   6.456   0.278   5.939 -2.2512  0.8767 -0.5668
  123OSM   H15C13027   6.485   0.358   5.782 -0.3501  1.0009  0.5126
  123OSM    C1413028   6.696   0.215   5.865 -0.2836 -0.9611  0.7307
  123OSM   H14A13029   6.703   0.210   5.757 -0.1862  0.3712  0.6590
  123OSM   H14B13030   6.630   0.138   5.903 -2.1895  1.2905  2.2241
  123OSM   H14C13031   6.800   0.201   5.890  0.4494  2.2877  0.0176
  123OSM    C1313032   6.724   0.457   5.826  0.5817 -0.0341 -0.4021
  123OSM   H13A13033   6.699   0.553   5.870  0.7367 -0.3341  0.3551
  123OSM   H13B13034   6.713   0.448   5.719 -0.7721  0.3183 -0.3153
  123OSM   H13C13035   6.829   0.448   5.848  0.8185  1.1172 -0.9759
  123OSM    C1213036   6.683   0.368   6.062 -0.6429 -0.5548 -0.6726
  123OSM   H12A13037   6.645   0.285   6.121  1.3610 -1.4801 -0.6074
  123OSM   H12B13038   6.632   0.457   6.097  2.4622  0.8359  0.7376
  123OSM    C1113039   6.829   0.366   6.106 -0.4302  0.1246  0.3374
  123OSM   H11A13040   6.837   0.375   6.217  1.2825 -3.9337  0.7074
  123OSM   H11B13041   6.883   0.449   6.056 -1.3827  1.3424  1.2421
  123OSM      P13042   7.056   0.222   6.091 -0.0230 -0.0800 -0.4578
  123OSM    O1313043   7.085   0.086   6.042  0.0081  0.2204  0.6758
  123OSM    O1413044   7.129   0.334   6.030  0.2536 -0.2754  0.0028
  123OSM    O1113045   7.078   0.216   6.248  0.5500 -0.2555  0.0553
  123OSM    O1213046   6.894   0.245   6.082 -0.1010  0.0701 -0.6558
  123OSM    C1S13047   6.987   0.136   6.325  0.1405  0.1747 -0.9115
  123OSM    H1S13048   7.004   0.030   6.294 -2.2981 -0.6333  0.3057
  123OSM    H1T13049   6.878   0.145   6.310 -0.3909 -0.2557  2.1452
  123OSM     NF13050   6.953   0.054   6.559  0.1994 -0.0104  0.1732
  123OSM    HNF13051   6.877   0.089   6.614  1.4491 -0.1029  2.0464
  123OSM    C2S13052   7.010   0.157   6.473  0.4547 -0.9401 -0.0870
  123OSM    H2S13053   7.118   0.160   6.498  0.3501 -0.7747  0.3605
  123OSM    C3S13054   6.949   0.305   6.508 -0.1469  0.6788  0.4270
  123OSM    H3S13055   6.844   0.306   6.470  1.2189  0.2454 -3.7878
  123OSM     O313056   7.009   0.414   6.441  0.5916  0.3791  0.6295
  123OSM    HO313057   7.058   0.370   6.371 -1.0394 -0.3404 -0.1081
  123OSM    C4S13058   6.970   0.337   6.653  0.2766  0.1706  0.4879
  123OSM    H4S13059   6.878   0.372   6.702  0.0150  0.6737 -0.3308
  123OSM    C5S13060   7.080   0.349   6.730  0.6079 -0.4210 -0.3677
  123OSM    H5S13061   7.177   0.335   6.679  0.9964 -2.1348  0.7572
  123OSM    C6S13062   7.091   0.382   6.881  0.1763 -0.1455  1.4919
  123OSM    H6S13063   7.143   0.480   6.890  0.7092  0.3223 -3.8626
  123OSM    H6T13064   7.161   0.311   6.931  2.3364  2.0889  1.8580
  123OSM    C7S13065   6.955   0.404   6.951 -0.5434 -0.3575  0.1940
  123OSM    H7S13066   6.914   0.306   6.986  0.1689 -0.6180  0.3136
  123OSM    H7T13067   6.890   0.460   6.882  1.2457  2.7126  0.8368
  123OSM    C8S13068   6.963   0.500   7.071 -0.2119 -0.0340  0.1743
  123OSM    H8S13069   6.986   0.603   7.037 -2.0117  0.6848  1.0086
  123OSM    H8T13070   7.052   0.467   7.128  0.8168  0.6923 -0.9673
  123OSM    C9S13071   6.838   0.510   7.154  0.4414 -0.3520  0.5594
  123OSM    H9S13072   6.750   0.460   7.108  0.7313 -0.0461 -0.3498
  123OSM    H9T13073   6.812   0.617   7.165 -0.7200 -0.4419 -0.9443
  123OSM   C10S13074   6.869   0.455   7.294  0.1056  0.1124 -0.1877
  123OSM   H10S13075   6.969   0.479   7.335  0.5735 -0.5283 -0.9248
  123OSM   H10T13076   6.842   0.347   7.287 -1.3590  0.5856 -4.1003
  123OSM   C11S13077   6.773   0.519   7.400 -0.0246 -0.1588  0.4026
  123OSM   H11S13078   6.672   0.536   7.358  0.7064  1.7801 -0.6849
  123OSM   H11T13079   6.800   0.625   7.416 -0.3879  0.1742 -1.0451
  123OSM   C12S13080   6.761   0.438   7.530 -0.1900 -0.0803  0.7355
  123OSM   H12S13081   6.704   0.347   7.503 -0.4306  0.3794 -0.3553
  123OSM   H12T13082   6.698   0.503   7.594 -0.5139  0.9006 -0.5240
  123OSM   C13S13083   6.894   0.418   7.607  0.0241  0.1576 -0.1695
  123OSM   H13S13084   6.948   0.509   7.573 -1.1917  1.1476  0.4539
  123OSM   H13T13085   6.943   0.328   7.563  1.0663 -0.8603  2.8184
  123OSM   C14S13086   6.886   0.415   7.758 -0.0920  0.3528  0.0092
  123OSM   H14S13087   6.855   0.508   7.809  0.0084  0.5636 -0.3145
  123OSM   H14T13088   6.984   0.377   7.793 -0.8799 -2.3928 -0.4999
  123OSM   C15S13089   6.777   0.313   7.797  0.2946 -0.4306  1.0999
  123OSM   H15S13090   6.801   0.212   7.757 -2.5953 -1.2700  1.2331
  123OSM   H15T13091   6.684   0.348   7.748  0.8555 -0.0264  0.3011
  123OSM   C16S13092   6.753   0.288   7.949  0.7777 -0.9203  0.2087
  123OSM   H16S13093   6.778   0.375   8.012 -1.0790  0.0632 -0.3253
  123OSM   H16T13094   6.817   0.201   7.974  3.2986  0.8529  0.2962
  123OSM   C17S13095   6.609   0.253   7.982  0.1959 -0.9110  0.3956
  123OSM   H17S13096   6.577   0.174   7.909  2.7607 -0.2831 -1.5421
  123OSM   H17T13097   6.558   0.350   7.966  3.0917  0.8513  1.2794
  123OSM   C18S13098   6.590   0.225   8.126 -0.3423  0.0059  0.3219
  123OSM   H18S13099   6.485   0.215   8.161  0.1724 -2.2256  1.3507
  123OSM   H18T13100   6.635   0.305   8.189  0.5578 -2.5470  3.1140
  123OSM   H18U13101   6.643   0.132   8.156 -1.3059 -0.3673  0.9132
  123OSM    C1F13102   6.996  -0.069   6.554  0.3009 -0.1135 -0.4446
  123OSM     OF13103   7.108  -0.095   6.510 -0.8260  0.0150 -0.1291
  123OSM    C2F13104   6.899  -0.173   6.600 -0.2966  0.2651 -0.4660
  123OSM    H2F13105   6.889  -0.259   6.530  0.1567 -0.1419 -0.0450
  123OSM    H2G13106   6.801  -0.122   6.607  0.4524  1.6159  1.1596
  123OSM    C3F13107   6.931  -0.227   6.738  0.6234 -0.0257  1.0776
  123OSM    H3F13108   7.014  -0.299   6.722  2.1358  1.9794 -0.6822
  123OSM    H3G13109   6.847  -0.293   6.765  1.2638 -1.0008  0.7390
  123OSM    C4F13110   6.951  -0.121   6.843 -0.2414 -0.6877 -0.1901
  123OSM    H4F13111   6.891  -0.029   6.826  0.6040 -0.2931 -1.1726
  123OSM    H4G13112   7.059  -0.095   6.847 -0.6557  1.7549 -2.0978
  123OSM    C5F13113   6.910  -0.173   6.979 -0.4550  0.4009  0.6759
  123OSM    H5F13114   6.959  -0.270   7.001 -1.5057 -0.2086  0.3406
  123OSM    H5G13115   6.800  -0.183   6.979 -0.6627  2.3120  0.3591
  123OSM    C6F13116   6.954  -0.081   7.095  0.0061 -0.3600  0.4342
  123OSM    H6F13117   6.906   0.017   7.072  0.2366  0.3303  2.5999
  123OSM    H6G13118   7.065  -0.078   7.106  0.1948  0.5327 -1.4547
  123OSM    C7F13119   6.894  -0.104   7.241  0.4582 -0.7184  0.0955
  123OSM    H7F13120   6.944  -0.189   7.293 -0.8820 -0.8874  1.1708
  123OSM    H7G13121   6.787  -0.128   7.223 -0.7502  3.0282  1.3833
  123OSM    C8F13122   6.913   0.016   7.341  0.5383 -0.4747  0.6680
  123OSM    H8F13123   6.904   0.103   7.274 -1.3235  0.0821  1.5525
  123OSM    H8G13124   7.016   0.013   7.382  1.5258  0.6214 -1.5834
  123OSM    C9F13125   6.808   0.028   7.448  0.2683  0.3440 -0.5084
  123OSM    H9F13126   6.715   0.073   7.411 -0.3225  0.7470  1.3235
  123OSM   C10F13127   6.813  -0.019   7.571 -0.2196 -0.2422  0.1182
  123OSM   H10F13128   6.725  -0.008   7.637 -0.0123 -0.8763  0.5107
  123OSM   C11F13129   6.928  -0.101   7.637  0.2648 -0.5159 -0.4970
  123OSM   H11F13130   7.002  -0.036   7.689  0.7197 -1.1543 -0.3330
  123OSM   H11G13131   6.990  -0.150   7.560 -1.4328 -2.3713 -0.7682
  123OSM   C12F13132   6.868  -0.202   7.737 -0.0064 -0.4628 -0.7382
  123OSM   H12F13133   6.958  -0.263   7.758  1.0440  1.3615  0.4249
  123OSM   H12G13134   6.789  -0.260   7.685 -0.8881 -0.6088  0.6850
  123OSM   C13F13135   6.821  -0.139   7.866 -0.5418 -0.0132 -0.5305
  123OSM   H13F13136   6.720  -0.102   7.841 -0.6127  0.7389  0.8068
  123OSM   H13G13137   6.887  -0.052   7.889  1.6195 -1.0534 -2.3228
  123OSM   C14F13138   6.836  -0.237   7.979 -0.4033  0.3018 -0.4966
  123OSM   H14F13139   6.938  -0.282   7.969 -0.9843 -0.8752 -1.3960
  123OSM   H14G13140   6.771  -0.327   7.965  0.3287 -0.8626  2.7368
  123OSM   C15F13141   6.816  -0.183   8.118 -1.1399  0.7205 -0.2413
  123OSM   H15F13142   6.707  -0.162   8.125 -1.2456 -0.1965  1.6162
  123OSM   H15G13143   6.857  -0.080   8.122 -0.5053  0.4444  0.9340
  123OSM   C16F13144   6.859  -0.287   8.226  0.7618 -0.2828  0.0996
  123OSM   H16F13145   6.970  -0.291   8.216  0.7885  1.8757 -1.1583
  123OSM   H16G13146   6.824  -0.390   8.201 -0.5660 -0.0766  1.0294
  123OSM   C17F13147   6.816  -0.268   8.374  0.1160  0.2030  0.0629
  123OSM   H17F13148   6.863  -0.342   8.442 -1.5441  1.1852  2.3808
  123OSM   H17G13149   6.706  -0.275   8.387 -0.0569  2.4042  0.2269
  123OSM   C18F13150   6.861  -0.125   8.432  0.5722  0.1652 -0.0617
  123OSM   H18F13151   6.825  -0.130   8.536 -5.3269 -0.0485 -1.7598
  123OSM   H18G13152   6.808  -0.038   8.389  2.4404  0.5278 -1.8094
  123OSM   H18H13153   6.972  -0.120   8.438  0.4819  0.0346  2.8907
  124OSM      N13154   4.511   3.666   6.211  1.2115 -0.4675  1.0577
  124OSM    C1513155   4.500   3.748   6.081  0.3453  0.5613  0.2530
  124OSM   H15A13156   4.409   3.806   6.084 -2.3949 -3.3140  1.1232
  124OSM   H15B13157   4.494   3.678   5.998 -0.2265 -0.0665  0.8108
  124OSM   H15C13158   4.581   3.816   6.060 -0.5462  1.0069 -2.0884
  124OSM    C1413159   4.376   3.599   6.225 -0.4394  0.0232  0.0474
  124OSM   H14A13160   4.343   3.533   6.146 -0.7581 -0.6236  0.7063
  124OSM   H14B13161   4.293   3.664   6.250  0.3160  1.1784 -0.3683
  124OSM   H14C13162   4.393   3.533   6.308 -0.0550 -1.6564 -1.3051
  124OSM    C1313163   4.605   3.556   6.183 -0.5644 -0.0678 -0.3299
  124OSM   H13A13164   4.570   3.509   6.093 -1.0282 -1.0799  0.3648
  124OSM   H13B13165   4.604   3.485   6.264 -1.2199 -0.4716 -0.6822
  124OSM   H13C13166   4.704   3.589   6.155 -1.1014  1.3251 -0.6617
  124OSM    C1213167   4.542   3.761   6.324  0.3337 -0.5255  0.2082
  124OSM   H12A13168   4.541   3.708   6.418 -0.0495  0.1119  0.5710
  124OSM   H12B13169   4.468   3.839   6.333  0.2677 -0.7021  1.4057
  124OSM    C1113170   4.678   3.835   6.326 -0.5176  0.3941  0.4773
  124OSM   H11A13171   4.756   3.757   6.341 -0.9351 -0.3883 -1.1950
  124OSM   H11B13172   4.685   3.896   6.418 -0.4152 -0.8305  1.3079
  124OSM      P13173   4.655   4.065   6.201  0.2318  0.2490  0.3191
  124OSM    O1313174   4.771   4.148   6.162 -0.2774 -0.2248 -0.0273
  124OSM    O1413175   4.539   4.073   6.115  0.2035  0.4983  0.3323
  124OSM    O1113176   4.609   4.097   6.349 -0.3047  0.2561 -0.2468
  124OSM    O1213177   4.702   3.917   6.212 -0.3658  0.2864 -0.1207
  124OSM    C1S13178   4.489   4.149   6.393 -0.1904 -0.6783  0.2933
  124OSM    H1S13179   4.406   4.078   6.376 -1.8929  0.8262  1.9603
  124OSM    H1T13180   4.468   4.249   6.349  0.4283 -0.4509  0.4984
  124OSM     NF13181   4.362   4.209   6.591  1.1589  0.5590 -0.4523
  124OSM    HNF13182   4.335   4.304   6.609 -0.6263 -0.0982  0.6531
  124OSM    C2S13183   4.490   4.162   6.544 -0.1820  0.3927 -0.7539
  124OSM    H2S13184   4.509   4.065   6.596  0.8299  0.5494 -0.8001
  124OSM    C3S13185   4.607   4.257   6.597  0.3644  0.5564  0.8452
  124OSM    H3S13186   4.597   4.363   6.563 -1.3679  0.0960 -0.1828
  124OSM     O313187   4.735   4.213   6.555  0.1009  0.0525 -0.3784
  124OSM    HO313188   4.712   4.129   6.514  0.8182 -0.4219  0.1641
  124OSM    C4S13189   4.616   4.253   6.743  0.1730 -0.2971  0.0226
  124OSM    H4S13190   4.617   4.154   6.789  1.8038 -0.2079  0.2377
  124OSM    C5S13191   4.607   4.366   6.816 -0.6230  0.0624  0.6646
  124OSM    H5S13192   4.606   4.464   6.765  0.4044  1.8322  3.7775
  124OSM    C6S13193   4.591   4.396   6.962 -0.1655  0.0626  0.1856
  124OSM    H6S13194   4.527   4.485   6.979  0.8377  0.8531 -0.1620
  124OSM    H6T13195   4.689   4.406   7.013 -1.6001  0.1924  3.1915
  124OSM    C7S13196   4.508   4.288   7.032  0.1003 -0.1771  0.0904
  124OSM    H7S13197   4.568   4.196   7.046 -1.2381 -1.1623 -0.4425
  124OSM    H7T13198   4.422   4.264   6.966  1.5098  0.3939 -2.0758
  124OSM    C8S13199   4.468   4.329   7.178 -0.5434 -0.1953 -0.2105
  124OSM    H8S13200   4.402   4.251   7.223  0.7482 -0.3431  1.5577
  124OSM    H8T13201   4.423   4.430   7.165  2.9700  1.5290  0.0488
  124OSM    C9S13202   4.590   4.347   7.267  0.5513 -0.8451  0.3625
  124OSM    H9S13203   4.639   4.445   7.251  1.5939 -1.4125 -0.0844
  124OSM    H9T13204   4.665   4.275   7.226  1.1966  0.3171 -0.5505
  124OSM   C10S13205   4.581   4.318   7.418  0.4972 -0.6927 -0.3358
  124OSM   H10S13206   4.677   4.345   7.466  0.2453  0.8944 -0.6811
  124OSM   H10T13207   4.576   4.209   7.442  3.0369 -1.0045 -0.9280
  124OSM   C11S13208   4.463   4.386   7.496 -0.4088 -0.1201 -0.2570
  124OSM   H11S13209   4.374   4.327   7.465  1.1303 -1.6036 -2.1406
  124OSM   H11T13210   4.461   4.496   7.479  3.3059 -0.0824 -1.2431
  124OSM   C12S13211   4.482   4.374   7.647  0.4128  1.1180 -0.1782
  124OSM   H12S13212   4.587   4.381   7.681  0.4507 -1.0951  0.2964
  124OSM   H12T13213   4.463   4.269   7.679  2.6563  0.4192 -1.0090
  124OSM   C13S13214   4.392   4.459   7.741  0.2484 -0.5957  0.2208
  124OSM   H13S13215   4.290   4.453   7.696  0.9186 -0.1928 -1.4306
  124OSM   H13T13216   4.416   4.567   7.729 -1.2697 -0.1212  1.1287
  124OSM   C14S13217   4.399   4.412   7.884  0.5718 -0.1230  0.0819
  124OSM   H14S13218   4.486   4.468   7.925 -0.5099  0.4276  1.6848
  124OSM   H14T13219   4.429   4.305   7.885 -2.4129 -1.1148 -1.6186
  124OSM   C15S13220   4.270   4.426   7.973  0.2372  0.7048  0.1242
  124OSM   H15S13221   4.182   4.378   7.924 -0.9431  1.1879  1.6979
  124OSM   H15T13222   4.237   4.531   7.987 -3.8576 -0.5108  0.8388
  124OSM   C16S13223   4.281   4.369   8.116  0.7219  1.0907  0.0534
  124OSM   H16S13224   4.339   4.438   8.181 -0.8711  0.0449  2.7270
  124OSM   H16T13225   4.339   4.274   8.114 -0.3311  0.4332 -0.9335
  124OSM   C17S13226   4.144   4.363   8.187 -0.5459 -0.1963  0.5420
  124OSM   H17S13227   4.083   4.298   8.121  0.6077 -0.6905 -0.0849
  124OSM   H17T13228   4.092   4.461   8.190  0.2714  0.3446 -1.4218
  124OSM   C18S13229   4.145   4.320   8.334  0.9987 -0.2084 -0.1851
  124OSM   H18S13230   4.052   4.360   8.381  0.8062 -1.0145  0.1281
  124OSM   H18T13231   4.237   4.365   8.376  1.0540 -1.1591  0.7560
  124OSM   H18U13232   4.157   4.211   8.348 -0.3383 -0.4336 -0.6188
  124OSM    C1F13233   4.260   4.117   6.605  0.1777  0.2241 -0.0400
  124OSM     OF13234   4.277   3.994   6.602 -0.3991 -0.3890 -0.2766
  124OSM    C2F13235   4.117   4.164   6.611 -0.6675 -0.2043 -0.2691
  124OSM    H2F13236   4.068   4.146   6.513 -2.3451  0.8518  0.3302
  124OSM    H2G13237   4.098   4.273   6.623 -1.7556 -0.5401  1.3752
  124OSM    C3F13238   4.035   4.099   6.720  0.2294 -0.4934 -0.3113
  124OSM    H3F13239   4.030   3.990   6.701 -1.0766 -0.8721  1.9270
  124OSM    H3G13240   3.932   4.141   6.722  1.2260  2.1780 -0.0954
  124OSM    C4F13241   4.100   4.131   6.860 -0.2784 -0.0365  0.4008
  124OSM    H4F13242   4.082   4.239   6.880  0.1188  0.0374  0.3529
  124OSM    H4G13243   4.210   4.116   6.854 -0.2922  0.3951 -2.4798
  124OSM    C5F13244   4.049   4.055   6.983  0.6301  0.4402 -0.2552
  124OSM    H5F13245   4.118   4.095   7.060 -0.3802  1.4653  0.1426
  124OSM    H5G13246   4.045   3.945   6.968 -0.2794  0.3678  0.4510
  124OSM    C6F13247   3.907   4.101   7.023  0.1447  0.0921 -0.1281
  124OSM    H6F13248   3.829   4.054   6.958  1.7478  0.1727 -2.2099
  124OSM    H6G13249   3.889   4.210   7.012 -1.6320 -0.0901  0.5518
  124OSM    C7F13250   3.881   4.062   7.170 -0.0612 -0.1262 -0.7755
  124OSM    H7F13251   3.938   4.135   7.232  2.4225 -1.1431 -1.7172
  124OSM    H7G13252   3.932   3.967   7.197 -0.7878 -0.5371 -0.8440
  124OSM    C8F13253   3.739   4.039   7.218  0.5970 -0.6634  0.1356
  124OSM    H8F13254   3.743   3.988   7.317  0.2384 -1.5514 -0.2959
  124OSM    H8G13255   3.681   3.972   7.151 -1.6595  1.5100 -0.2421
  124OSM    C9F13256   3.678   4.175   7.225  0.4968 -0.0801  0.3955
  124OSM    H9F13257   3.682   4.236   7.134  2.4224 -0.2534  0.3276
  124OSM   C10F13258   3.634   4.227   7.336  0.0873  0.2293  0.5611
  124OSM   H10F13259   3.597   4.331   7.344  1.5826  0.6688  3.2492
  124OSM   C11F13260   3.639   4.155   7.468 -0.5724  0.4254 -0.1949
  124OSM   H11F13261   3.743   4.124   7.490 -0.7682  0.0480  0.2055
  124OSM   H11G13262   3.570   4.068   7.466 -0.0025 -0.0699  0.9085
  124OSM   C12F13263   3.583   4.252   7.576 -0.6394  0.2188 -0.1166
  124OSM   H12F13264   3.491   4.302   7.538 -1.8270 -0.9198  1.1464
  124OSM   H12G13265   3.646   4.341   7.597 -0.7676 -0.1137  1.8490
  124OSM   C13F13266   3.537   4.173   7.706 -0.0692  0.0122  0.1235
  124OSM   H13F13267   3.619   4.113   7.753 -0.2974 -0.0700  0.4159
  124OSM   H13G13268   3.453   4.109   7.670 -0.5875 -0.3968  1.9641
  124OSM   C14F13269   3.461   4.269   7.799 -0.5143 -0.4143 -0.9960
  124OSM   H14F13270   3.379   4.323   7.746 -0.4429  0.0349 -0.6513
  124OSM   H14G13271   3.536   4.351   7.807  1.2301 -2.0493 -0.0365
  124OSM   C15F13272   3.420   4.206   7.936 -0.2633 -0.5691 -0.1676
  124OSM   H15F13273   3.426   4.096   7.926 -1.8992 -0.5849 -1.4709
  124OSM   H15G13274   3.315   4.234   7.960 -1.1623 -3.9606  0.4135
  124OSM   C16F13275   3.506   4.255   8.062 -0.2475 -0.0748  0.1361
  124OSM   H16F13276   3.613   4.242   8.037 -0.5166  0.3474 -1.3535
  124OSM   H16G13277   3.482   4.194   8.152  2.1626 -0.1363  0.7977
  124OSM   C17F13278   3.478   4.402   8.087 -0.4640  0.2207  0.1685
  124OSM   H17F13279   3.373   4.429   8.064  0.0183  0.8894 -1.4687
  124OSM   H17G13280   3.538   4.460   8.013 -0.0059  1.0036  1.1326
  124OSM   C18F13281   3.527   4.450   8.221 -0.1600 -0.0044 -0.2618
  124OSM   H18F13282   3.462   4.403   8.298 -0.7246  1.0458 -0.0657
  124OSM   H18G13283   3.521   4.561   8.225 -0.8531 -0.0609  0.4234
  124OSM   H18H13284   3.628   4.410   8.244 -0.4332 -1.4795 -1.5246
  125OSM      N13285   4.311   6.475   6.036  0.1036 -0.2588 -0.4296
  125OSM    C1513286   4.298   6.347   5.973  0.1927 -0.0033 -0.1501
  125OSM   H15A13287   4.200   6.346   5.928 -0.4470  1.8505  1.0715
  125OSM   H15B13288   4.295   6.269   6.047  1.0853 -0.2923 -0.4120
  125OSM   H15C13289   4.372   6.320   5.899 -2.3244 -1.1308 -2.4077
  125OSM    C1413290   4.447   6.488   6.075 -0.5348 -0.3504 -0.6585
  125OSM   H14A13291   4.457   6.570   6.144 -2.2217 -0.3300 -0.3864
  125OSM   H14B13292   4.514   6.519   5.996  0.1356  0.1349  0.0826
  125OSM   H14C13293   4.487   6.400   6.123 -2.1354 -0.5869  0.3374
  125OSM    C1313294   4.278   6.578   5.933  0.2395  0.0015  0.5025
  125OSM   H13A13295   4.181   6.566   5.888  0.6473  0.4512 -0.5287
  125OSM   H13B13296   4.347   6.582   5.850 -2.1371 -0.5922 -1.6275
  125OSM   H13C13297   4.272   6.677   5.976  0.2201 -0.4447  1.5556
  125OSM    C1213298   4.222   6.487   6.162 -0.4211  0.4045 -0.4234
  125OSM   H12A13299   4.124   6.462   6.124 -0.4590  0.6149 -0.4630
  125OSM   H12B13300   4.221   6.584   6.209  1.3513 -0.4641  1.5800
  125OSM    C1113301   4.248   6.393   6.289 -0.2164  0.2554 -0.0174
  125OSM   H11A13302   4.190   6.420   6.379 -0.9994  0.2052 -0.5020
  125OSM   H11B13303   4.354   6.414   6.315  0.5022 -1.6657 -1.1695
  125OSM      P13304   4.087   6.189   6.254  0.0312 -0.0016  0.4019
  125OSM    O1313305   3.993   6.290   6.205  0.1236 -0.0812  0.5157
  125OSM    O1413306   4.093   6.055   6.193 -0.1204 -0.0906 -0.2608
  125OSM    O1113307   4.065   6.168   6.410 -0.6501 -0.4221  0.1824
  125OSM    O1213308   4.233   6.254   6.257 -0.0083 -0.2656  0.3945
  125OSM    C1S13309   4.160   6.091   6.482 -0.0077  0.2396  0.9957
  125OSM    H1S13310   4.263   6.133   6.473  0.2680 -0.4943  0.7149
  125OSM    H1T13311   4.164   5.989   6.439  0.0450  0.8122 -0.4107
  125OSM     NF13312   4.229   6.037   6.720 -0.1316 -0.5631  0.1912
  125OSM    HNF13313   4.221   5.940   6.742 -2.5055 -0.6787 -0.8575
  125OSM    C2S13314   4.120   6.086   6.632 -0.7006  0.4374 -0.6629
  125OSM    H2S13315   4.094   6.192   6.655 -2.2652 -0.1433  0.3200
  125OSM    C3S13316   3.987   5.999   6.650 -0.3338 -0.1345 -0.2335
  125OSM    H3S13317   4.004   5.892   6.626  0.8098  0.5458 -2.7237
  125OSM     O313318   3.880   6.055   6.576 -0.0977 -0.1229  0.1451
  125OSM    HO313319   3.917   6.126   6.524 -1.7461  1.0774  0.5139
  125OSM    C4S13320   3.938   6.011   6.793 -0.3517 -0.0406 -0.1342
  125OSM    H4S13321   3.941   6.115   6.828  0.1853  0.5005 -1.7037
  125OSM    C5S13322   3.899   5.918   6.882  0.6439  0.2938 -0.5604
  125OSM    H5S13323   3.886   5.812   6.853 -1.5569  1.5743 -5.1853
  125OSM    C6S13324   3.854   5.948   7.024 -0.3863 -0.3220 -0.3442
  125OSM    H6S13325   3.889   5.869   7.095 -1.3408  1.4510  2.2382
  125OSM    H6T13326   3.743   5.945   7.027 -0.3765  0.1635  0.7833
  125OSM    C7S13327   3.893   6.086   7.076 -0.4805 -0.4997 -0.3505
  125OSM    H7S13328   3.833   6.165   7.025 -0.9017  1.2237  2.5904
  125OSM    H7T13329   3.999   6.116   7.068  0.0563 -2.3664 -0.6278
  125OSM    C8S13330   3.844   6.117   7.225 -0.7894  0.5051  0.6741
  125OSM    H8S13331   3.733   6.107   7.236 -0.7518  0.1869  0.7888
  125OSM    H8T13332   3.869   6.223   7.245 -1.6846  0.7693  0.4508
  125OSM    C9S13333   3.892   6.020   7.332  0.5099 -0.4108  0.1469
  125OSM    H9S13334   4.003   6.025   7.332  0.8388 -4.2110  0.5999
  125OSM    H9T13335   3.862   5.915   7.312  0.8428 -0.5216  0.2126
  125OSM   C10S13336   3.848   6.075   7.466  0.3740  0.4627 -0.3278
  125OSM   H10S13337   3.738   6.077   7.475  0.4931  2.2423  1.5113
  125OSM   H10T13338   3.882   6.180   7.469  0.1098  0.5319  0.2711
  125OSM   C11S13339   3.906   5.989   7.577  0.7154 -0.2021 -0.5878
  125OSM   H11S13340   3.888   6.043   7.673  2.3603  2.4753 -1.6524
  125OSM   H11T13341   4.015   5.968   7.567  0.6515 -0.1277 -1.5195
  125OSM   C12S13342   3.816   5.860   7.589 -0.2541 -0.6765 -0.5085
  125OSM   H12S13343   3.857   5.795   7.509 -1.1174 -4.9442  2.1819
  125OSM   H12T13344   3.711   5.881   7.562 -0.8075 -0.7793  1.4020
  125OSM   C13S13345   3.827   5.782   7.718  0.1736  0.8422  0.6986
  125OSM   H13S13346   3.935   5.758   7.723 -0.2835 -1.4340  0.5462
  125OSM   H13T13347   3.771   5.687   7.706 -0.0015  0.8715  1.2531
  125OSM   C14S13348   3.768   5.847   7.850 -0.1857 -0.8354 -0.4165
  125OSM   H14S13349   3.674   5.902   7.824  2.0242  3.6709  0.1539
  125OSM   H14T13350   3.838   5.929   7.876  0.2925 -1.4619  0.2865
  125OSM   C15S13351   3.759   5.748   7.964  0.0350 -0.5187 -1.0214
  125OSM   H15S13352   3.861   5.704   7.972  0.7195  0.8709 -1.7072
  125OSM   H15T13353   3.681   5.674   7.936 -0.3567 -0.4208 -0.2002
  125OSM   C16S13354   3.721   5.802   8.096  0.2772 -0.9355 -0.4193
  125OSM   H16S13355   3.632   5.869   8.094 -0.5716 -1.8614  1.8222
  125OSM   H16T13356   3.805   5.862   8.137 -1.2428  1.1786 -0.2563
  125OSM   C17S13357   3.678   5.693   8.193  0.4054 -0.6070  0.6799
  125OSM   H17S13358   3.699   5.730   8.296  0.9658 -0.1036  0.3940
  125OSM   H17T13359   3.739   5.600   8.191 -1.4041 -1.9171  2.4435
  125OSM   C18S13360   3.533   5.647   8.194 -0.7356 -0.0504  0.8201
  125OSM   H18S13361   3.521   5.566   8.269  0.3139 -1.1763 -0.1995
  125OSM   H18T13362   3.506   5.609   8.093 -0.4089  0.5904  0.4811
  125OSM   H18U13363   3.464   5.727   8.231 -0.3762  1.2223 -1.1171
  125OSM    C1F13364   4.339   6.111   6.740  0.0387 -0.6035  0.5635
  125OSM     OF13365   4.330   6.230   6.716 -0.2884 -0.6218 -0.2883
  125OSM    C2F13366   4.455   6.047   6.800 -0.4484  0.6143  0.6681
  125OSM    H2F13367   4.532   6.048   6.720 -1.3500  0.3572 -0.2163
  125OSM    H2G13368   4.442   5.947   6.849  1.0236  1.5930  3.2617
  125OSM    C3F13369   4.518   6.140   6.911 -0.4194 -0.1281 -0.9008
  125OSM    H3F13370   4.564   6.229   6.862  1.3202 -0.5818 -0.1623
  125OSM    H3G13371   4.600   6.084   6.962 -0.2210 -0.4247 -1.5268
  125OSM    C4F13372   4.419   6.180   7.019 -0.1884  0.4019 -0.0346
  125OSM    H4F13373   4.324   6.225   6.983 -0.1107 -0.4966 -1.4570
  125OSM    H4G13374   4.471   6.243   7.094  0.1539  0.4630 -0.3197
  125OSM    C5F13375   4.347   6.059   7.090 -0.1178 -0.2933 -0.6555
  125OSM    H5F13376   4.426   5.994   7.134 -1.3043 -0.5088  1.2619
  125OSM    H5G13377   4.281   6.004   7.019 -1.8918 -0.1821  0.8309
  125OSM    C6F13378   4.261   6.099   7.211 -0.1051  0.0241 -0.1844
  125OSM    H6F13379   4.200   6.012   7.243  0.9160  0.4499  3.3659
  125OSM    H6G13380   4.193   6.179   7.174  0.7798  0.9428  0.1449
  125OSM    C7F13381   4.336   6.146   7.332  0.5642  0.0317 -0.1567
  125OSM    H7F13382   4.368   6.251   7.314 -0.3764  0.4266  0.3703
  125OSM    H7G13383   4.429   6.088   7.347  0.6976  0.5623  1.1254
  125OSM    C8F13384   4.241   6.146   7.454 -0.7261  0.4750 -0.2109
  125OSM    H8F13385   4.191   6.047   7.455  0.1826 -0.0117 -0.6911
  125OSM    H8G13386   4.165   6.224   7.435 -1.0545  0.4202  0.8466
  125OSM    C9F13387   4.317   6.176   7.578  0.3510 -0.2156 -0.2686
  125OSM    H9F13388   4.350   6.280   7.591 -1.1153  0.2958 -0.4535
  125OSM   C10F13389   4.338   6.090   7.672 -0.2571 -0.8251 -0.2358
  125OSM   H10F13390   4.406   6.121   7.753 -0.4906 -0.9602  0.0122
  125OSM   C11F13391   4.309   5.945   7.678 -0.2730 -0.1099 -0.5144
  125OSM   H11F13392   4.402   5.897   7.714 -1.4596 -0.3648  2.4927
  125OSM   H11G13393   4.279   5.888   7.588 -1.0686 -1.8084  0.7631
  125OSM   C12F13394   4.203   5.897   7.787 -1.0466  0.3401 -0.4983
  125OSM   H12F13395   4.183   5.791   7.763  0.6450  0.1472 -1.2375
  125OSM   H12G13396   4.102   5.938   7.768 -2.4942 -2.4092  0.7876
  125OSM   C13F13397   4.240   5.914   7.934 -0.0266  0.2714  0.4157
  125OSM   H13F13398   4.255   6.024   7.942  3.5907  0.1045 -1.8012
  125OSM   H13G13399   4.339   5.873   7.964  0.4386 -0.0384 -1.4363
  125OSM   C14F13400   4.127   5.879   8.034  0.5509 -0.8019  0.5011
  125OSM   H14F13401   4.095   5.772   8.042 -0.8161 -0.3722  1.1554
  125OSM   H14G13402   4.038   5.940   8.007  1.6828  0.1727 -1.1861
  125OSM   C15F13403   4.164   5.915   8.178  0.2571 -0.5092 -0.1636
  125OSM   H15F13404   4.169   6.026   8.185 -1.7983 -0.2700 -1.4083
  125OSM   H15G13405   4.259   5.863   8.201  1.5003 -1.6076 -6.0272
  125OSM   C16F13406   4.046   5.890   8.277 -0.9007  0.3141  0.1301
  125OSM   H16F13407   4.017   5.783   8.266  0.1143 -0.2509  2.3033
  125OSM   H16G13408   3.974   5.965   8.237  0.8604  1.4137 -1.1225
  125OSM   C17F13409   4.087   5.919   8.420 -0.0190 -0.2106 -0.0948
  125OSM   H17F13410   4.125   6.023   8.412 -0.2387 -0.1810 -0.7906
  125OSM   H17G13411   4.173   5.856   8.454  0.3559  1.5144  2.4534
  125OSM   C18F13412   3.966   5.915   8.510 -0.0901  0.3517  0.1413
  125OSM   H18F13413   4.000   5.950   8.610  0.7395  1.7336 -0.6000
  125OSM   H18G13414   3.918   5.815   8.511  2.1147 -0.7817 -1.5079
  125OSM   H18H13415   3.892   5.994   8.482  0.5467  0.9829  0.2147
  126OSM      N13416   3.310   5.300   6.179 -0.1327 -0.1948  0.3838
  126OSM    C1513417   3.314   5.293   6.025 -0.8970 -0.3429  0.0576
  126OSM   H15A13418   3.216   5.258   5.994 -1.7895  0.7380  1.5372
  126OSM   H15B13419   3.393   5.226   5.996 -0.3040  0.1262  0.5702
  126OSM   H15C13420   3.335   5.392   5.988 -0.4881 -0.1561  0.7636
  126OSM    C1413421   3.214   5.405   6.229  0.2191 -0.0664 -0.3550
  126OSM   H14A13422   3.227   5.436   6.332 -1.3730 -0.5272  0.0111
  126OSM   H14B13423   3.111   5.374   6.220 -0.5946  1.3659  2.6456
  126OSM   H14C13424   3.229   5.489   6.163  0.0213  0.3697  0.1463
  126OSM    C1313425   3.281   5.163   6.236  0.4093 -0.5435 -0.9189
  126OSM   H13A13426   3.175   5.145   6.225 -0.2393  1.0062  1.7583
  126OSM   H13B13427   3.279   5.166   6.344 -4.5168  1.1727 -0.8222
  126OSM   H13C13428   3.343   5.084   6.196  2.6736  0.0605  1.1704
  126OSM    C1213429   3.449   5.336   6.227 -0.6623 -0.1421  0.2218
  126OSM   H12A13430   3.481   5.423   6.172 -0.1132 -0.7846 -0.4979
  126OSM   H12B13431   3.517   5.255   6.204 -0.1334 -0.2192  1.9349
  126OSM    C1113432   3.461   5.383   6.378  0.2825 -0.0176  0.2771
  126OSM   H11A13433   3.571   5.385   6.391  0.5417 -1.7476 -1.3104
  126OSM   H11B13434   3.429   5.297   6.441 -0.1692 -0.6764 -0.8200
  126OSM      P13435   3.421   5.564   6.568 -0.2587  0.0023  0.0624
  126OSM    O1313436   3.565   5.550   6.605 -0.7733 -0.1168 -0.1318
  126OSM    O1413437   3.370   5.706   6.577  0.6323  0.3787  0.1281
  126OSM    O1113438   3.341   5.487   6.676  0.3418  0.9242 -0.3029
  126OSM    O1213439   3.396   5.499   6.424  0.2785  0.2532 -0.1267
  126OSM    C1S13440   3.208   5.433   6.644  0.0236 -0.6049  0.5722
  126OSM    H1S13441   3.209   5.372   6.551 -1.4706 -0.7721  0.6347
  126OSM    H1T13442   3.132   5.515   6.641 -0.7705 -1.3378 -0.2366
  126OSM     NF13443   3.029   5.275   6.724 -0.2288 -0.5612 -0.0908
  126OSM    HNF13444   2.943   5.322   6.740 -1.5987 -2.4680 -1.3909
  126OSM    C2S13445   3.152   5.349   6.767 -0.0712  0.2723  0.2217
  126OSM    H2S13446   3.223   5.266   6.788 -0.4464 -0.2539 -0.5222
  126OSM    C3S13447   3.141   5.439   6.887  0.2091  0.1199 -0.5569
  126OSM    H3S13448   3.058   5.508   6.861 -1.0375 -0.9997  0.3174
  126OSM     O313449   3.253   5.520   6.920 -0.3313 -0.0063  0.8563
  126OSM    HO313450   3.308   5.519   6.841  0.9464  1.4832  1.6566
  126OSM    C4S13451   3.107   5.355   7.014 -0.1742 -0.6478  0.3704
  126OSM    H4S13452   3.187   5.299   7.065  0.8521 -0.4377 -0.9630
  126OSM    C5S13453   2.989   5.358   7.075 -0.1747 -0.0855  0.6189
  126OSM    H5S13454   2.917   5.431   7.036  0.0394 -0.2143 -0.0264
  126OSM    C6S13455   2.954   5.303   7.210  0.0089 -0.3315 -0.1629
  126OSM    H6S13456   2.873   5.231   7.183 -0.4777  0.3081 -0.4409
  126OSM    H6T13457   2.913   5.381   7.278 -0.5459 -1.2646  0.5999
  126OSM    C7S13458   3.051   5.229   7.298  0.0758  0.4656 -0.5039
  126OSM    H7S13459   3.144   5.286   7.278  0.5521 -0.4733 -0.9924
  126OSM    H7T13460   3.064   5.127   7.258 -0.0602  0.2390  0.0231
  126OSM    C8S13461   3.026   5.213   7.449  0.3262 -0.8100  0.2715
  126OSM    H8S13462   2.935   5.150   7.461  1.1069 -1.8388  0.8644
  126OSM    H8T13463   3.013   5.314   7.495  0.7085 -0.0983 -1.1319
  126OSM    C9S13464   3.158   5.150   7.505  0.6415 -0.0246  0.5783
  126OSM    H9S13465   3.219   5.241   7.523  0.2455  0.7045 -1.4611
  126OSM    H9T13466   3.206   5.087   7.427  0.1299 -2.2758  1.9885
  126OSM   C10S13467   3.131   5.057   7.633  0.1219  0.2005  0.3152
  126OSM   H10S13468   3.223   5.060   7.694 -0.3372 -0.1494  1.0414
  126OSM   H10T13469   3.119   4.955   7.591 -0.9739 -0.3670  1.8968
  126OSM   C11S13470   3.020   5.101   7.723 -0.2126 -0.5376  0.3212
  126OSM   H11S13471   2.919   5.093   7.677  0.4515 -0.0720 -1.2879
  126OSM   H11T13472   3.037   5.205   7.757 -3.8515 -0.1872  1.6370
  126OSM   C12S13473   3.020   5.022   7.860  0.4831 -0.6529  0.5914
  126OSM   H12S13474   3.117   5.032   7.912  0.1290  2.3267  0.8635
  126OSM   H12T13475   2.973   4.923   7.843  1.2059 -0.7841 -0.7569
  126OSM   C13S13476   2.923   5.104   7.954 -0.8161 -0.6159  0.3392
  126OSM   H13S13477   2.828   5.123   7.898  0.8726 -0.6948 -2.7927
  126OSM   H13T13478   2.966   5.204   7.980  2.6821 -2.1835  1.1166
  126OSM   C14S13479   2.898   5.026   8.091 -0.3846 -0.2601  0.6608
  126OSM   H14S13480   3.000   4.993   8.120  0.3917  1.1103 -0.3401
  126OSM   H14T13481   2.857   4.927   8.064 -0.6297  0.0857 -0.2917
  126OSM   C15S13482   2.792   5.095   8.176  0.0356  0.4837  0.3286
  126OSM   H15S13483   2.692   5.083   8.128 -0.6638 -0.1359  1.8694
  126OSM   H15T13484   2.815   5.204   8.181  0.7290  0.5499 -2.5681
  126OSM   C16S13485   2.773   5.018   8.307  0.1046  0.4569  0.0029
  126OSM   H16S13486   2.752   4.914   8.272  1.3098  0.5965 -1.2511
  126OSM   H16T13487   2.680   5.057   8.353 -1.7041 -1.5262 -1.6810
  126OSM   C17S13488   2.887   4.995   8.409 -0.0165 -0.2365 -0.1843
  126OSM   H17S13489   2.858   5.040   8.506  1.4962 -0.3619  0.3489
  126OSM   H17T13490   2.984   5.042   8.381  0.3902  0.0439  1.6106
  126OSM   C18S13491   2.905   4.843   8.442  0.0689 -0.8291 -0.2206
  126OSM   H18S13492   2.951   4.778   8.365 -0.0781 -3.0200  1.4194
  126OSM   H18T13493   2.809   4.790   8.463  1.4659 -3.3820  0.1291
  126OSM   H18U13494   2.973   4.847   8.530 -0.2760 -0.2224  0.0240
  126OSM    C1F13495   3.041   5.169   6.637 -1.0211 -0.3689 -0.1920
  126OSM     OF13496   3.141   5.155   6.570 -0.1652 -0.0360  0.0527
  126OSM    C2F13497   2.928   5.082   6.623 -0.0931 -0.2289  0.2386
  126OSM    H2F13498   2.893   5.075   6.517 -0.2270  0.6829  0.2067
  126OSM    H2G13499   2.831   5.112   6.669 -1.1819 -1.1390 -1.3432
  126OSM    C3F13500   2.949   4.939   6.678 -0.0422 -0.4325 -0.2744
  126OSM    H3F13501   3.036   4.888   6.631  0.3366 -0.4642  0.4430
  126OSM    H3G13502   2.856   4.885   6.652 -1.1217  0.8063  0.8635
  126OSM    C4F13503   2.972   4.933   6.828 -0.0139  0.2395  0.2570
  126OSM    H4F13504   3.070   4.980   6.851  0.3235  0.7153 -1.9492
  126OSM    H4G13505   3.004   4.829   6.851  0.4298  0.4305  0.5205
  126OSM    C5F13506   2.849   4.958   6.911  0.0049  0.2990 -0.0801
  126OSM    H5F13507   2.800   5.055   6.889 -0.6943 -0.0875 -0.2686
  126OSM    H5G13508   2.883   4.962   7.016  2.0845 -1.3791 -0.6063
  126OSM    C6F13509   2.743   4.846   6.887 -0.1024  0.7286  0.2255
  126OSM    H6F13510   2.792   4.747   6.883 -0.7611  0.3374  1.3549
  126OSM    H6G13511   2.698   4.863   6.786  1.6204 -1.7824 -1.0857
  126OSM    C7F13512   2.626   4.853   6.988 -0.2599  0.5282  0.4312
  126OSM    H7F13513   2.525   4.840   6.942 -0.7734 -1.9195  2.0362
  126OSM    H7G13514   2.618   4.956   7.027 -0.0231 -0.1039  2.2352
  126OSM    C8F13515   2.639   4.764   7.113  0.4518  1.1795  0.0495
  126OSM    H8F13516   2.644   4.663   7.067 -0.4764  0.5477  1.2757
  126OSM    H8G13517   2.545   4.764   7.173 -1.4243 -0.2004 -2.6629
  126OSM    C9F13518   2.754   4.767   7.203 -0.2709 -0.4921  0.6715
  126OSM    H9F13519   2.836   4.698   7.180  0.4121  1.3249 -3.1797
  126OSM   C10F13520   2.775   4.850   7.307 -0.0647 -0.2193  0.2622
  126OSM   H10F13521   2.874   4.864   7.352  1.0663  1.7176 -2.5520
  126OSM   C11F13522   2.672   4.949   7.346  0.1243 -0.1682 -0.4672
  126OSM   H11F13523   2.625   4.986   7.253 -1.6734 -0.4587  0.2790
  126OSM   H11G13524   2.724   5.039   7.385 -1.4058  0.1691  0.8943
  126OSM   C12F13525   2.569   4.898   7.447  0.3340  0.4172  0.6682
  126OSM   H12F13526   2.519   4.812   7.397  0.2265 -0.3997  2.1294
  126OSM   H12G13527   2.489   4.972   7.469  0.6711  0.5272  1.5509
  126OSM   C13F13528   2.636   4.864   7.585  0.0067  0.6228  1.0509
  126OSM   H13F13529   2.697   4.949   7.622  1.8922  0.0901 -0.6654
  126OSM   H13G13530   2.710   4.786   7.555 -2.2585 -1.7332  1.1966
  126OSM   C14F13531   2.532   4.805   7.683  0.0131 -1.4323  0.4415
  126OSM   H14F13532   2.507   4.698   7.666 -0.7452 -1.1280 -0.4666
  126OSM   H14G13533   2.440   4.866   7.668  0.8227 -0.5530 -1.0885
  126OSM   C15F13534   2.576   4.819   7.829  0.2435 -0.2962  0.6048
  126OSM   H15F13535   2.569   4.924   7.864  1.0614 -0.2052  0.5247
  126OSM   H15G13536   2.682   4.788   7.847 -0.1837 -1.6295  0.9377
  126OSM   C16F13537   2.485   4.743   7.936  0.0710  0.0179  0.3189
  126OSM   H16F13538   2.489   4.636   7.909 -0.7944 -0.0954  0.6276
  126OSM   H16G13539   2.381   4.782   7.933  0.1946  0.3683  0.4327
  126OSM   C17F13540   2.530   4.757   8.076 -0.5204  0.8396  0.4713
  126OSM   H17F13541   2.455   4.719   8.148 -0.7916  0.9051  0.2255
  126OSM   H17G13542   2.554   4.863   8.097 -0.6122  1.4195 -1.9999
  126OSM   C18F13543   2.651   4.664   8.112 -0.6563  0.5597 -0.0681
  126OSM   H18F13544   2.655   4.566   8.060  1.2261  0.7753 -0.3989
  126OSM   H18G13545   2.649   4.653   8.223 -3.0520  1.5530  0.0478
  126OSM   H18H13546   2.745   4.718   8.089 -0.3137 -0.0961 -0.2233
  127OSM      N13547   3.786   3.167   6.107  0.3114 -0.0041  0.1881
  127OSM    C1513548   3.662   3.231   6.077  0.3702 -0.1217  0.3362
  127OSM   H15A13549   3.664   3.327   6.127 -1.6412 -0.3051  0.8453
  127OSM   H15B13550   3.576   3.186   6.125 -0.2314  0.2750 -0.3462
  127OSM   H15C13551   3.651   3.243   5.970  2.7793 -0.2416  0.0156
  127OSM    C1413552   3.811   3.046   6.022  0.0319 -0.2879 -0.3810
  127OSM   H14A13553   3.751   2.964   6.060 -2.9681  2.0416  0.2810
  127OSM   H14B13554   3.917   3.024   6.021  0.5888  1.8734  1.5882
  127OSM   H14C13555   3.787   3.065   5.919  0.1633 -1.3446 -0.6113
  127OSM    C1313556   3.898   3.264   6.071  0.7675 -0.1921 -0.2392
  127OSM   H13A13557   3.994   3.215   6.069  0.6091 -0.6293  1.3330
  127OSM   H13B13558   3.901   3.345   6.142 -1.5588 -0.6733  0.5065
  127OSM   H13C13559   3.875   3.318   5.981 -0.3055 -0.4147 -0.1226
  127OSM    C1213560   3.795   3.130   6.256 -0.4421  0.5841 -0.2543
  127OSM   H12A13561   3.821   3.219   6.312  1.4839  0.7523 -1.3195
  127OSM   H12B13562   3.878   3.062   6.270 -1.5849 -1.5813 -2.9663
  127OSM    C1113563   3.669   3.072   6.321  0.1182  0.2551 -0.0566
  127OSM   H11A13564   3.683   3.018   6.417 -0.2103  0.7014  0.2506
  127OSM   H11B13565   3.629   2.996   6.252 -0.5679 -0.4421  1.0777
  127OSM      P13566   3.574   3.287   6.448 -0.1114  0.1744  0.2426
  127OSM    O1313567   3.646   3.408   6.396 -0.0081 -0.4183 -0.4998
  127OSM    O1413568   3.436   3.315   6.497 -0.1546 -0.5005  0.0728
  127OSM    O1113569   3.660   3.220   6.565  0.4941  0.2582 -0.4796
  127OSM    O1213570   3.566   3.172   6.340 -0.1638  0.0373  0.7329
  127OSM    C1S13571   3.666   3.292   6.694 -0.6449  1.0388  0.0513
  127OSM    H1S13572   3.579   3.266   6.759 -0.0061 -1.8132 -0.1108
  127OSM    H1T13573   3.665   3.402   6.682  2.5129  1.3823  1.7911
  127OSM     NF13574   3.767   3.271   6.922  0.4206 -0.7237  0.2183
  127OSM    HNF13575   3.796   3.355   6.969  0.3991 -0.3901 -0.3570
  127OSM    C2S13576   3.800   3.269   6.777  0.4609 -0.5260  0.9621
  127OSM    H2S13577   3.839   3.167   6.756  1.2385 -0.7214  3.1145
  127OSM    C3S13578   3.914   3.360   6.736  0.2587 -0.9285  0.7675
  127OSM    H3S13579   3.892   3.467   6.760  1.3498 -0.1355 -1.4581
  127OSM     O313580   3.936   3.360   6.601 -0.1260  0.0691  0.4407
  127OSM    HO313581   3.850   3.327   6.576 -0.6625  1.0324  0.9274
  127OSM    C4S13582   4.045   3.328   6.807 -0.6542 -0.7973  0.0627
  127OSM    H4S13583   4.077   3.400   6.885  0.0638  0.2719 -1.1736
  127OSM    C5S13584   4.123   3.223   6.776 -0.1775 -0.3522  0.1025
  127OSM    H5S13585   4.087   3.146   6.706 -0.9036 -3.0053  3.1652
  127OSM    C6S13586   4.257   3.192   6.851  0.4164  0.0731 -0.0589
  127OSM    H6S13587   4.281   3.283   6.911  0.8026 -1.4621  2.2215
  127OSM    H6T13588   4.345   3.179   6.784  0.2034 -0.1460 -0.2972
  127OSM    C7S13589   4.256   3.077   6.953 -0.5868  0.0762  0.6891
  127OSM    H7S13590   4.356   3.073   7.002 -0.2755  0.7908  0.1432
  127OSM    H7T13591   4.236   2.977   6.909 -0.0951 -0.0719  0.8001
  127OSM    C8S13592   4.161   3.109   7.067 -0.2168  0.2357  0.6943
  127OSM    H8S13593   4.133   3.013   7.115  2.3551  0.2029  2.3387
  127OSM    H8T13594   4.066   3.159   7.037 -1.1299 -1.2700  0.9448
  127OSM    C9S13595   4.228   3.196   7.175 -0.0881 -0.1539 -0.1932
  127OSM    H9S13596   4.268   3.297   7.152 -2.6660  1.1708  0.7543
  127OSM    H9T13597   4.312   3.134   7.212  0.3437  1.1802  1.1730
  127OSM   C10S13598   4.134   3.203   7.302 -0.2565  0.1262 -0.3995
  127OSM   H10S13599   4.075   3.109   7.298  3.3758 -2.3848 -0.0162
  127OSM   H10T13600   4.061   3.287   7.298  0.4380  0.7164 -1.2981
  127OSM   C11S13601   4.216   3.215   7.430  0.4513  0.2527 -0.2013
  127OSM   H11S13602   4.295   3.286   7.396  0.3510  0.5740  0.2311
  127OSM   H11T13603   4.247   3.116   7.469  0.9929  0.3242 -0.4442
  127OSM   C12S13604   4.125   3.267   7.542  0.0491 -0.3994  0.0352
  127OSM   H12S13605   4.025   3.221   7.525  0.5086 -0.5791 -2.5908
  127OSM   H12T13606   4.114   3.377   7.533  0.8996 -0.2537  0.7118
  127OSM   C13S13607   4.166   3.249   7.683 -1.1019  0.7554 -0.0979
  127OSM   H13S13608   4.277   3.256   7.694 -0.9076 -2.1731  0.8248
  127OSM   H13T13609   4.161   3.143   7.717  1.1072  0.6318  0.0114
  127OSM   C14S13610   4.085   3.341   7.774 -0.1198 -0.3963 -0.2587
  127OSM   H14S13611   3.976   3.320   7.770 -0.2266 -0.5626  2.2356
  127OSM   H14T13612   4.088   3.442   7.729  0.5560  0.2206  1.1289
  127OSM   C15S13613   4.135   3.343   7.914 -0.5334 -0.0421 -0.4363
  127OSM   H15S13614   4.081   3.423   7.969 -1.5522 -0.6224 -0.5733
  127OSM   H15T13615   4.242   3.375   7.913 -0.6599  0.5902  1.7466
  127OSM   C16S13616   4.120   3.208   7.992 -0.4652 -0.2280 -0.9309
  127OSM   H16S13617   4.183   3.131   7.942 -1.0943 -1.3984  0.0499
  127OSM   H16T13618   4.013   3.178   7.991  0.2000 -2.9215 -0.1346
  127OSM   C17S13619   4.180   3.225   8.139 -0.3581  0.4427  0.2564
  127OSM   H17S13620   4.284   3.256   8.116  0.0850 -1.7346 -0.9012
  127OSM   H17T13621   4.177   3.127   8.189 -0.0728 -0.6573 -1.7646
  127OSM   C18S13622   4.120   3.329   8.227  0.0938  0.1017  0.0267
  127OSM   H18S13623   4.197   3.365   8.298  1.4741 -2.1396 -0.2673
  127OSM   H18T13624   4.024   3.300   8.276 -1.0584  3.6605  0.1675
  127OSM   H18U13625   4.088   3.421   8.173  1.8732 -0.2242 -1.6677
  127OSM    C1F13626   3.706   3.174   6.981 -0.7069  0.4593 -0.8066
  127OSM     OF13627   3.701   3.063   6.931 -0.3371  0.0729  0.2698
  127OSM    C2F13628   3.657   3.190   7.123  0.2195 -0.4318 -0.1180
  127OSM    H2F13629   3.585   3.275   7.130 -1.0453 -1.5420  0.9314
  127OSM    H2G13630   3.739   3.237   7.181 -0.1023  0.1977 -0.1624
  127OSM    C3F13631   3.612   3.053   7.178 -1.0374 -0.1818  0.5807
  127OSM    H3F13632   3.694   2.978   7.167  0.5240  1.5741 -0.3022
  127OSM    H3G13633   3.533   3.022   7.105 -1.1112  2.0156 -0.3413
  127OSM    C4F13634   3.555   3.049   7.322  0.3947 -0.1471  1.0573
  127OSM    H4F13635   3.538   2.945   7.357 -0.5097  0.8250  3.7171
  127OSM    H4G13636   3.451   3.083   7.305 -0.4685 -3.3853 -1.0592
  127OSM    C5F13637   3.641   3.129   7.422 -0.1344 -0.0419 -0.1540
  127OSM    H5F13638   3.657   3.230   7.379 -1.6614  0.9441  1.4687
  127OSM    H5G13639   3.740   3.078   7.424  1.2275  2.0630 -3.6059
  127OSM    C6F13640   3.589   3.144   7.566  0.3066 -0.2579  0.1576
  127OSM    H6F13641   3.579   3.040   7.605 -0.8090 -0.3853 -0.4199
  127OSM    H6G13642   3.487   3.188   7.562  0.3525 -0.2279 -1.3706
  127OSM    C7F13643   3.688   3.227   7.655 -0.4583  0.3693  0.7737
  127OSM    H7F13644   3.695   3.332   7.619  0.4382  0.2652  0.6216
  127OSM    H7G13645   3.786   3.179   7.635 -1.4063 -0.8423 -1.2316
  127OSM    C8F13646   3.642   3.240   7.800 -0.1076  0.4644 -0.2775
  127OSM    H8F13647   3.536   3.270   7.817 -0.5362 -1.0401 -0.1283
  127OSM    H8G13648   3.699   3.324   7.845  0.4375  1.2752 -2.3881
  127OSM    C9F13649   3.662   3.103   7.864 -0.0147  0.8781 -0.4492
  127OSM    H9F13650   3.629   3.019   7.802  2.7495  1.9892 -3.7560
  127OSM   C10F13651   3.717   3.076   7.986  0.6810 -0.5407  0.7486
  127OSM   H10F13652   3.715   2.972   8.024 -0.2539 -1.3114 -1.2407
  127OSM   C11F13653   3.776   3.184   8.077  0.4584  0.2959 -0.0169
  127OSM   H11F13654   3.812   3.268   8.015 -0.4541  1.6111  1.1726
  127OSM   H11G13655   3.858   3.135   8.134  0.1232  0.5542  0.6965
  127OSM   C12F13656   3.702   3.263   8.183 -0.0130  0.0876 -0.4055
  127OSM   H12F13657   3.718   3.204   8.276 -1.9762  1.7714  1.1088
  127OSM   H12G13658   3.598   3.284   8.150  0.0475 -2.0977 -2.2521
  127OSM   C13F13659   3.757   3.404   8.226 -0.2995  0.3446  0.2884
  127OSM   H13F13660   3.778   3.465   8.136 -0.4181 -0.6406 -0.4278
  127OSM   H13G13661   3.851   3.401   8.284  0.4926 -1.8865 -0.9941
  127OSM   C14F13662   3.654   3.464   8.325  0.4269  0.4828 -0.2284
  127OSM   H14F13663   3.559   3.483   8.269  0.6084 -0.2911 -0.8041
  127OSM   H14G13664   3.689   3.563   8.362  0.8640 -0.5109  2.2252
  127OSM   C15F13665   3.608   3.388   8.449  0.4537  0.3371  0.6692
  127OSM   H15F13666   3.541   3.302   8.426  0.8042  0.5680 -1.4995
  127OSM   H15G13667   3.559   3.466   8.510 -0.2158  0.5817 -0.1575
  127OSM   C16F13668   3.715   3.345   8.551  0.3270 -0.3256 -0.0994
  127OSM   H16F13669   3.745   3.433   8.612 -0.4258 -1.2246  1.6474
  127OSM   H16G13670   3.797   3.300   8.491 -1.7183 -1.9797 -1.8282
  127OSM   C17F13671   3.673   3.228   8.641 -0.7598 -0.1333  0.4321
  127OSM   H17F13672   3.649   3.139   8.578 -0.6979 -1.0386  1.6514
  127OSM   H17G13673   3.577   3.254   8.692 -0.5645  1.8018 -0.1141
  127OSM   C18F13674   3.785   3.203   8.740 -0.2265  0.4946 -0.2637
  127OSM   H18F13675   3.800   3.288   8.810 -4.2567  0.8684  0.3936
  127OSM   H18G13676   3.888   3.190   8.701 -0.1306 -0.4811  0.2908
  127OSM   H18H13677   3.758   3.117   8.804  0.2537  1.0257  0.6689
  128OSM      N13678   4.709   1.620   6.289  0.2513  0.0525  0.6576
  128OSM    C1513679   4.659   1.522   6.388  0.2842 -0.0063 -0.1468
  128OSM   H15A13680   4.738   1.453   6.414  1.0260  0.5624 -0.8372
  128OSM   H15B13681   4.573   1.469   6.349 -0.1176  1.7775 -1.8379
  128OSM   H15C13682   4.633   1.580   6.475 -1.8414  0.3425 -0.9514
  128OSM    C1413683   4.600   1.717   6.255 -0.1430  0.3948  0.2782
  128OSM   H14A13684   4.516   1.679   6.200 -1.2291  3.0515 -0.0556
  128OSM   H14B13685   4.635   1.795   6.189  0.5519 -1.7968 -2.0624
  128OSM   H14C13686   4.569   1.764   6.348 -0.4843  2.1722 -0.6941
  128OSM    C1313687   4.821   1.695   6.339  0.4627 -0.3654 -0.0861
  128OSM   H13A13688   4.787   1.733   6.434 -1.8253 -2.6202  0.1076
  128OSM   H13B13689   4.837   1.777   6.270 -0.6244 -0.5156 -0.5440
  128OSM   H13C13690   4.914   1.641   6.346  1.9772  2.0449 -0.5492
  128OSM    C1213691   4.749   1.554   6.158 -0.2897  0.0932 -0.3537
  128OSM   H12A13692   4.762   1.629   6.082  0.3581  1.7264  1.2839
  128OSM   H12B13693   4.671   1.490   6.120 -1.1865  1.0740 -0.2160
  128OSM    C1113694   4.879   1.470   6.174  0.1690  0.1942  0.4444
  128OSM   H11A13695   4.956   1.533   6.223  0.5006  0.1515 -0.0199
  128OSM   H11B13696   4.914   1.446   6.072 -0.6000 -1.7108  0.5932
  128OSM      P13697   4.790   1.229   6.168  0.2266 -0.1101 -0.2381
  128OSM    O1313698   4.710   1.293   6.062  0.2641  0.0668 -0.2921
  128OSM    O1413699   4.896   1.124   6.146 -0.4942 -0.1611  0.1439
  128OSM    O1113700   4.690   1.186   6.283  0.2785 -0.0176  0.1495
  128OSM    O1213701   4.865   1.344   6.244 -0.9194  0.1191 -0.1475
  128OSM    C1S13702   4.676   1.056   6.327  0.9571  0.1337 -0.0756
  128OSM    H1S13703   4.688   0.988   6.241 -2.8785 -0.6901 -0.1290
  128OSM    H1T13704   4.570   1.044   6.359  0.6399 -0.4754 -1.3275
  128OSM     NF13705   4.752   0.887   6.475  0.1716  0.1575 -0.4433
  128OSM    HNF13706   4.691   0.871   6.553  2.0223 -0.2565  0.9795
  128OSM    C2S13707   4.777   1.022   6.439 -0.1729 -0.1810 -0.3570
  128OSM    H2S13708   4.877   1.031   6.393 -0.3064 -0.3236 -0.6849
  128OSM    C3S13709   4.757   1.117   6.557 -0.1064 -0.4499 -0.5577
  128OSM    H3S13710   4.654   1.101   6.593  0.7057 -1.6998  1.3756
  128OSM     O313711   4.782   1.258   6.533 -0.2360  0.0909  0.4322
  128OSM    HO313712   4.763   1.272   6.440 -3.1484 -0.7408  0.7823
  128OSM    C4S13713   4.851   1.074   6.671 -0.0545  0.6089 -0.5747
  128OSM    H4S13714   4.952   1.036   6.651 -0.2979 -0.7050  0.5738
  128OSM    C5S13715   4.805   1.072   6.800  1.0154  0.7805  0.0979
  128OSM    H5S13716   4.699   1.096   6.815  0.8736 -0.3228  0.9689
  128OSM    C6S13717   4.872   1.030   6.927 -0.1267 -0.3140  0.3797
  128OSM    H6S13718   4.960   0.970   6.897  0.0968  0.5374 -0.7118
  128OSM    H6T13719   4.806   0.963   6.985 -0.5613  0.3622  0.6870
  128OSM    C7S13720   4.934   1.146   7.013 -0.2522  0.0207 -0.3801
  128OSM    H7S13721   4.846   1.203   7.052 -0.6685 -0.6289 -0.3462
  128OSM    H7T13722   4.995   1.209   6.945  0.1108 -2.2706 -2.3019
  128OSM    C8S13723   5.026   1.102   7.136 -0.1887 -0.4700  0.5672
  128OSM    H8S13724   5.120   1.159   7.154 -1.1712  1.1920  0.5611
  128OSM    H8T13725   5.047   0.994   7.118  0.4544 -0.3946  0.8397
  128OSM    C9S13726   4.938   1.109   7.261 -0.5218 -0.7805 -0.5565
  128OSM    H9S13727   4.837   1.065   7.246 -1.5556  1.1338  0.4627
  128OSM    H9T13728   4.914   1.217   7.270  0.3742 -0.4360 -1.9452
  128OSM   C10S13729   5.009   1.052   7.383  0.1068 -0.0292 -0.2651
  128OSM   H10S13730   5.118   1.076   7.384  0.0878  0.0714  0.9190
  128OSM   H10T13731   5.000   0.941   7.383 -0.7266  0.0181  1.0738
  128OSM   C11S13732   4.961   1.103   7.521 -0.1219 -0.1736  0.0477
  128OSM   H11S13733   4.856   1.068   7.531 -0.2569  0.7565  2.8426
  128OSM   H11T13734   4.956   1.214   7.529 -2.1362 -0.2669  0.8560
  128OSM   C12S13735   5.035   1.045   7.641 -0.6486 -0.2467  0.3582
  128OSM   H12S13736   5.140   1.076   7.660 -0.5567 -1.2542  1.6376
  128OSM   H12T13737   5.034   0.935   7.626  0.8720  0.0381 -2.5760
  128OSM   C13S13738   4.959   1.076   7.774  1.1701 -0.5877  1.0322
  128OSM   H13S13739   4.863   1.022   7.758  0.4877  1.1160 -1.1100
  128OSM   H13T13740   4.938   1.183   7.794  1.6370 -0.5354  1.2502
  128OSM   C14S13741   5.016   1.020   7.903 -0.1929 -0.5178 -0.0984
  128OSM   H14S13742   5.116   1.063   7.926  0.4813 -1.6876 -0.7372
  128OSM   H14T13743   5.037   0.914   7.876 -0.4701 -0.9744  1.3869
  128OSM   C15S13744   4.930   1.037   8.026 -1.2020  0.1321 -0.3035
  128OSM   H15S13745   4.823   1.008   8.010 -1.3090  0.7349 -0.7102
  128OSM   H15T13746   4.935   1.144   8.058 -1.1865  0.4668 -1.4037
  128OSM   C16S13747   4.980   0.964   8.151  0.4204 -0.6764 -0.4436
  128OSM   H16S13748   4.948   1.008   8.249  2.2534  0.5265 -0.3344
  128OSM   H16T13749   5.090   0.974   8.150  0.2685  1.8894 -1.6937
  128OSM   C17S13750   4.944   0.814   8.156 -0.2944 -0.1230  0.4435
  128OSM   H17S13751   5.013   0.779   8.236  0.4918  3.2955  1.4239
  128OSM   H17T13752   4.971   0.778   8.055  0.9503  2.1231 -0.0967
  128OSM   C18S13753   4.800   0.776   8.189  0.6163  0.4479 -0.2123
  128OSM   H18S13754   4.798   0.665   8.185 -1.5352  0.2988  2.3299
  128OSM   H18T13755   4.736   0.822   8.110  1.4441  0.8367 -0.6620
  128OSM   H18U13756   4.755   0.802   8.287  0.7399  0.9969 -0.2980
  128OSM    C1F13757   4.791   0.783   6.408  0.2253 -0.2275  0.1219
  128OSM     OF13758   4.842   0.787   6.299  0.0241  0.4615  0.1335
  128OSM    C2F13759   4.771   0.650   6.476  0.2895  0.1018 -0.4042
  128OSM    H2F13760   4.716   0.591   6.400  2.0132  0.2013 -1.8048
  128OSM    H2G13761   4.719   0.670   6.572  0.4703  0.3072 -0.3503
  128OSM    C3F13762   4.916   0.588   6.507  0.3804 -0.2345 -0.0697
  128OSM    H3F13763   4.969   0.567   6.412 -0.8223 -1.4965 -0.5054
  128OSM    H3G13764   4.900   0.490   6.558 -0.5696  0.6863  1.4740
  128OSM    C4F13765   4.998   0.675   6.601 -0.3720  0.5238  0.4081
  128OSM    H4F13766   5.013   0.782   6.577 -3.5209  1.1811  0.9573
  128OSM    H4G13767   5.099   0.630   6.599 -0.7417 -0.3533 -1.2032
  128OSM    C5F13768   4.937   0.672   6.741  0.0274 -0.0251 -0.2817
  128OSM    H5F13769   4.868   0.585   6.746 -2.3087  1.5037 -2.9348
  128OSM    H5G13770   4.865   0.756   6.754  0.1584  0.2789 -1.4474
  128OSM    C6F13771   5.039   0.671   6.856  0.2388  0.5279  0.0695
  128OSM    H6F13772   5.102   0.761   6.840 -0.5185  0.8732 -1.0642
  128OSM    H6G13773   5.106   0.585   6.833 -0.3697  0.0443  0.0892
  128OSM    C7F13774   4.991   0.668   7.001 -0.2323  0.4118  0.2596
  128OSM    H7F13775   4.959   0.563   7.019  0.5176 -0.4312 -2.7044
  128OSM    H7G13776   4.905   0.738   7.008 -0.7264  0.0004 -1.1806
  128OSM    C8F13777   5.102   0.715   7.105 -0.5145 -0.0285  0.0869
  128OSM    H8F13778   5.042   0.734   7.196 -0.2058  0.7828  0.1278
  128OSM    H8G13779   5.141   0.809   7.062 -0.3905 -1.3272 -2.9313
  128OSM    C9F13780   5.219   0.620   7.111  0.3230  0.1589 -0.2489
  128OSM    H9F13781   5.230   0.573   7.012 -1.8147  0.3538 -0.6438
  128OSM   C10F13782   5.286   0.586   7.221  0.5339 -0.0066  0.1822
  128OSM   H10F13783   5.369   0.513   7.220  0.3083 -0.2611 -0.0343
  128OSM   C11F13784   5.256   0.628   7.360 -0.7320  0.0642 -0.0009
  128OSM   H11F13785   5.203   0.544   7.408 -3.4896  1.5295 -0.2903
  128OSM   H11G13786   5.186   0.713   7.344 -0.4981 -0.0710 -2.0388
  128OSM   C12F13787   5.367   0.685   7.457  0.8753 -0.0466 -0.5266
  128OSM   H12F13788   5.425   0.757   7.395  2.4628 -2.2975 -1.8209
  128OSM   H12G13789   5.440   0.605   7.480  0.7219  0.2116  0.8956
  128OSM   C13F13790   5.308   0.733   7.587 -0.1553  0.0871 -0.0270
  128OSM   H13F13791   5.245   0.649   7.624 -0.7132  0.3923 -0.2606
  128OSM   H13G13792   5.244   0.818   7.554 -2.7760 -2.3768 -1.7760
  128OSM   C14F13793   5.413   0.764   7.687 -0.1828 -0.0591  0.6177
  128OSM   H14F13794   5.475   0.853   7.664  0.3606 -0.5248  0.2293
  128OSM   H14G13795   5.491   0.685   7.694  0.1270 -0.1090 -2.1560
  128OSM   C15F13796   5.343   0.779   7.824  0.2645 -0.4961  0.6543
  128OSM   H15F13797   5.265   0.701   7.828 -0.4870  0.0764 -1.4316
  128OSM   H15G13798   5.284   0.873   7.816  1.5995  0.2538 -1.3638
  128OSM   C16F13799   5.443   0.794   7.938  0.2765  0.5172  0.0443
  128OSM   H16F13800   5.519   0.872   7.917 -1.1332  1.2933 -2.6311
  128OSM   H16G13801   5.488   0.695   7.965 -0.6494  0.4099  1.2594
  128OSM   C17F13802   5.371   0.832   8.075 -0.2054  0.2095 -0.3654
  128OSM   H17F13803   5.323   0.736   8.105  0.7176 -0.3607 -0.6675
  128OSM   H17G13804   5.298   0.915   8.067  0.9491  1.5803  2.2202
  128OSM   C18F13805   5.468   0.878   8.183 -0.5288  0.5363 -0.1839
  128OSM   H18F13806   5.488   0.987   8.176 -0.7082  0.5762 -0.0747
  128OSM   H18G13807   5.560   0.816   8.180 -2.0250 -1.8491  0.5440
  128OSM   H18H13808   5.426   0.868   8.286  1.7537 -0.1768  0.7514
  129OSM      N13809   3.985   2.443   6.343  0.3024 -0.2017 -0.2281
  129OSM    C1513810   3.953   2.299   6.339 -0.5969  0.3392  0.8711
  129OSM   H15A13811   3.962   2.236   6.426  2.4766 -1.9530 -0.8981
  129OSM   H15B13812   4.021   2.241   6.278 -1.5570  0.5428 -0.4267
  129OSM   H15C13813   3.856   2.281   6.295  0.0033 -1.4374  0.1955
  129OSM    C1413814   3.914   2.503   6.461 -0.0700 -0.8826  0.4289
  129OSM   H14A13815   3.932   2.610   6.459  2.3063 -1.2400  0.2102
  129OSM   H14B13816   3.958   2.468   6.553  3.2833  1.1609 -0.2218
  129OSM   H14C13817   3.810   2.475   6.469 -0.1819 -1.1504 -1.5598
  129OSM    C1313818   4.135   2.453   6.363  0.5071 -0.1226  0.5476
  129OSM   H13A13819   4.163   2.395   6.450 -1.0693  0.5698  1.5677
  129OSM   H13B13820   4.153   2.557   6.384  0.5362  0.0378 -0.2339
  129OSM   H13C13821   4.196   2.423   6.279 -0.1844 -2.7650  0.8953
  129OSM    C1213822   3.939   2.507   6.218  0.1386  0.3759 -1.2090
  129OSM   H12A13823   3.831   2.510   6.225  0.2437  1.9558  1.4885
  129OSM   H12B13824   3.960   2.445   6.132 -0.3113 -1.7284  0.1398
  129OSM    C1113825   3.992   2.642   6.189  0.6075 -0.6233 -0.0500
  129OSM   H11A13826   3.953   2.674   6.090  0.4319  3.4195  1.1560
  129OSM   H11B13827   4.101   2.631   6.172  0.6347 -1.8768  0.8351
  129OSM      P13828   4.065   2.827   6.353  0.1253  0.5979  0.1027
  129OSM    O1313829   4.197   2.756   6.351 -0.0129 -0.2860  0.4667
  129OSM    O1413830   4.063   2.967   6.317  0.1596  0.2508 -0.3038
  129OSM    O1113831   4.018   2.817   6.504 -0.1618 -1.4063 -0.2335
  129OSM    O1213832   3.955   2.745   6.279  1.0137 -0.5357 -0.1756
  129OSM    C1S13833   3.892   2.867   6.546 -0.0580 -0.3842  0.0380
  129OSM    H1S13834   3.816   2.853   6.466  0.9026  0.4345 -1.0429
  129OSM    H1T13835   3.897   2.978   6.549 -1.1075 -0.3327  0.4527
  129OSM     NF13836   3.716   2.858   6.721  0.2616 -0.3551  0.3269
  129OSM    HNF13837   3.707   2.946   6.768 -0.3658 -0.0941 -0.2522
  129OSM    C2S13838   3.849   2.817   6.684  0.5997  0.5134 -0.1693
  129OSM    H2S13839   3.840   2.707   6.670  0.1446  0.5201  0.0806
  129OSM    C3S13840   3.961   2.842   6.795 -0.3576 -0.9430  0.5306
  129OSM    H3S13841   3.972   2.950   6.820 -0.2487 -0.6971 -0.5605
  129OSM     O313842   4.094   2.797   6.762  0.2088  0.1679 -0.2111
  129OSM    HO313843   4.086   2.785   6.668 -1.9199 -2.2982  0.1852
  129OSM    C4S13844   3.934   2.759   6.916  1.1584  0.2915 -0.3192
  129OSM    H4S13845   3.914   2.653   6.892  1.3437  0.1789  0.0226
  129OSM    C5S13846   3.919   2.812   7.035 -0.1948 -0.2368 -0.5769
  129OSM    H5S13847   3.911   2.922   7.046 -1.7662  0.0239 -3.3526
  129OSM    C6S13848   3.884   2.742   7.166  0.4994 -0.1184  1.0666
  129OSM    H6S13849   3.899   2.632   7.171 -0.0129 -0.1368  2.9705
  129OSM    H6T13850   3.780   2.770   7.191  0.9485  0.3965  2.5057
  129OSM    C7S13851   3.966   2.813   7.274  0.0457 -0.1236 -0.4021
  129OSM    H7S13852   3.970   2.923   7.263  4.2717  0.0058  0.7518
  129OSM    H7T13853   4.072   2.782   7.268  0.5108  1.0505  1.1134
  129OSM    C8S13854   3.920   2.769   7.409 -0.3369  0.2377  0.6546
  129OSM    H8S13855   3.946   2.662   7.410  0.6676  0.4486 -0.6884
  129OSM    H8T13856   3.812   2.792   7.424 -0.4085  1.0492 -0.8971
  129OSM    C9S13857   3.985   2.848   7.523 -0.2150 -0.1350 -0.4927
  129OSM    H9S13858   3.975   2.956   7.498 -0.1458  0.1555  0.6808
  129OSM    H9T13859   4.090   2.813   7.520  1.0303  2.2959  4.0720
  129OSM   C10S13860   3.927   2.822   7.661  0.3599  0.0719  0.6662
  129OSM   H10S13861   3.952   2.715   7.677  1.2688  0.0903 -0.4978
  129OSM   H10T13862   3.818   2.845   7.667  0.2635 -0.0384 -0.5365
  129OSM   C11S13863   3.995   2.893   7.773 -0.0157 -0.1002  0.6895
  129OSM   H11S13864   3.966   2.999   7.784  2.2975  0.5842  0.5138
  129OSM   H11T13865   4.102   2.884   7.746 -0.0273 -0.2036  0.6731
  129OSM   C12S13866   3.961   2.819   7.907  0.2222 -0.5578 -0.8747
  129OSM   H12S13867   3.988   2.712   7.893 -0.8372 -0.8937 -0.4125
  129OSM   H12T13868   3.855   2.812   7.936  0.4268 -0.6363 -0.1419
  129OSM   C13S13869   4.047   2.865   8.023 -0.1436  0.5516 -0.9198
  129OSM   H13S13870   4.023   2.972   8.042  0.4131  0.4143  0.6909
  129OSM   H13T13871   4.156   2.858   8.005  0.7660  1.5849  3.0743
  129OSM   C14S13872   4.015   2.788   8.155  0.0537 -0.3428  0.4562
  129OSM   H14S13873   4.040   2.682   8.133  2.2884  0.3693 -0.7040
  129OSM   H14T13874   3.904   2.795   8.165  0.0260  1.8629 -0.7710
  129OSM   C15S13875   4.079   2.838   8.290  0.7172 -0.8011  0.1053
  129OSM   H15S13876   4.068   2.946   8.315 -2.4324 -1.2972  1.3185
  129OSM   H15T13877   4.188   2.820   8.278  1.2404  0.9004  1.7162
  129OSM   C16S13878   4.024   2.749   8.401 -0.3854 -0.4643 -1.1408
  129OSM   H16S13879   4.002   2.649   8.358  3.9127 -1.9911 -0.3520
  129OSM   H16T13880   3.926   2.775   8.446 -1.3992 -0.4793 -3.2041
  129OSM   C17S13881   4.130   2.719   8.504  1.1034  0.1736  0.5757
  129OSM   H17S13882   4.158   2.812   8.560  1.6968  0.9234 -0.9203
  129OSM   H17T13883   4.221   2.701   8.442  0.9948  0.1053  0.4364
  129OSM   C18S13884   4.097   2.607   8.610  0.7430 -0.0584 -0.3347
  129OSM   H18S13885   4.013   2.643   8.673 -0.2694  0.8608 -2.1235
  129OSM   H18T13886   4.186   2.594   8.675  0.4386  0.8164  0.2898
  129OSM   H18U13887   4.068   2.514   8.558  0.6735  1.0531 -2.3796
  129OSM    C1F13888   3.611   2.811   6.647 -0.2890  0.1016 -0.3609
  129OSM     OF13889   3.623   2.716   6.573 -0.2931  0.2794 -0.0590
  129OSM    C2F13890   3.486   2.895   6.638  0.4064 -0.0395  0.0045
  129OSM    H2F13891   3.466   2.921   6.532  2.8706 -2.0494 -1.0381
  129OSM    H2G13892   3.505   2.990   6.692  2.3542 -0.5383  0.2738
  129OSM    C3F13893   3.363   2.813   6.679 -0.4246 -0.7821  0.3555
  129OSM    H3F13894   3.368   2.724   6.613  1.3890  0.5629 -1.4420
  129OSM    H3G13895   3.276   2.880   6.664 -0.9900 -1.2549  1.4653
  129OSM    C4F13896   3.352   2.762   6.826 -0.0365  0.5142  0.6620
  129OSM    H4F13897   3.436   2.698   6.861  1.8420  2.8026  0.5480
  129OSM    H4G13898   3.258   2.702   6.824  0.5478 -0.4990 -2.8494
  129OSM    C5F13899   3.331   2.886   6.918  0.3173 -0.2007 -0.3017
  129OSM    H5F13900   3.249   2.954   6.884  0.0468 -0.1298  0.4662
  129OSM    H5G13901   3.422   2.943   6.889  0.3892 -1.3478 -2.4720
  129OSM    C6F13902   3.318   2.863   7.071  0.1436  0.5168 -0.3945
  129OSM    H6F13903   3.317   2.964   7.115 -0.6864  0.7416 -0.8983
  129OSM    H6G13904   3.410   2.807   7.099  0.1079 -0.3096 -1.7867
  129OSM    C7F13905   3.193   2.794   7.126  0.5304  0.7305  0.1293
  129OSM    H7F13906   3.170   2.691   7.088  3.6633 -0.1024  0.2674
  129OSM    H7G13907   3.104   2.856   7.102  0.7695  0.6101 -1.1375
  129OSM    C8F13908   3.180   2.790   7.280 -0.1387 -0.2318  0.5913
  129OSM    H8F13909   3.083   2.744   7.309 -0.3182  0.4187  1.0450
  129OSM    H8G13910   3.173   2.894   7.320  2.1786 -0.0509  0.6696
  129OSM    C9F13911   3.295   2.723   7.350  1.0428 -0.6777  1.0851
  129OSM    H9F13912   3.364   2.656   7.297 -1.6420 -2.5329 -0.2937
  129OSM   C10F13913   3.301   2.746   7.485 -0.2321 -1.0708  0.2688
  129OSM   H10F13914   3.384   2.700   7.540  0.2156  2.0162  2.4738
  129OSM   C11F13915   3.216   2.844   7.563  1.0245  0.1775 -0.1100
  129OSM   H11F13916   3.112   2.844   7.523  0.9092  2.8760  0.0211
  129OSM   H11G13917   3.251   2.950   7.564 -2.3535  1.4120  1.4670
  129OSM   C12F13918   3.211   2.811   7.714 -0.0631  0.4996 -0.4195
  129OSM   H12F13919   3.198   2.701   7.723 -0.9893  0.6884  0.7329
  129OSM   H12G13920   3.125   2.870   7.751  1.0099  1.2448  1.0128
  129OSM   C13F13921   3.337   2.861   7.788  0.3075  0.2639 -0.3226
  129OSM   H13F13922   3.359   2.966   7.759  1.1931  0.9074  2.3703
  129OSM   H13G13923   3.424   2.798   7.762  0.3085 -0.7704  1.9904
  129OSM   C14F13924   3.305   2.857   7.941  0.1991 -0.5366 -0.3171
  129OSM   H14F13925   3.278   2.754   7.971 -1.3467  0.0628  0.4588
  129OSM   H14G13926   3.213   2.917   7.958  0.9787  0.9906 -1.2711
  129OSM   C15F13927   3.417   2.913   8.031 -0.1477  0.2740  0.8731
  129OSM   H15F13928   3.437   3.021   8.018  0.1130  0.3259  1.6322
  129OSM   H15G13929   3.516   2.863   8.023  0.5738  1.4017  2.2706
  129OSM   C16F13930   3.375   2.902   8.175  0.3153  0.1309 -0.4887
  129OSM   H16F13931   3.332   2.802   8.199 -3.1929  0.9561 -2.6363
  129OSM   H16G13932   3.286   2.967   8.187 -0.0210 -0.5174  0.7715
  129OSM   C17F13933   3.484   2.941   8.266  0.8952 -0.5128 -0.0956
  129OSM   H17F13934   3.530   3.039   8.243  0.0880 -0.5285 -2.0077
  129OSM   H17G13935   3.565   2.867   8.248  1.7708  0.4394 -0.1630
  129OSM   C18F13936   3.442   2.930   8.411 -0.2367  0.3749  0.2092
  129OSM   H18F13937   3.526   2.954   8.479 -0.5526  1.9598  0.0576
  129OSM   H18G13938   3.408   2.824   8.418 -0.6338  0.2578 -2.5857
  129OSM   H18H13939   3.352   2.993   8.425 -0.5875 -0.0718  0.0011
  130OSM      N13940   4.938   4.963   6.187  0.5901 -0.0241 -0.3714
  130OSM    C1513941   5.039   4.921   6.083  0.0035  0.0886 -0.0121
  130OSM   H15A13942   4.994   4.845   6.021  0.9382  0.6905 -1.5157
  130OSM   H15B13943   5.128   4.872   6.119 -1.1380 -0.9124  1.5169
  130OSM   H15C13944   5.060   5.001   6.012 -0.0102 -0.7978 -1.0461
  130OSM    C1413945   5.002   5.048   6.287 -0.4477  0.8434 -0.3768
  130OSM   H14A13946   4.941   5.074   6.373  1.9260  2.1039  1.0197
  130OSM   H14B13947   5.039   5.142   6.249 -0.8079  1.2940  0.3531
  130OSM   H14C13948   5.086   4.996   6.329 -0.5942  0.2147 -0.8407
  130OSM    C1313949   4.848   5.058   6.106 -0.1032  0.6656  0.5984
  130OSM   H13A13950   4.913   5.129   6.056 -0.1323 -0.5384 -1.2323
  130OSM   H13B13951   4.774   5.107   6.168 -0.3933  1.0065 -0.0012
  130OSM   H13C13952   4.792   5.008   6.029 -1.0382 -0.3909  1.9258
  130OSM    C1213953   4.859   4.848   6.252 -0.2746 -0.8489 -0.1025
  130OSM   H12A13954   4.794   4.892   6.326 -1.2750 -2.3278 -0.0716
  130OSM   H12B13955   4.928   4.784   6.305  0.8512 -2.0303 -2.7982
  130OSM    C1113956   4.759   4.765   6.166 -0.1360 -0.3467  0.1747
  130OSM   H11A13957   4.731   4.676   6.225  0.0746 -0.0095  0.7834
  130OSM   H11B13958   4.802   4.704   6.083  1.1649 -0.9565  1.2587
  130OSM      P13959   4.523   4.869   6.206  0.0527  0.0090 -0.0050
  130OSM    O1313960   4.532   5.010   6.240  0.5014  0.1115  0.0264
  130OSM    O1413961   4.403   4.829   6.133  0.3390 -0.1429  0.7611
  130OSM    O1113962   4.539   4.772   6.330  0.1750  0.8460 -0.1329
  130OSM    O1213963   4.649   4.845   6.126  0.5073 -0.7144  0.5577
  130OSM    C1S13964   4.431   4.766   6.432 -0.2870  0.5893 -0.1629
  130OSM    H1S13965   4.356   4.688   6.407  0.2012 -0.2655  0.9209
  130OSM    H1T13966   4.383   4.865   6.439  0.0706  0.7180  0.6647
  130OSM     NF13967   4.383   4.716   6.667 -0.2670  0.0394  0.0501
  130OSM    HNF13968   4.376   4.793   6.730  0.8572  1.1543 -1.1218
  130OSM    C2S13969   4.493   4.718   6.567  0.1600 -0.1276  0.0962
  130OSM    H2S13970   4.534   4.616   6.553  0.6701  0.3225 -2.1281
  130OSM    C3S13971   4.611   4.814   6.602 -0.2906 -0.4795  0.4681
  130OSM    H3S13972   4.556   4.909   6.617  1.2240  0.6641 -0.8210
  130OSM     O313973   4.715   4.836   6.506  0.2205  0.7630 -0.2742
  130OSM    HO313974   4.678   4.783   6.435  1.3253 -0.9913  0.4024
  130OSM    C4S13975   4.669   4.776   6.738 -0.5128 -0.1989 -0.6552
  130OSM    H4S13976   4.623   4.833   6.820  1.6757 -1.3515  1.4688
  130OSM    C5S13977   4.780   4.696   6.762  1.1679  0.1667  0.0441
  130OSM    H5S13978   4.825   4.653   6.671 -1.2477 -3.2456  0.2753
  130OSM    C6S13979   4.841   4.658   6.893 -0.9636 -0.4430  0.0779
  130OSM    H6S13980   4.944   4.699   6.901 -1.1440 -0.0653  0.5373
  130OSM    H6T13981   4.857   4.549   6.901  0.8396 -0.2588 -0.6520
  130OSM    C7S13982   4.765   4.700   7.012 -0.1737 -0.3466 -0.1583
  130OSM    H7S13983   4.659   4.670   7.018  0.0906 -1.1502  0.6655
  130OSM    H7T13984   4.757   4.808   6.985 -0.6332 -0.9641 -2.7945
  130OSM    C8S13985   4.827   4.687   7.151  0.1102 -0.8033 -0.0188
  130OSM    H8S13986   4.928   4.733   7.146  0.5777 -1.8450 -0.4547
  130OSM    H8T13987   4.842   4.582   7.183  2.4123 -0.4197  0.2845
  130OSM    C9S13988   4.741   4.762   7.255 -0.1714 -0.0234  0.2349
  130OSM    H9S13989   4.635   4.748   7.224 -0.4845 -0.4190  1.4179
  130OSM    H9T13990   4.762   4.871   7.260 -1.2984  0.1814  1.1657
  130OSM   C10S13991   4.763   4.717   7.398 -0.2509  0.0413 -0.4309
  130OSM   H10S13992   4.865   4.747   7.431 -1.2737  1.2982  1.8580
  130OSM   H10T13993   4.767   4.607   7.389  2.6179  0.2570 -3.4875
  130OSM   C11S13994   4.657   4.773   7.486  0.2741 -0.7443  0.0677
  130OSM   H11S13995   4.557   4.766   7.438 -0.3789  1.1762  1.0436
  130OSM   H11T13996   4.676   4.880   7.507 -1.4086 -0.7858  2.1262
  130OSM   C12S13997   4.644   4.714   7.627 -0.5379  0.0730 -0.4794
  130OSM   H12S13998   4.627   4.605   7.613  0.2544  0.0042 -0.9301
  130OSM   H12T13999   4.551   4.752   7.675 -1.1142 -0.2788 -1.2967
  130OSM   C13S14000   4.768   4.743   7.705 -0.5038 -0.1290  0.6875
  130OSM   H13S14001   4.791   4.851   7.719  3.7781 -0.5744 -1.3598
  130OSM   H13T14002   4.856   4.710   7.647  0.5444  2.5729  0.6008
  130OSM   C14S14003   4.780   4.661   7.833  0.1345  0.4616 -0.3657
  130OSM   H14S14004   4.885   4.644   7.865  1.0795  0.9622 -2.9555
  130OSM   H14T14005   4.730   4.561   7.831  0.2255  0.4209 -2.0526
  130OSM   C15S14006   4.694   4.725   7.935 -0.3458 -0.3816 -0.5768
  130OSM   H15S14007   4.588   4.712   7.902 -0.1151 -0.4701 -1.2878
  130OSM   H15T14008   4.722   4.832   7.946 -1.0326 -0.1551 -0.9752
  130OSM   C16S14009   4.701   4.656   8.075 -0.2229  0.2339  0.1466
  130OSM   H16S14010   4.784   4.695   8.137 -0.4057  1.3238 -0.2771
  130OSM   H16T14011   4.698   4.545   8.069  2.2121  0.1232 -0.0436
  130OSM   C17S14012   4.575   4.692   8.160  0.3829  0.2928  0.2110
  130OSM   H17S14013   4.490   4.667   8.094  2.0286  1.5329 -2.5587
  130OSM   H17T14014   4.595   4.802   8.169 -0.2427  0.8113 -3.4228
  130OSM   C18S14015   4.576   4.620   8.295 -0.0737  0.1271  0.1719
  130OSM   H18S14016   4.528   4.521   8.281  0.0386  0.4084 -2.7681
  130OSM   H18T14017   4.520   4.667   8.378 -0.5944 -0.2611  0.0396
  130OSM   H18U14018   4.683   4.604   8.323  1.2798  0.7701 -3.9109
  130OSM    C1F14019   4.300   4.612   6.669  0.4785 -0.2470 -0.6481
  130OSM     OF14020   4.306   4.525   6.584 -0.2813 -0.5189 -0.2282
  130OSM    C2F14021   4.192   4.612   6.765  0.0049  0.2811  0.0091
  130OSM    H2F14022   4.100   4.581   6.710  0.3567  0.2343 -0.5650
  130OSM    H2G14023   4.169   4.710   6.812 -0.5364 -0.9801  2.5403
  130OSM    C3F14024   4.226   4.515   6.878  0.7838 -0.4701 -0.2773
  130OSM    H3F14025   4.324   4.546   6.922  0.9936  1.6022 -2.0498
  130OSM    H3G14026   4.230   4.408   6.847  2.9442 -0.6808  0.4902
  130OSM    C4F14027   4.117   4.519   6.983 -0.5258 -0.0036  0.2871
  130OSM    H4F14028   4.027   4.467   6.943 -0.7040 -0.1930  0.9264
  130OSM    H4G14029   4.095   4.627   7.001  1.1722 -0.0033  2.8044
  130OSM    C5F14030   4.157   4.450   7.117  0.0002  0.0430  0.1910
  130OSM    H5F14031   4.235   4.512   7.166  1.0670 -0.8685 -0.3164
  130OSM    H5G14032   4.191   4.347   7.091 -1.8861 -0.6497  0.3009
  130OSM    C6F14033   4.038   4.428   7.206 -0.0560  0.3266 -0.4141
  130OSM    H6F14034   3.979   4.348   7.158  0.5570 -0.7084  0.5193
  130OSM    H6G14035   3.971   4.517   7.207  2.1425  2.1051 -1.2445
  130OSM    C7F14036   4.069   4.407   7.353 -0.5422 -0.1154 -0.3244
  130OSM    H7F14037   4.135   4.490   7.387 -1.5407  0.6518 -0.1820
  130OSM    H7G14038   4.127   4.313   7.352 -0.1279  0.0917  1.4290
  130OSM    C8F14039   3.942   4.394   7.445 -0.6995  0.6314  0.1822
  130OSM    H8F14040   3.961   4.326   7.531 -1.1015 -0.8230 -0.8377
  130OSM    H8G14041   3.857   4.360   7.381  0.0898  0.5358 -0.8476
  130OSM    C9F14042   3.903   4.530   7.483 -0.2663 -0.2016  0.1616
  130OSM    H9F14043   3.868   4.597   7.404 -1.2209  0.6174  1.2459
  130OSM   C10F14044   3.890   4.576   7.603 -0.1690  0.0175  0.5103
  130OSM   H10F14045   3.858   4.681   7.613 -2.6187 -0.1132 -3.6763
  130OSM   C11F14046   3.907   4.500   7.734  0.1246 -0.3938 -0.1636
  130OSM   H11F14047   4.002   4.540   7.775 -0.2534  1.8509 -1.3055
  130OSM   H11G14048   3.924   4.390   7.726 -1.2054 -0.5306 -1.5738
  130OSM   C12F14049   3.797   4.523   7.837 -0.2344  0.2334  0.1345
  130OSM   H12F14050   3.784   4.433   7.900 -0.1208  0.6202  0.7161
  130OSM   H12G14051   3.698   4.537   7.789 -0.8855 -0.9319  1.0997
  130OSM   C13F14052   3.821   4.645   7.923 -0.5365  0.0084 -0.8786
  130OSM   H13F14053   3.725   4.678   7.969 -1.3711 -1.0045 -1.7926
  130OSM   H13G14054   3.856   4.734   7.867  1.2739  0.5075  0.9648
  130OSM   C14F14055   3.921   4.619   8.032 -0.1411  0.4837  0.1858
  130OSM   H14F14056   4.023   4.582   8.005 -0.3630 -2.0494  2.4500
  130OSM   H14G14057   3.874   4.540   8.095  0.7809 -2.0311 -2.1033
  130OSM   C15F14058   3.953   4.742   8.119 -0.7907 -0.2026  0.9855
  130OSM   H15F14059   3.971   4.830   8.053  0.0505  0.0402  1.5236
  130OSM   H15G14060   4.036   4.719   8.190 -1.3848  0.7898  2.0297
  130OSM   C16F14061   3.840   4.792   8.205 -0.0163  0.4031  0.0842
  130OSM   H16F14062   3.799   4.703   8.259 -3.9209  1.2761 -1.0908
  130OSM   H16G14063   3.756   4.836   8.147 -3.1782 -0.3585  3.6293
  130OSM   C17F14064   3.871   4.902   8.298 -0.0351 -0.5496  0.3470
  130OSM   H17F14065   3.944   4.874   8.377 -0.0842 -0.8077  0.3019
  130OSM   H17G14066   3.785   4.924   8.364  0.1812 -0.9576  0.7683
  130OSM   C18F14067   3.923   5.028   8.234  0.1908 -0.4147  0.2554
  130OSM   H18F14068   3.856   5.067   8.155  1.3457 -0.3337 -0.7114
  130OSM   H18G14069   4.022   5.000   8.193 -0.2606  0.5694 -1.6184
  130OSM   H18H14070   3.944   5.107   8.310  0.6974 -1.6080  1.3977
  131OSM      N14071   2.138   2.437   5.776  0.2531 -0.5899  0.1074
  131OSM    C1514072   2.232   2.544   5.823  0.0812 -0.2037  0.0073
  131OSM   H15A14073   2.247   2.625   5.753 -0.0443 -0.2501 -0.0761
  131OSM   H15B14074   2.328   2.497   5.836  0.0868 -0.2629 -0.2393
  131OSM   H15C14075   2.194   2.575   5.919 -0.0138 -1.1789  0.2926
  131OSM    C1414076   2.028   2.502   5.704  0.4042  0.5565 -0.3045
  131OSM   H14A14077   2.063   2.568   5.627  0.6679 -1.1875 -1.7504
  131OSM   H14B14078   1.955   2.555   5.764  0.0109 -1.3889  1.0471
  131OSM   H14C14079   1.956   2.436   5.656 -0.9897  1.5324  0.3806
  131OSM    C1314080   2.210   2.344   5.689  0.2511 -0.1175 -0.5516
  131OSM   H13A14081   2.142   2.273   5.643  0.6990 -0.1962 -1.0917
  131OSM   H13B14082   2.281   2.287   5.746 -0.5451  0.0004  0.5991
  131OSM   H13C14083   2.274   2.395   5.620  2.5185 -0.1568  1.3908
  131OSM    C1214084   2.089   2.358   5.901  0.0389  0.1425  0.9425
  131OSM   H12A14085   2.029   2.279   5.857  0.9830  0.1666 -0.4518
  131OSM   H12B14086   2.025   2.419   5.963 -0.3920 -1.7262  2.4470
  131OSM    C1114087   2.190   2.301   6.007  0.0257  0.0576 -0.0002
  131OSM   H11A14088   2.131   2.263   6.093  0.7712  0.8178  0.8736
  131OSM   H11B14089   2.250   2.384   6.050 -0.4691  1.1042 -1.2650
  131OSM      P14090   2.283   2.055   5.988  0.1733 -0.1050  0.0765
  131OSM    O1314091   2.151   1.999   5.936  0.6158 -0.0736 -0.4744
  131OSM    O1414092   2.407   1.983   5.944  0.4551  0.2066 -0.1304
  131OSM    O1114093   2.274   2.047   6.144  0.0569 -0.2160 -0.6422
  131OSM    O1214094   2.283   2.209   5.954  0.0066 -0.1139 -0.4295
  131OSM    C1S14095   2.383   2.110   6.222  0.4233 -0.6231  0.1220
  131OSM    H1S14096   2.366   2.217   6.197  1.0322 -0.8159 -1.1869
  131OSM    H1T14097   2.485   2.084   6.187 -0.2222 -1.1919 -1.4510
  131OSM     NF14098   2.503   2.152   6.436  0.1153 -0.6158 -0.4016
  131OSM    HNF14099   2.567   2.093   6.485  0.9545  0.0377 -0.7045
  131OSM    C2S14100   2.380   2.086   6.373 -0.3628  0.2269 -0.3558
  131OSM    H2S14101   2.285   2.132   6.407 -0.9732 -0.6085 -0.9183
  131OSM    C3S14102   2.380   1.932   6.403 -0.1726 -0.3823  0.0031
  131OSM    H3S14103   2.478   1.892   6.367  1.0217  0.7578  1.8073
  131OSM     O314104   2.286   1.852   6.335 -0.2685  0.2903 -0.4384
  131OSM    HO314105   2.250   1.899   6.260 -0.4828 -2.5772 -2.2727
  131OSM    C4S14106   2.366   1.908   6.551 -0.8542 -0.2716  0.0843
  131OSM    H4S14107   2.459   1.877   6.600 -0.2641  0.5404 -0.4827
  131OSM    C5S14108   2.258   1.907   6.624 -0.6578  0.1154 -0.2547
  131OSM    H5S14109   2.156   1.907   6.584 -1.0411 -0.3297  0.6868
  131OSM    C6S14110   2.268   1.885   6.779  0.2490  0.1370  0.4783
  131OSM    H6S14111   2.165   1.864   6.816  0.1361 -0.6514 -0.2576
  131OSM    H6T14112   2.303   1.978   6.828 -0.0848 -0.0470  1.0822
  131OSM    C7S14113   2.375   1.780   6.829  0.5351  0.1623 -0.6803
  131OSM    H7S14114   2.476   1.791   6.786 -0.0581 -2.7140 -3.1477
  131OSM    H7T14115   2.346   1.682   6.786 -0.5519  0.4550 -0.6508
  131OSM    C8S14116   2.396   1.765   6.981  0.4054  0.3298 -0.0397
  131OSM    H8S14117   2.454   1.844   7.032 -1.6504  0.3447  2.4588
  131OSM    H8T14118   2.458   1.673   6.990 -2.0737 -1.5898 -1.1477
  131OSM    C9S14119   2.265   1.734   7.053 -0.2315  0.6562 -0.0207
  131OSM    H9S14120   2.239   1.632   7.020  0.7152  0.5653 -0.5226
  131OSM    H9T14121   2.184   1.801   7.015  0.7177  1.8447 -0.0161
  131OSM   C10S14122   2.276   1.756   7.204 -0.1198 -0.7908  0.5834
  131OSM   H10S14123   2.311   1.860   7.220  2.4383 -1.6351  1.0409
  131OSM   H10T14124   2.346   1.688   7.258 -2.7574 -2.2902  2.2795
  131OSM   C11S14125   2.135   1.731   7.268 -0.0358  0.3424  0.0423
  131OSM   H11S14126   2.102   1.626   7.255 -1.6776  0.9407 -0.8867
  131OSM   H11T14127   2.066   1.794   7.208  0.7886  2.5959  1.3508
  131OSM   C12S14128   2.106   1.771   7.413  0.8113 -0.4337 -1.4585
  131OSM   H12S14129   2.162   1.704   7.482 -0.4435  0.5809  0.6528
  131OSM   H12T14130   1.996   1.759   7.428  0.6630  1.4517 -0.7256
  131OSM   C13S14131   2.129   1.917   7.455 -0.7684 -0.0500  0.6491
  131OSM   H13S14132   2.067   1.983   7.390  2.2023  1.5979 -0.7476
  131OSM   H13T14133   2.233   1.952   7.435 -0.8466 -0.0661  0.1929
  131OSM   C14S14134   2.097   1.947   7.602 -0.0193 -0.5103 -0.1613
  131OSM   H14S14135   2.009   1.890   7.639 -1.0204  2.1256  1.9572
  131OSM   H14T14136   2.061   2.052   7.607  0.8849 -0.1302 -1.2214
  131OSM   C15S14137   2.214   1.931   7.707  0.2538 -0.0145  0.2375
  131OSM   H15S14138   2.289   2.008   7.677  0.8536 -0.8013 -0.3494
  131OSM   H15T14139   2.263   1.832   7.691 -0.5191 -0.1605 -1.4633
  131OSM   C16S14140   2.156   1.946   7.846  0.6207  0.1905  0.0268
  131OSM   H16S14141   2.089   2.035   7.843  1.1690  0.5994 -0.3051
  131OSM   H16T14142   2.243   1.960   7.914  0.6908 -0.1453  0.0077
  131OSM   C17S14143   2.082   1.832   7.908  0.8307  0.4826  0.2262
  131OSM   H17S14144   2.151   1.745   7.901 -0.4988 -0.4492 -2.7179
  131OSM   H17T14145   1.987   1.805   7.856  1.0166 -0.3230  0.2902
  131OSM   C18S14146   2.046   1.858   8.058  0.4148 -0.0702  0.7993
  131OSM   H18S14147   2.136   1.872   8.121 -0.7974  2.4926  2.1293
  131OSM   H18T14148   1.990   1.768   8.092 -0.8972  0.3057 -0.2762
  131OSM   H18U14149   1.981   1.948   8.065  1.3745  0.8703 -1.3384
  131OSM    C1F14150   2.516   2.283   6.424 -0.0223 -0.2195  0.5136
  131OSM     OF14151   2.417   2.352   6.402  0.0960  0.1884  0.0375
  131OSM    C2F14152   2.652   2.337   6.444  0.5066  0.0844 -0.2608
  131OSM    H2F14153   2.692   2.360   6.343  0.7102 -1.5229 -0.5734
  131OSM    H2G14154   2.714   2.250   6.475 -0.3832  0.1358  1.7949
  131OSM    C3F14155   2.649   2.440   6.543  0.5848  0.0322 -0.2439
  131OSM    H3F14156   2.604   2.538   6.514  2.0458  0.8497  0.1097
  131OSM    H3G14157   2.756   2.461   6.563  0.1954  0.6280  1.4532
  131OSM    C4F14158   2.596   2.400   6.684 -0.1750 -0.2569 -0.0075
  131OSM    H4F14159   2.487   2.383   6.672  0.1417 -1.0857 -2.2793
  131OSM    H4G14160   2.621   2.493   6.739 -2.4777 -0.0333  0.7941
  131OSM    C5F14161   2.683   2.294   6.748 -0.4169  0.6098 -0.3578
  131OSM    H5F14162   2.788   2.330   6.749 -0.6760  1.3963  0.9114
  131OSM    H5G14163   2.670   2.199   6.691  0.0715  0.0082  0.5098
  131OSM    C6F14164   2.638   2.269   6.885  0.6544 -0.1227  0.1196
  131OSM    H6F14165   2.618   2.360   6.945  0.8465 -0.3486  0.5308
  131OSM    H6G14166   2.714   2.227   6.955 -0.1359 -1.2193  0.3395
  131OSM    C7F14167   2.521   2.167   6.890  0.2506 -0.2911  0.2732
  131OSM    H7F14168   2.567   2.068   6.868  1.7916  0.3939  0.2457
  131OSM    H7G14169   2.447   2.189   6.810  0.1004 -1.3323  0.1059
  131OSM    C8F14170   2.444   2.166   7.026  0.1222  0.6381  0.2575
  131OSM    H8F14171   2.356   2.098   7.022  1.0103 -0.6153  1.0558
  131OSM    H8G14172   2.414   2.272   7.040 -0.5176  0.1542  3.4051
  131OSM    C9F14173   2.523   2.124   7.137  0.0885  0.3438  0.5772
  131OSM    H9F14174   2.561   2.022   7.121  1.9251  1.3092 -1.7194
  131OSM   C10F14175   2.570   2.202   7.241 -0.3854 -0.2501  0.1388
  131OSM   H10F14176   2.614   2.149   7.327 -1.9176 -0.0497  1.0740
  131OSM   C11F14177   2.546   2.348   7.282 -0.4952  0.1818  0.2845
  131OSM   H11F14178   2.500   2.406   7.199  0.2541  0.0730 -0.2094
  131OSM   H11G14179   2.645   2.395   7.298 -0.0412 -0.3750 -0.7525
  131OSM   C12F14180   2.465   2.368   7.418 -1.0027 -0.4789 -0.2632
  131OSM   H12F14181   2.374   2.305   7.418 -0.7950 -0.7859 -0.4623
  131OSM   H12G14182   2.438   2.475   7.425  2.5007  0.4516  1.5568
  131OSM   C13F14183   2.547   2.331   7.542  0.1475  0.1301  0.4645
  131OSM   H13F14184   2.631   2.403   7.545  0.7796 -0.4025 -2.0712
  131OSM   H13G14185   2.586   2.230   7.516 -0.1711  0.3369 -0.8611
  131OSM   C14F14186   2.469   2.334   7.673 -0.6704 -0.2682 -0.6606
  131OSM   H14F14187   2.391   2.254   7.672  0.0634 -1.0024 -1.6804
  131OSM   H14G14188   2.416   2.431   7.671  1.3106  0.9036 -3.8517
  131OSM   C15F14189   2.551   2.303   7.800 -0.3748  0.0252 -0.7498
  131OSM   H15F14190   2.636   2.373   7.794 -1.0228  1.1293  1.7508
  131OSM   H15G14191   2.601   2.204   7.802 -1.0637 -0.3213  0.3460
  131OSM   C16F14192   2.470   2.332   7.928 -0.1659  0.3965 -0.5945
  131OSM   H16F14193   2.393   2.411   7.915  0.1697  0.3798 -3.3793
  131OSM   H16G14194   2.532   2.358   8.016 -2.7056  0.0800  1.4181
  131OSM   C17F14195   2.404   2.205   7.971 -1.0686  0.0228  0.1785
  131OSM   H17F14196   2.490   2.138   7.992  1.8627  2.8070 -1.9290
  131OSM   H17G14197   2.338   2.159   7.893 -2.6506  0.6839  1.0797
  131OSM   C18F14198   2.321   2.241   8.093  0.2383  0.1308 -0.0184
  131OSM   H18F14199   2.261   2.162   8.143  0.3381  0.8002  1.2195
  131OSM   H18G14200   2.252   2.324   8.066  0.6648  0.4935 -0.0249
  131OSM   H18H14201   2.390   2.280   8.172  0.9357 -0.9972 -0.0560
  132OSM      N14202   6.066   3.019   6.142  0.5259  0.1076  0.0543
  132OSM    C1514203   6.074   3.059   5.995  0.7916 -0.2013 -0.0284
  132OSM   H15A14204   5.975   3.072   5.955  1.3748 -1.6272 -2.1113
  132OSM   H15B14205   6.134   2.989   5.939 -0.0841 -0.6359 -0.4347
  132OSM   H15C14206   6.120   3.157   5.985  2.8444 -1.0422  0.7219
  132OSM    C1414207   6.008   2.890   6.151  0.3221 -0.6472  0.3561
  132OSM   H14A14208   5.934   2.876   6.074  0.6885  0.2252 -0.1661
  132OSM   H14B14209   5.967   2.875   6.250  0.0676 -1.4149  0.1421
  132OSM   H14C14210   6.086   2.818   6.132  0.4678 -0.2515 -0.5638
  132OSM    C1314211   6.206   3.008   6.183  0.7588 -0.2875 -0.0292
  132OSM   H13A14212   6.254   3.102   6.207  0.0868 -0.5109  2.4474
  132OSM   H13B14213   6.269   2.966   6.105 -0.1303 -0.0042 -0.9106
  132OSM   H13C14214   6.220   2.955   6.276 -3.2152 -1.0322  0.2974
  132OSM    C1214215   5.994   3.130   6.221 -0.3183 -0.0505  0.7585
  132OSM   H12A14216   6.048   3.223   6.212 -0.4461 -0.0954 -0.7970
  132OSM   H12B14217   6.000   3.101   6.325  1.0824  0.8240  0.9427
  132OSM    C1114218   5.848   3.162   6.186  1.3997 -0.2381  0.0398
  132OSM   H11A14219   5.841   3.225   6.095 -0.3099  0.2557  0.4790
  132OSM   H11B14220   5.809   3.229   6.266 -0.8544  1.3609 -2.2568
  132OSM      P14221   5.679   2.976   6.287 -0.0238 -0.1860 -0.0347
  132OSM    O1314222   5.546   3.041   6.286  0.0761 -0.4589 -0.1215
  132OSM    O1414223   5.680   2.831   6.266  0.5400  0.0766  0.9540
  132OSM    O1114224   5.753   2.995   6.416 -0.0522 -0.6103  0.2667
  132OSM    O1214225   5.764   3.045   6.170 -0.4482 -0.0257 -0.0377
  132OSM    C1S14226   5.713   3.079   6.526 -0.2333  0.8458  0.0856
  132OSM    H1S14227   5.603   3.063   6.538 -0.3460 -0.8763 -2.3013
  132OSM    H1T14228   5.713   3.186   6.496 -0.2474  1.7119  2.9001
  132OSM     NF14229   5.756   3.131   6.761  0.2700 -0.4112 -0.4186
  132OSM    HNF14230   5.808   3.213   6.783 -0.2869 -0.4133  0.9480
  132OSM    C2S14231   5.803   3.055   6.649 -0.4460  0.3507  0.6831
  132OSM    H2S14232   5.800   2.950   6.683  0.3696  0.3464  0.7589
  132OSM    C3S14233   5.949   3.082   6.609  0.1250 -0.1686 -0.7346
  132OSM    H3S14234   5.953   3.181   6.559  0.1287  0.0166 -0.3740
  132OSM     O314235   6.014   2.991   6.515 -0.2538 -0.2092 -0.2098
  132OSM    HO314236   5.940   2.970   6.458  0.9108 -1.4083 -1.3516
  132OSM    C4S14237   6.036   3.072   6.735  0.1850 -0.3517 -0.8198
  132OSM    H4S14238   6.066   2.969   6.759 -2.8062 -1.6234 -2.0162
  132OSM    C5S14239   6.072   3.172   6.815 -0.0001 -1.0021 -0.1729
  132OSM    H5S14240   6.047   3.275   6.784  0.6006 -0.8767 -0.2571
  132OSM    C6S14241   6.166   3.163   6.926  1.3715  0.6295 -0.2427
  132OSM    H6S14242   6.098   3.154   7.014 -0.5931 -0.9877 -1.8378
  132OSM    H6T14243   6.228   3.255   6.935  3.5258 -0.9287  2.9932
  132OSM    C7S14244   6.264   3.045   6.943  0.2905  0.6791  0.0035
  132OSM    H7S14245   6.308   3.029   6.843  0.1335 -4.3723  0.4607
  132OSM    H7T14246   6.199   2.955   6.950 -0.0545  1.0222  1.7643
  132OSM    C8S14247   6.377   3.055   7.044 -0.1437  0.4076  0.1688
  132OSM    H8S14248   6.454   3.128   7.013 -0.5715  0.7610 -0.0782
  132OSM    H8T14249   6.426   2.956   7.036 -3.7686 -1.6550  1.0795
  132OSM    C9S14250   6.331   3.079   7.187 -0.1804 -0.0202  0.1621
  132OSM    H9S14251   6.240   3.019   7.203 -0.7669  0.7239 -0.3221
  132OSM    H9T14252   6.296   3.184   7.195 -1.8975 -0.3319 -2.3044
  132OSM   C10S14253   6.424   3.056   7.302  0.8559 -0.3110  0.1344
  132OSM   H10S14254   6.526   3.097   7.285 -0.6765  3.6658 -0.6341
  132OSM   H10T14255   6.427   2.951   7.339  0.5465 -0.0747  0.8619
  132OSM   C11S14256   6.377   3.128   7.437  0.8986  0.0514 -0.1604
  132OSM   H11S14257   6.273   3.100   7.462  0.9836  0.9676  1.3537
  132OSM   H11T14258   6.374   3.237   7.412  0.3136  0.3990  1.3349
  132OSM   C12S14259   6.471   3.097   7.551  0.3447  0.4733 -0.0372
  132OSM   H12S14260   6.561   3.155   7.520  0.2564  1.1865  0.9939
  132OSM   H12T14261   6.499   2.991   7.570  0.2063  0.0816 -1.8390
  132OSM   C13S14262   6.427   3.160   7.683  0.3986  0.3491  0.3562
  132OSM   H13S14263   6.419   3.268   7.659  0.6420  0.1383 -0.7353
  132OSM   H13T14264   6.506   3.141   7.759  0.8947 -0.0911 -0.2541
  132OSM   C14S14265   6.311   3.100   7.754 -0.4672  0.3208 -0.9774
  132OSM   H14S14266   6.334   2.997   7.789 -0.7830  0.3363 -0.7106
  132OSM   H14T14267   6.220   3.099   7.690 -0.2972  1.0853 -1.2439
  132OSM   C15S14268   6.281   3.180   7.887 -0.0821  0.5761 -0.3491
  132OSM   H15S14269   6.274   3.285   7.853 -0.3853  1.6105  2.6631
  132OSM   H15T14270   6.361   3.174   7.964 -1.9809  1.6397  1.8332
  132OSM   C16S14271   6.153   3.130   7.950 -0.0529  0.1024 -1.1368
  132OSM   H16S14272   6.164   3.022   7.971 -1.2870  0.1701  0.0115
  132OSM   H16T14273   6.070   3.132   7.876 -1.5658 -1.0212  0.4464
  132OSM   C17S14274   6.115   3.209   8.077 -0.4100  0.6712  0.0739
  132OSM   H17S14275   6.110   3.313   8.037 -1.1651  0.2936 -0.8653
  132OSM   H17T14276   6.192   3.202   8.156 -2.6441 -1.3156  2.2291
  132OSM   C18S14277   5.976   3.174   8.140  0.1249  1.4234  0.3244
  132OSM   H18S14278   5.894   3.172   8.065 -2.6775 -3.0654  3.0029
  132OSM   H18T14279   5.956   3.246   8.221  0.4947 -0.3673  2.0906
  132OSM   H18U14280   5.966   3.072   8.183 -1.7054  1.3046 -0.2753
  132OSM    C1F14281   5.640   3.105   6.827  0.0058 -0.1372  0.2523
  132OSM     OF14282   5.578   3.002   6.801 -0.9189 -0.3013  0.0143
  132OSM    C2F14283   5.593   3.220   6.917 -0.3526  0.7534  0.9692
  132OSM    H2F14284   5.552   3.297   6.849  1.1579 -0.7189 -1.7490
  132OSM    H2G14285   5.676   3.267   6.972 -1.5581  1.4233  2.2918
  132OSM    C3F14286   5.509   3.160   7.025  0.4408  0.2685 -0.5775
  132OSM    H3F14287   5.565   3.074   7.066 -1.4650 -0.7171  0.0982
  132OSM    H3G14288   5.409   3.130   6.988  1.0473 -0.0713 -2.0032
  132OSM    C4F14289   5.492   3.254   7.142 -0.0323 -0.2458  0.0884
  132OSM    H4F14290   5.417   3.327   7.106 -0.4094 -0.6657  0.0050
  132OSM    H4G14291   5.587   3.301   7.173 -0.0619 -0.3330  0.3163
  132OSM    C5F14292   5.442   3.176   7.263 -0.1174 -0.2786 -0.0796
  132OSM    H5F14293   5.506   3.088   7.286 -0.1501 -0.3663 -0.3264
  132OSM    H5G14294   5.351   3.120   7.232  1.3204 -2.1520 -1.1541
  132OSM    C6F14295   5.441   3.255   7.399 -0.1357  0.8646 -0.6090
  132OSM    H6F14296   5.369   3.338   7.384  0.7348  1.4991 -1.4186
  132OSM    H6G14297   5.538   3.309   7.403  0.0943  0.3642  0.8949
  132OSM    C7F14298   5.426   3.181   7.529 -0.3524 -0.0892  0.0335
  132OSM    H7F14299   5.497   3.096   7.534  0.0852  0.2696  0.0467
  132OSM    H7G14300   5.327   3.132   7.533 -1.5523  2.2620  0.8001
  132OSM    C8F14301   5.444   3.263   7.658 -0.5537  0.2440 -0.3449
  132OSM    H8F14302   5.360   3.335   7.674 -0.8634 -0.1885 -0.0112
  132OSM    H8G14303   5.542   3.314   7.669 -0.9097  0.8568  0.0964
  132OSM    C9F14304   5.430   3.171   7.772  0.2075 -0.8092 -0.0795
  132OSM    H9F14305   5.329   3.131   7.789 -1.0476  2.3170  0.4779
  132OSM   C10F14306   5.522   3.136   7.866  0.0847  0.6148 -0.1538
  132OSM   H10F14307   5.488   3.071   7.947  2.4894 -1.3131 -0.5919
  132OSM   C11F14308   5.655   3.197   7.882  0.1099 -0.0118  0.5834
  132OSM   H11F14309   5.659   3.229   7.988 -1.6875  2.3779  0.0281
  132OSM   H11G14310   5.678   3.291   7.826  1.1829  0.2255  1.3985
  132OSM   C12F14311   5.772   3.095   7.834  0.6012 -0.2026 -0.1574
  132OSM   H12F14312   5.754   3.001   7.890 -1.3212  0.8614  1.0949
  132OSM   H12G14313   5.870   3.131   7.872  0.3898  2.2072 -1.6393
  132OSM   C13F14314   5.767   3.062   7.689 -0.1867  0.5292  0.5044
  132OSM   H13F14315   5.761   3.164   7.645  0.9130  0.6535  0.6079
  132OSM   H13G14316   5.674   3.005   7.670  0.0731  0.4644 -0.6952
  132OSM   C14F14317   5.896   2.995   7.635  0.1468  0.3809 -0.5568
  132OSM   H14F14318   5.909   2.894   7.678  0.2080  0.7966  0.4302
  132OSM   H14G14319   5.979   3.054   7.680  0.2690 -1.7142  2.2122
  132OSM   C15F14320   5.913   3.013   7.488  0.9033 -1.0460  0.2313
  132OSM   H15F14321   6.017   3.031   7.455  0.2193 -1.0723 -2.1373
  132OSM   H15G14322   5.846   3.100   7.468 -0.2547 -1.7328  1.0341
  132OSM   C16F14323   5.864   2.896   7.413  0.4377 -0.4062  0.5665
  132OSM   H16F14324   5.754   2.906   7.408  0.5396  0.1197 -2.3406
  132OSM   H16G14325   5.886   2.795   7.455 -2.9622 -1.4718  0.1089
  132OSM   C17F14326   5.927   2.898   7.267 -0.1072  0.4675 -0.0674
  132OSM   H17F14327   5.909   2.807   7.205 -0.7213  2.4454 -2.9769
  132OSM   H17G14328   6.038   2.898   7.274  0.1238  0.3439 -2.6740
  132OSM   C18F14329   5.889   3.018   7.182 -0.3524  0.0387  0.0578
  132OSM   H18F14330   5.914   3.121   7.216 -2.9411  1.0376 -0.7877
  132OSM   H18G14331   5.779   3.023   7.171 -0.3999  4.4257  0.8891
  132OSM   H18H14332   5.942   3.015   7.084  1.6194  0.1577  1.0720
  133OSM      N14333   0.039   2.963   5.939 -0.4960 -0.3388 -0.1971
  133OSM    C1514334   0.104   2.826   5.955  0.4132 -0.5254  0.0978
  133OSM   H15A14335   0.154   2.806   5.861 -0.4880 -2.3100 -0.0385
  133OSM   H15B14336   0.035   2.743   5.960 -0.4139 -0.0574 -2.1612
  133OSM   H15C14337   0.175   2.826   6.036  0.6862 -2.4902 -0.0948
  133OSM    C1414338  -0.034   2.961   5.815  0.3484  0.2279 -0.1353
  133OSM   H14A14339  -0.120   2.896   5.819  0.9152 -0.4929  2.1467
  133OSM   H14B14340   0.033   2.927   5.737  0.7843 -1.1100  0.7832
  133OSM   H14C14341  -0.078   3.055   5.786 -1.2637 -0.3821  0.2194
  133OSM    C1314342  -0.048   2.987   6.060 -0.3507 -0.1142  0.2561
  133OSM   H13A14343  -0.098   3.083   6.054 -0.6019 -0.3411 -2.1059
  133OSM   H13B14344  -0.000   2.975   6.156 -1.0232 -2.4311  0.3578
  133OSM   H13C14345  -0.128   2.915   6.054 -1.1896  0.8592 -0.8015
  133OSM    C1214346   0.147   3.068   5.938 -0.1399  0.5455  0.0480
  133OSM   H12A14347   0.229   3.042   5.871 -1.6911 -1.5571 -1.1483
  133OSM   H12B14348   0.190   3.077   6.037 -0.5195  0.6956  0.1980
  133OSM    C1114349   0.109   3.215   5.908  0.5485 -0.4911 -0.3825
  133OSM   H11A14350   0.063   3.216   5.807  1.4888  1.1417 -0.8267
  133OSM   H11B14351   0.201   3.276   5.900  0.2753 -0.0708 -0.3359
  133OSM      P14352  -0.055   3.398   6.006 -0.2758  0.0965 -0.4522
  133OSM    O1314353   0.014   3.495   5.920 -0.2551 -0.0462  0.6918
  133OSM    O1414354  -0.197   3.364   5.968 -0.1903 -0.0096  0.7645
  133OSM    O1114355  -0.039   3.446   6.155 -0.1659 -0.2746  0.0603
  133OSM    O1214356   0.026   3.266   6.013 -0.1160  0.2644 -0.1339
  133OSM    C1S14357  -0.117   3.378   6.255 -0.2573  0.3883 -0.5758
  133OSM    H1S14358  -0.122   3.271   6.226 -0.5544  0.4387 -0.7126
  133OSM    H1T14359  -0.219   3.422   6.265 -0.3746  0.2066 -0.9652
  133OSM     NF14360  -0.120   3.303   6.494  0.8710 -0.6037  0.8189
  133OSM    HNF14361  -0.174   3.349   6.564  1.4573 -3.1438  3.0787
  133OSM    C2S14362  -0.048   3.389   6.395 -0.2119  0.0318  1.1099
  133OSM    H2S14363   0.053   3.348   6.372  0.5291  3.0840 -2.0342
  133OSM    C3S14364  -0.039   3.536   6.434  0.6531 -0.5643 -0.1402
  133OSM    H3S14365  -0.146   3.564   6.448  0.7684 -0.6515  0.9526
  133OSM     O314366  -0.017   3.637   6.334 -0.2858 -0.1105  0.1438
  133OSM    HO314367  -0.026   3.603   6.244 -3.7929  3.6078 -1.2578
  133OSM    C4S14368   0.040   3.541   6.558  0.1615  0.9440  0.0619
  133OSM    H4S14369  -0.029   3.503   6.635  0.8306  0.7043  0.5558
  133OSM    C5S14370   0.158   3.596   6.587 -0.6668 -0.4427 -0.4273
  133OSM    H5S14371   0.226   3.630   6.507  0.2064  3.8170  1.8568
  133OSM    C6S14372   0.217   3.594   6.730 -0.5258 -0.1670  0.5613
  133OSM    H6S14373   0.308   3.656   6.722 -0.0627 -0.9476 -0.4023
  133OSM    H6T14374   0.275   3.502   6.751 -1.1216 -0.5246  0.6866
  133OSM    C7S14375   0.133   3.639   6.846 -0.3697 -0.8606  0.1179
  133OSM    H7S14376   0.054   3.560   6.852 -0.2758 -1.0567 -1.0484
  133OSM    H7T14377   0.087   3.737   6.821  2.3547  0.3544 -0.4630
  133OSM    C8S14378   0.217   3.632   6.973 -0.1602  0.0288 -0.4279
  133OSM    H8S14379   0.311   3.685   6.944 -0.0324  1.1522  1.7997
  133OSM    H8T14380   0.228   3.525   6.998 -1.3287  0.0131  0.0794
  133OSM    C9S14381   0.160   3.708   7.092 -0.1837 -0.2186  0.2627
  133OSM    H9S14382   0.055   3.679   7.110 -0.8283  2.2787  1.0181
  133OSM    H9T14383   0.157   3.812   7.053  1.1763 -0.3632 -0.2848
  133OSM   C10S14384   0.238   3.692   7.227  0.2312  0.2734  0.5787
  133OSM   H10S14385   0.341   3.731   7.212  0.9391 -1.4890  0.6771
  133OSM   H10T14386   0.251   3.583   7.239 -0.3038  0.1387 -0.0433
  133OSM   C11S14387   0.158   3.745   7.344 -0.2874 -0.0465 -0.6447
  133OSM   H11S14388   0.055   3.705   7.336 -0.0793 -0.3388 -2.1315
  133OSM   H11T14389   0.157   3.856   7.345 -0.8986 -0.0266  0.8619
  133OSM   C12S14390   0.211   3.712   7.488 -0.2933  0.0649  0.5535
  133OSM   H12S14391   0.307   3.767   7.490 -0.8740  1.0941  1.0597
  133OSM   H12T14392   0.240   3.605   7.489  0.2380  0.1086 -1.9438
  133OSM   C13S14393   0.134   3.756   7.607 -0.9831  0.3686  0.0859
  133OSM   H13S14394   0.051   3.685   7.626 -1.3015  0.5051 -0.7830
  133OSM   H13T14395   0.083   3.851   7.580 -2.2330 -0.6368 -1.2684
  133OSM   C14S14396   0.217   3.750   7.734 -0.1529  0.1706 -0.6477
  133OSM   H14S14397   0.312   3.805   7.725 -0.4867  1.2252  1.5483
  133OSM   H14T14398   0.241   3.645   7.760  1.3855  0.2745 -1.5463
  133OSM   C15S14399   0.138   3.808   7.862 -0.1328  0.2660  0.9726
  133OSM   H15S14400   0.040   3.757   7.850 -0.7334  1.0715  2.2664
  133OSM   H15T14401   0.111   3.915   7.852 -3.0893 -0.5813 -1.7041
  133OSM   C16S14402   0.211   3.762   7.987 -0.3278 -0.8968  0.2331
  133OSM   H16S14403   0.321   3.770   7.974 -0.5250  0.5291 -0.7466
  133OSM   H16T14404   0.199   3.652   7.997  0.3216 -0.7521  3.6257
  133OSM   C17S14405   0.167   3.839   8.117 -0.1739  0.1937 -0.1792
  133OSM   H17S14406   0.067   3.801   8.145  0.8715 -2.3399  0.3668
  133OSM   H17T14407   0.161   3.949   8.101  2.1143  0.5606  1.0208
  133OSM   C18S14408   0.253   3.813   8.242  0.0241 -0.2365  0.2268
  133OSM   H18S14409   0.228   3.872   8.332  1.4206  0.7095  0.0303
  133OSM   H18T14410   0.363   3.828   8.238  0.1635 -0.9392  1.1557
  133OSM   H18U14411   0.237   3.705   8.261 -1.4901 -0.1334 -0.3306
  133OSM    C1F14412  -0.113   3.172   6.495 -0.3529 -0.1176  0.9771
  133OSM     OF14413  -0.047   3.117   6.410  0.0531  0.4760 -0.6453
  133OSM    C2F14414  -0.179   3.096   6.599  0.0794  0.0001 -0.0845
  133OSM    H2F14415  -0.213   3.001   6.554  0.1472  0.2579 -0.6981
  133OSM    H2G14416  -0.271   3.150   6.629  0.7062  0.0120  1.9821
  133OSM    C3F14417  -0.096   3.066   6.728 -0.2376  0.4723 -0.0109
  133OSM    H3F14418   0.011   3.041   6.710  0.0563  1.1064  0.7744
  133OSM    H3G14419  -0.138   2.971   6.768  0.7911 -0.7926 -1.7616
  133OSM    C4F14420  -0.092   3.174   6.840 -0.4777  0.3056  0.3536
  133OSM    H4F14421  -0.197   3.202   6.862 -1.4700 -1.7464 -1.4209
  133OSM    H4G14422  -0.043   3.265   6.798  1.1592 -0.1759  1.1363
  133OSM    C5F14423  -0.023   3.122   6.966  0.6081 -1.0964  0.1829
  133OSM    H5F14424   0.076   3.085   6.932  0.0357 -1.2199 -1.4521
  133OSM    H5G14425  -0.086   3.033   6.991  0.3092 -0.4016  2.0802
  133OSM    C6F14426  -0.003   3.221   7.085  0.1937 -1.1032  0.7491
  133OSM    H6F14427  -0.099   3.253   7.130 -0.3204  0.2141 -1.1590
  133OSM    H6G14428   0.051   3.313   7.055 -0.9418 -0.2062  1.3660
  133OSM    C7F14429   0.078   3.159   7.198 -0.1646  0.9067 -0.7922
  133OSM    H7F14430   0.151   3.088   7.155 -1.1393  1.4275 -3.5382
  133OSM    H7G14431   0.004   3.107   7.262  0.7631  1.9861  1.2285
  133OSM    C8F14432   0.154   3.259   7.272  0.3520 -0.0414 -0.2138
  133OSM    H8F14433   0.224   3.321   7.212 -1.6808  1.4803 -1.1431
  133OSM    H8G14434   0.202   3.187   7.341 -4.3405 -2.5169  0.8479
  133OSM    C9F14435   0.079   3.358   7.360 -0.3451 -0.2516 -0.3850
  133OSM    H9F14436   0.065   3.462   7.328 -1.0717  0.1756  1.2069
  133OSM   C10F14437   0.040   3.340   7.484 -0.0486  0.0770 -0.5072
  133OSM   H10F14438  -0.006   3.425   7.537  0.1585  1.2666 -2.1247
  133OSM   C11F14439   0.060   3.204   7.554  0.9917 -0.3676 -0.0172
  133OSM   H11F14440   0.161   3.162   7.534 -0.0368 -2.2377 -1.6187
  133OSM   H11G14441  -0.005   3.139   7.491  1.6528 -0.2407 -0.8469
  133OSM   C12F14442   0.014   3.204   7.703  0.0857  1.2115  0.6555
  133OSM   H12F14443   0.038   3.107   7.752  1.2031  0.3926 -1.4143
  133OSM   H12G14444  -0.094   3.225   7.717 -0.0067  0.9267  0.3733
  133OSM   C13F14445   0.089   3.304   7.791 -0.3518  0.0637  0.9153
  133OSM   H13F14446   0.065   3.409   7.762 -3.3322 -0.1847  2.2010
  133OSM   H13G14447   0.198   3.284   7.783 -0.6208 -1.4989  0.9545
  133OSM   C14F14448   0.045   3.289   7.938  0.3292  0.5423  0.3574
  133OSM   H14F14449   0.069   3.185   7.968  0.7421  0.2167 -1.0129
  133OSM   H14G14450  -0.065   3.300   7.936  0.0820 -1.1970 -2.3819
  133OSM   C15F14451   0.105   3.389   8.036 -0.2432  0.1805 -0.0568
  133OSM   H15F14452   0.044   3.481   8.025 -2.1392 -0.8351  1.3398
  133OSM   H15G14453   0.213   3.406   8.017  0.0626  0.1735  1.5237
  133OSM   C16F14454   0.079   3.354   8.184  0.0407 -0.4927 -0.0398
  133OSM   H16F14455  -0.032   3.343   8.187 -0.0463  0.3842  0.2423
  133OSM   H16G14456   0.093   3.442   8.250  0.4612 -1.3640  1.0603
  133OSM   C17F14457   0.147   3.225   8.239 -0.5215  0.3444 -0.6363
  133OSM   H17F14458   0.252   3.258   8.257 -0.6661  0.1933  0.5977
  133OSM   H17G14459   0.150   3.149   8.159  1.4183  1.1688 -1.4064
  133OSM   C18F14460   0.079   3.159   8.364 -0.2764 -0.1688  1.1563
  133OSM   H18F14461  -0.010   3.096   8.345  0.2594 -0.8909  1.0187
  133OSM   H18G14462   0.047   3.240   8.434  1.5835  0.4020  1.3908
  133OSM   H18H14463   0.153   3.103   8.424 -1.1726  0.0109  2.4805
  134OSM      N14464   5.678   5.382   6.511  0.2826  0.6350  0.2256
  134OSM    C1514465   5.773   5.478   6.456  0.2291 -0.2303  0.0337
  134OSM   H15A14466   5.866   5.472   6.510 -0.4604 -3.2249  1.0760
  134OSM   H15B14467   5.730   5.576   6.468 -0.0051 -0.3209 -0.0620
  134OSM   H15C14468   5.799   5.464   6.352  1.4893 -0.3786  0.3482
  134OSM    C1414469   5.653   5.426   6.654  0.1613  0.1754  0.2960
  134OSM   H14A14470   5.741   5.425   6.716  0.9180 -3.1719 -0.6341
  134OSM   H14B14471   5.569   5.378   6.701 -0.8794  1.4588 -0.1756
  134OSM   H14C14472   5.627   5.531   6.653 -0.2159  0.0823 -0.2759
  134OSM    C1314473   5.546   5.390   6.436  0.5113  0.0162  0.6440
  134OSM   H13A14474   5.501   5.486   6.458 -0.7027 -0.6945  1.4214
  134OSM   H13B14475   5.468   5.324   6.472 -1.0037  1.5598  0.2883
  134OSM   H13C14476   5.558   5.392   6.329  0.9690  2.4207  0.6979
  134OSM    C1214477   5.738   5.242   6.505  0.4022 -0.4013  0.2551
  134OSM   H12A14478   5.786   5.224   6.410  0.7074 -2.2698  0.7174
  134OSM   H12B14479   5.659   5.169   6.494  0.7947 -0.8338  0.2613
  134OSM    C1114480   5.831   5.200   6.619  0.3418 -0.1704  0.3841
  134OSM   H11A14481   5.854   5.093   6.602 -1.8692 -1.1708  3.0523
  134OSM   H11B14482   5.787   5.206   6.721  0.0717  0.3773  0.2385
  134OSM      P14483   6.083   5.230   6.541 -0.1015 -0.3346 -0.0078
  134OSM    O1314484   6.050   5.178   6.406 -0.2557 -0.1421  0.1348
  134OSM    O1414485   6.186   5.334   6.544  0.5657  0.6222 -0.0505
  134OSM    O1114486   6.135   5.117   6.637  0.0752  0.4358 -0.3432
  134OSM    O1214487   5.953   5.280   6.612  0.1489 -0.0242 -0.0107
  134OSM    C1S14488   6.110   5.110   6.780 -0.7505  0.1553  0.5885
  134OSM    H1S14489   6.053   5.193   6.827  0.3511 -0.3149  2.9199
  134OSM    H1T14490   6.209   5.109   6.831  0.2733  1.6346 -1.2172
  134OSM     NF14491   5.990   4.983   6.965  0.3175  0.4099  0.0745
  134OSM    HNF14492   6.014   4.909   7.027 -2.6600  0.1540  1.0698
  134OSM    C2S14493   6.015   4.988   6.821  0.0865  0.4139  0.9077
  134OSM    H2S14494   5.919   5.002   6.766 -1.2409 -2.2515  2.3263
  134OSM    C3S14495   6.075   4.854   6.771  0.2342  0.0059  0.0206
  134OSM    H3S14496   6.170   4.849   6.828 -0.4657  0.5027  1.2681
  134OSM     O314497   6.115   4.858   6.635  0.0447 -0.1440  0.3101
  134OSM    HO314498   6.116   4.951   6.612  1.4370  0.0703  1.1341
  134OSM    C4S14499   5.977   4.738   6.804 -0.1825 -0.6299 -0.3220
  134OSM    H4S14500   6.020   4.682   6.888 -0.1811  3.6773  2.9206
  134OSM    C5S14501   5.866   4.696   6.733 -0.3043 -0.0886 -0.1940
  134OSM    H5S14502   5.861   4.737   6.632 -0.7059  0.0454 -0.1204
  134OSM    C6S14503   5.785   4.571   6.767  0.6565  0.5621  0.1274
  134OSM    H6S14504   5.824   4.488   6.704 -3.4867 -0.7601 -0.9602
  134OSM    H6T14505   5.678   4.584   6.742  1.0630  1.5000 -1.2388
  134OSM    C7S14506   5.792   4.533   6.916 -0.0831  0.2645 -0.6461
  134OSM    H7S14507   5.766   4.613   6.989 -1.5557 -0.6746 -0.0778
  134OSM    H7T14508   5.898   4.504   6.926 -0.2621  0.1793  1.4679
  134OSM    C8S14509   5.725   4.398   6.941 -0.4085  1.0900 -0.3814
  134OSM    H8S14510   5.754   4.328   6.860  1.9448  0.0548  1.2429
  134OSM    H8T14511   5.614   4.403   6.946 -0.5375 -1.0875 -0.1562
  134OSM    C9S14512   5.776   4.333   7.072 -0.7815 -0.1068 -0.7912
  134OSM    H9S14513   5.783   4.414   7.148 -1.5334  0.9376 -1.8097
  134OSM    H9T14514   5.881   4.301   7.055  0.0869  2.8419 -1.5484
  134OSM   C10S14515   5.693   4.224   7.123 -0.1935  0.0514  0.5888
  134OSM   H10S14516   5.651   4.158   7.043 -0.4036  0.3621  0.4409
  134OSM   H10T14517   5.607   4.276   7.169 -0.1038  0.6195  0.1191
  134OSM   C11S14518   5.772   4.137   7.220  0.1721 -0.0047  0.2686
  134OSM   H11S14519   5.877   4.137   7.184  0.4598  2.3932  0.9483
  134OSM   H11T14520   5.733   4.033   7.225 -1.4535  0.4353 -1.8274
  134OSM   C12S14521   5.769   4.194   7.366 -0.3238 -0.5207 -0.1113
  134OSM   H12S14522   5.803   4.299   7.370 -3.7657  0.7574 -0.4441
  134OSM   H12T14523   5.833   4.131   7.431 -0.0637 -0.3260 -0.1804
  134OSM   C13S14524   5.625   4.181   7.428 -0.0679  0.1486 -0.7315
  134OSM   H13S14525   5.600   4.074   7.445 -0.1875  0.4876  1.5042
  134OSM   H13T14526   5.550   4.224   7.358 -2.0453 -1.3663  0.3494
  134OSM   C14S14527   5.617   4.250   7.567 -0.1454 -0.0439  0.5247
  134OSM   H14S14528   5.520   4.238   7.620 -0.0467 -1.9364  0.3215
  134OSM   H14T14529   5.630   4.360   7.553 -2.7640  0.3189  0.5512
  134OSM   C15S14530   5.722   4.193   7.660 -0.1268 -0.0109 -0.0009
  134OSM   H15S14531   5.821   4.244   7.651  0.0758 -0.4089 -0.0675
  134OSM   H15T14532   5.727   4.087   7.627  0.4491  0.2571 -0.8082
  134OSM   C16S14533   5.682   4.198   7.810  0.4081 -0.0976  0.0496
  134OSM   H16S14534   5.574   4.178   7.824 -0.2004  1.3270 -2.0711
  134OSM   H16T14535   5.683   4.309   7.822 -2.0227 -0.2628  2.7588
  134OSM   C17S14536   5.769   4.136   7.914  0.1458  0.7332 -0.3464
  134OSM   H17S14537   5.870   4.175   7.890  1.5456 -2.4518 -0.0971
  134OSM   H17T14538   5.775   4.027   7.895 -3.3740  0.3738 -0.1113
  134OSM   C18S14539   5.721   4.160   8.054 -0.9134  0.6516  0.2621
  134OSM   H18S14540   5.628   4.108   8.084 -0.1286  0.6054  2.8821
  134OSM   H18T14541   5.708   4.270   8.069 -0.4213  0.7130  0.2756
  134OSM   H18U14542   5.796   4.143   8.134 -0.2818  2.8820  0.2174
  134OSM    C1F14543   5.912   5.075   7.029 -0.1909  0.8563 -0.0748
  134OSM     OF14544   5.835   5.144   6.970 -0.1695 -0.5344  0.2035
  134OSM    C2F14545   5.934   5.087   7.173 -0.3038  0.3739 -0.1433
  134OSM    H2F14546   6.023   5.025   7.199  0.5445  1.4311 -0.4541
  134OSM    H2G14547   5.846   5.049   7.228 -0.1455  2.0776  1.3801
  134OSM    C3F14548   5.949   5.234   7.220  0.8770  0.7851  0.5138
  134OSM    H3F14549   5.849   5.280   7.211 -0.3449 -1.8694 -0.5963
  134OSM    H3G14550   6.030   5.277   7.157 -0.2069 -2.7972 -3.8686
  134OSM    C4F14551   5.999   5.241   7.364  0.1970  0.1626  0.5127
  134OSM    H4F14552   6.022   5.345   7.396  1.3437  0.3164 -0.6968
  134OSM    H4G14553   6.087   5.175   7.382  1.4768  1.0421 -1.9754
  134OSM    C5F14554   5.882   5.194   7.456  0.2994 -0.2630  0.4688
  134OSM    H5F14555   5.851   5.094   7.420 -0.4348  0.4767 -1.0738
  134OSM    H5G14556   5.797   5.265   7.445  1.2107  0.7666 -0.1436
  134OSM    C6F14557   5.938   5.207   7.601  0.0059  0.0014 -0.5102
  134OSM    H6F14558   5.982   5.306   7.624  0.8695  0.1843 -2.6714
  134OSM    H6G14559   6.025   5.139   7.585 -1.0605 -1.2340 -1.1939
  134OSM    C7F14560   5.839   5.160   7.707 -0.9376  0.3757 -0.3976
  134OSM    H7F14561   5.770   5.086   7.662  0.9232 -1.8577  0.1704
  134OSM    H7G14562   5.793   5.256   7.739  0.9994  0.8537  1.2156
  134OSM    C8F14563   5.919   5.103   7.828  0.6946  0.4525 -0.3360
  134OSM    H8F14564   5.945   5.184   7.900  3.1319 -0.7563  0.2651
  134OSM    H8G14565   6.019   5.060   7.808  0.5168 -0.5986  0.8518
  134OSM    C9F14566   5.839   4.998   7.895 -0.7095  0.5423  0.4045
  134OSM    H9F14567   5.811   4.920   7.823  4.1098  1.5273 -3.0550
  134OSM   C10F14568   5.806   4.981   8.021 -0.1975 -0.1703  0.0378
  134OSM   H10F14569   5.751   4.891   8.050  0.7006 -1.0942 -0.9948
  134OSM   C11F14570   5.839   5.080   8.130  0.6239  0.3732 -0.1882
  134OSM   H11F14571   5.769   5.167   8.129 -0.5504 -0.4200  2.5758
  134OSM   H11G14572   5.941   5.122   8.115  0.8064  0.4142  1.0707
  134OSM   C12F14573   5.826   5.015   8.266 -0.8688  0.3877  0.1031
  134OSM   H12F14574   5.727   4.967   8.281 -0.5086 -0.5828 -0.5697
  134OSM   H12G14575   5.830   5.110   8.324  0.1663  0.9493 -0.8337
  134OSM   C13F14576   5.952   4.926   8.282 -0.4858 -0.1039 -0.9701
  134OSM   H13F14577   6.041   4.982   8.318 -1.0941 -0.1687  0.6954
  134OSM   H13G14578   5.992   4.875   8.192  0.2138 -0.7265 -0.3164
  134OSM   C14F14579   5.927   4.809   8.382 -0.5100 -0.1072  0.5362
  134OSM   H14F14580   5.868   4.853   8.465  1.0090 -0.8478  2.0638
  134OSM   H14G14581   6.025   4.777   8.423 -0.9668  0.3993  2.0959
  134OSM   C15F14582   5.854   4.688   8.334  1.2283  1.1220  0.0295
  134OSM   H15F14583   5.911   4.617   8.270 -2.8669 -1.2851 -1.2852
  134OSM   H15G14584   5.777   4.724   8.263  0.6607 -0.9723 -0.5002
  134OSM   C16F14585   5.802   4.596   8.455 -1.0826  0.2113  0.3930
  134OSM   H16F14586   5.730   4.658   8.513 -0.2963  2.5510 -0.9985
  134OSM   H16G14587   5.884   4.568   8.524 -0.5939  1.3072  0.2793
  134OSM   C17F14588   5.737   4.462   8.404 -0.3519  0.2848  0.2487
  134OSM   H17F14589   5.821   4.394   8.376  1.1455  2.5482 -1.1513
  134OSM   H17G14590   5.688   4.494   8.310  0.5900  1.0394 -0.0049
  134OSM   C18F14591   5.636   4.390   8.495  0.7189 -0.6026  0.3344
  134OSM   H18F14592   5.676   4.368   8.597  2.0822 -2.0493 -0.4750
  134OSM   H18G14593   5.598   4.293   8.458 -2.7231 -0.8293  3.8203
  134OSM   H18H14594   5.544   4.453   8.496  1.5457  0.9790 -3.7067
  135OSM      N14595   5.616   4.914   6.101  0.4411  0.0277 -0.3529
  135OSM    C1514596   5.743   4.986   6.069  0.7177 -0.3061  0.1211
  135OSM   H15A14597   5.734   5.046   5.979  1.5856 -1.2905 -0.6500
  135OSM   H15B14598   5.824   4.914   6.064  0.7380 -0.3740  1.2787
  135OSM   H15C14599   5.760   5.044   6.159 -0.8482 -1.0049  0.8968
  135OSM    C1414600   5.492   4.993   6.080  0.1141 -0.2560  0.6748
  135OSM   H14A14601   5.494   5.056   5.992 -1.0337  0.0629  0.8612
  135OSM   H14B14602   5.490   5.065   6.161  1.1546  0.5694 -0.0063
  135OSM   H14C14603   5.406   4.929   6.090  1.3619 -2.1974 -0.5389
  135OSM    C1314604   5.595   4.792   6.020  0.0108  0.3196  0.2159
  135OSM   H13A14605   5.650   4.707   6.057  0.4016 -0.7987 -2.6858
  135OSM   H13B14606   5.638   4.803   5.922  0.7391 -0.8780  0.3822
  135OSM   H13C14607   5.491   4.770   6.004  0.1763  0.1038 -0.5617
  135OSM    C1214608   5.623   4.872   6.250 -0.4730  0.2417  0.4938
  135OSM   H12A14609   5.713   4.812   6.250  1.1252  2.4979 -0.0687
  135OSM   H12B14610   5.545   4.803   6.277  0.1626 -2.5302 -3.8355
  135OSM    C1114611   5.630   4.990   6.349  0.8714 -0.9277  0.0333
  135OSM   H11A14612   5.716   5.054   6.320 -0.7688  0.3594 -2.4225
  135OSM   H11B14613   5.648   4.942   6.447 -1.2423 -0.4564  0.7053
  135OSM      P14614   5.383   5.048   6.430  0.3751  0.3125 -0.2638
  135OSM    O1314615   5.331   5.183   6.459  0.6931 -0.2575 -0.0959
  135OSM    O1414616   5.297   4.946   6.367  0.1032  0.2469  0.3236
  135OSM    O1114617   5.431   4.986   6.565 -0.1022 -0.1651 -0.5193
  135OSM    O1214618   5.511   5.072   6.349 -0.1265 -0.3408 -0.0132
  135OSM    C1S14619   5.519   5.065   6.658 -0.0643  0.2267  0.8989
  135OSM    H1S14620   5.503   5.174   6.648 -1.9337 -0.0894 -0.0189
  135OSM    H1T14621   5.628   5.061   6.639  0.0227  0.4282  1.3398
  135OSM     NF14622   5.541   5.131   6.904  0.2111  0.0072 -0.0261
  135OSM    HNF14623   5.619   5.111   6.962  0.9006  1.1350 -0.5209
  135OSM    C2S14624   5.496   5.029   6.806  0.5166 -0.0725  0.1980
  135OSM    H2S14625   5.385   5.022   6.814  0.7010 -1.7872  2.0375
  135OSM    C3S14626   5.552   4.893   6.831  0.6711  0.0303 -0.1607
  135OSM    H3S14627   5.662   4.896   6.824  0.7706 -2.2820 -0.2405
  135OSM     O314628   5.518   4.789   6.742 -0.4979 -0.0109 -0.1485
  135OSM    HO314629   5.484   4.835   6.666  3.1353 -0.6556 -2.4328
  135OSM    C4S14630   5.525   4.836   6.970 -0.0089 -0.7281  0.1521
  135OSM    H4S14631   5.425   4.793   6.985 -1.4619  1.5888 -2.0775
  135OSM    C5S14632   5.610   4.833   7.077 -0.1133  0.4970 -0.0671
  135OSM    H5S14633   5.704   4.890   7.072  1.0370 -1.2704  0.4687
  135OSM    C6S14634   5.577   4.778   7.216  1.1551  0.2440 -0.0858
  135OSM    H6S14635   5.649   4.698   7.245  1.3730  0.4053 -0.1738
  135OSM    H6T14636   5.490   4.710   7.203  3.0299 -2.5181  0.7671
  135OSM    C7S14637   5.564   4.881   7.328 -0.1729  0.6377 -0.2203
  135OSM    H7S14638   5.509   4.971   7.293  1.2718  1.1119 -1.3526
  135OSM    H7T14639   5.665   4.922   7.348 -0.9197  2.3903  0.1036
  135OSM    C8S14640   5.511   4.815   7.451 -0.0878  1.0089 -0.1758
  135OSM    H8S14641   5.552   4.712   7.456 -1.4127  0.4972  0.2905
  135OSM    H8T14642   5.403   4.801   7.434 -0.3651  0.0545  2.0343
  135OSM    C9S14643   5.530   4.887   7.580 -0.7919 -0.1315 -0.4280
  135OSM    H9S14644   5.472   4.982   7.584  0.0345  0.3715  0.1230
  135OSM    H9T14645   5.634   4.914   7.611 -1.3034  0.6637  0.6658
  135OSM   C10S14646   5.481   4.809   7.701 -0.1355 -0.7566 -0.5762
  135OSM   H10S14647   5.556   4.728   7.703  0.1849 -0.4580  1.2989
  135OSM   H10T14648   5.381   4.765   7.684  0.3278 -0.9374 -3.2949
  135OSM   C11S14649   5.483   4.890   7.834 -0.2745 -0.1421 -0.5607
  135OSM   H11S14650   5.408   4.973   7.832 -0.6067 -0.4387 -0.5727
  135OSM   H11T14651   5.582   4.932   7.861 -0.4249 -1.0316  1.5689
  135OSM   C12S14652   5.428   4.807   7.954 -0.6523 -0.3681  0.6720
  135OSM   H12S14653   5.489   4.716   7.972 -0.0200  0.1493  1.2325
  135OSM   H12T14654   5.327   4.770   7.929  0.4478 -1.0162 -3.7533
  135OSM   C13S14655   5.402   4.878   8.086 -0.8311  0.3009 -0.1411
  135OSM   H13S14656   5.300   4.922   8.082 -1.5146 -0.6314  3.7280
  135OSM   H13T14657   5.470   4.964   8.105 -0.9983  0.0615  1.6903
  135OSM   C14S14658   5.415   4.803   8.217 -0.5600  0.3523  0.2188
  135OSM   H14S14659   5.523   4.776   8.220 -0.7916 -0.7066 -0.4139
  135OSM   H14T14660   5.370   4.702   8.220 -0.5377  0.3263 -0.3573
  135OSM   C15S14661   5.375   4.888   8.342 -0.9770 -0.0096  0.5657
  135OSM   H15S14662   5.430   4.984   8.335  1.9670 -1.6611 -3.3729
  135OSM   H15T14663   5.409   4.828   8.429 -2.7669 -0.6406  0.8735
  135OSM   C16S14664   5.225   4.912   8.368  0.2462 -0.0556  0.2604
  135OSM   H16S14665   5.174   4.818   8.337  0.8300 -0.4090  0.3444
  135OSM   H16T14666   5.187   4.988   8.297 -2.2375 -0.9697  0.5352
  135OSM   C17S14667   5.192   4.964   8.508  0.1481  0.6070 -0.6645
  135OSM   H17S14668   5.086   4.991   8.522 -0.0979 -0.6506 -0.0158
  135OSM   H17T14669   5.259   5.051   8.527  0.9947 -0.1256 -0.2063
  135OSM   C18S14670   5.213   4.860   8.616  0.1099 -0.4440  0.4063
  135OSM   H18S14671   5.168   4.764   8.584  3.8546 -1.7148 -1.7400
  135OSM   H18T14672   5.178   4.877   8.720  1.5864 -1.8293  1.1677
  135OSM   H18U14673   5.321   4.834   8.621  0.4517  0.9328  0.6822
  135OSM    C1F14674   5.491   5.248   6.918  0.1258  0.0664 -0.4814
  135OSM     OF14675   5.414   5.287   6.836 -0.2307  0.5469  0.4201
  135OSM    C2F14676   5.519   5.327   7.046 -0.0923  0.6561  0.4973
  135OSM    H2F14677   5.460   5.421   7.037 -0.4505  0.3688 -0.2982
  135OSM    H2G14678   5.626   5.355   7.048 -0.3978  1.8376  0.5877
  135OSM    C3F14679   5.491   5.242   7.173  0.6169 -0.3070  0.4516
  135OSM    H3F14680   5.567   5.161   7.175  0.0945 -0.8024  2.0125
  135OSM    H3G14681   5.384   5.211   7.168 -0.1241  2.0904  0.2948
  135OSM    C4F14682   5.504   5.323   7.301  0.5180 -0.4463 -0.4226
  135OSM    H4F14683   5.422   5.397   7.303  0.9216  0.0211 -0.6895
  135OSM    H4G14684   5.598   5.382   7.303 -0.3106  1.1249 -2.9445
  135OSM    C5F14685   5.494   5.242   7.427  0.3962  0.0016 -0.7310
  135OSM    H5F14686   5.588   5.183   7.429 -0.0768 -0.8677 -2.3796
  135OSM    H5G14687   5.410   5.170   7.432  0.7144 -0.5235 -2.3369
  135OSM    C6F14688   5.484   5.319   7.555  0.1398  0.0407 -0.3554
  135OSM    H6F14689   5.415   5.405   7.543 -0.5225 -0.3699  0.3747
  135OSM    H6G14690   5.586   5.355   7.579 -0.1997  1.5168 -1.0087
  135OSM    C7F14691   5.426   5.234   7.666  0.6713  0.2899 -0.0960
  135OSM    H7F14692   5.508   5.161   7.684  0.2141 -0.3495 -0.5905
  135OSM    H7G14693   5.341   5.176   7.625  0.4425  1.1122 -0.8260
  135OSM    C8F14694   5.398   5.316   7.798  0.1115 -0.6606 -0.6406
  135OSM    H8F14695   5.335   5.254   7.866  0.0908  0.8592  0.7959
  135OSM    H8G14696   5.336   5.405   7.775 -0.2443 -0.2556  1.5820
  135OSM    C9F14697   5.524   5.360   7.863  0.0685 -0.2458 -0.2984
  135OSM    H9F14698   5.582   5.433   7.805  3.1556 -0.3332  2.3804
  135OSM   C10F14699   5.562   5.321   7.985  0.5339  0.2115  0.3068
  135OSM   H10F14700   5.659   5.363   8.017 -0.2064  0.8553  1.7994
  135OSM   C11F14701   5.483   5.231   8.084 -0.5257  0.1061 -0.4562
  135OSM   H11F14702   5.542   5.146   8.125 -1.0678 -1.2585 -2.3987
  135OSM   H11G14703   5.397   5.172   8.047  0.0144 -2.2191  1.6800
  135OSM   C12F14704   5.436   5.321   8.200 -0.2353 -0.6370 -0.4333
  135OSM   H12F14705   5.384   5.258   8.276  0.6353 -0.8427  0.0042
  135OSM   H12G14706   5.368   5.402   8.165 -0.5991 -1.2642 -1.2176
  135OSM   C13F14707   5.544   5.390   8.280 -0.3132 -0.4780 -0.3135
  135OSM   H13F14708   5.609   5.460   8.223 -0.3144 -0.5120 -0.3575
  135OSM   H13G14709   5.626   5.328   8.322  0.0805 -0.0110 -0.3765
  135OSM   C14F14710   5.499   5.494   8.388  0.0729  0.6960  0.0310
  135OSM   H14F14711   5.457   5.431   8.470  1.6471 -1.6581 -0.8567
  135OSM   H14G14712   5.411   5.554   8.357 -0.8125 -0.6403 -0.1693
  135OSM   C15F14713   5.616   5.569   8.442 -0.1899  0.3412 -0.0888
  135OSM   H15F14714   5.686   5.618   8.371  1.5388 -0.0704  1.2486
  135OSM   H15G14715   5.682   5.494   8.492 -0.5055 -0.3201 -0.6438
  135OSM   C16F14716   5.562   5.657   8.550 -0.3276 -0.2962 -0.0040
  135OSM   H16F14717   5.511   5.604   8.633 -0.3242  0.0344  0.2114
  135OSM   H16G14718   5.496   5.725   8.491  0.6226 -0.6336 -1.5121
  135OSM   C17F14719   5.667   5.752   8.623 -0.5878  0.2843 -0.7050
  135OSM   H17F14720   5.605   5.821   8.683 -0.1766 -0.2857  0.3922
  135OSM   H17G14721   5.730   5.812   8.553  1.0666  0.8668  1.1691
  135OSM   C18F14722   5.756   5.671   8.724 -0.5943  0.0290 -0.0628
  135OSM   H18F14723   5.847   5.626   8.679 -0.9036  0.2990 -0.9840
  135OSM   H18G14724   5.706   5.574   8.745  1.7173 -0.8799  1.6766
  135OSM   H18H14725   5.785   5.723   8.817 -0.1105 -1.0247  0.3864
  136OSM      N14726   4.561   0.588   5.933 -0.3512  0.3979  0.2719
  136OSM    C1514727   4.599   0.615   5.797  0.6585 -0.0508  0.0673
  136OSM   H15A14728   4.575   0.542   5.721  2.2268  0.5110 -1.0108
  136OSM   H15B14729   4.702   0.647   5.793  0.2643  1.1483 -1.3908
  136OSM   H15C14730   4.552   0.702   5.752  1.7654 -0.7074 -2.5092
  136OSM    C1414731   4.416   0.542   5.920 -0.4029  0.1535 -1.1257
  136OSM   H14A14732   4.404   0.447   5.870 -0.6157  0.3326 -1.4159
  136OSM   H14B14733   4.355   0.610   5.864 -0.5809 -0.4775 -1.7081
  136OSM   H14C14734   4.369   0.535   6.017 -1.1436  0.4268 -1.4566
  136OSM    C1314735   4.636   0.469   5.985 -0.3918 -0.0880  0.0683
  136OSM   H13A14736   4.740   0.490   6.003 -0.4360 -0.6793  1.1305
  136OSM   H13B14737   4.657   0.395   5.910  0.2956  1.5129 -1.3821
  136OSM   H13C14738   4.592   0.431   6.076  1.2474  1.0384  1.4021
  136OSM    C1214739   4.582   0.705   6.015 -0.0240 -0.1288  0.7828
  136OSM   H12A14740   4.548   0.791   5.960  1.3866  1.3909  2.1896
  136OSM   H12B14741   4.690   0.711   6.011  0.2461 -3.6038 -1.9317
  136OSM    C1114742   4.527   0.700   6.155  0.3923 -0.4084  0.3938
  136OSM   H11A14743   4.570   0.780   6.219 -1.7134  0.3314  0.9390
  136OSM   H11B14744   4.551   0.607   6.210  0.7490 -0.7219 -0.2838
  136OSM      P14745   4.316   0.850   6.162  0.3874  0.1895 -0.4406
  136OSM    O1314746   4.365   0.946   6.061 -0.1088  0.1430  0.1616
  136OSM    O1414747   4.173   0.812   6.155  0.6283 -0.5027 -1.0737
  136OSM    O1114748   4.340   0.914   6.306 -0.2291  0.5382  0.9703
  136OSM    O1214749   4.390   0.715   6.151 -0.3447 -0.3580  0.7874
  136OSM    C1S14750   4.370   0.836   6.420 -0.2128  0.0269 -0.0026
  136OSM    H1S14751   4.475   0.800   6.432  0.4836  1.5304 -1.1563
  136OSM    H1T14752   4.309   0.743   6.418 -1.2054  0.6522 -2.4195
  136OSM     NF14753   4.349   0.827   6.657  0.1301 -0.1102 -0.1983
  136OSM    HNF14754   4.269   0.788   6.701  0.3739 -0.4840 -0.0844
  136OSM    C2S14755   4.327   0.913   6.547  0.4602 -0.4483  0.0927
  136OSM    H2S14756   4.393   1.002   6.556 -0.6755  0.3253  1.0385
  136OSM    C3S14757   4.178   0.967   6.533 -0.3344  0.3717 -0.1640
  136OSM    H3S14758   4.115   0.878   6.511  1.3725 -1.0388  0.3625
  136OSM     O314759   4.147   1.051   6.422 -0.4485  0.5956 -0.1863
  136OSM    HO314760   4.232   1.052   6.378 -1.3125  2.3088 -1.9958
  136OSM    C4S14761   4.135   1.028   6.666 -0.3580 -0.5656  0.6344
  136OSM    H4S14762   4.209   1.107   6.685 -1.7260  1.5042 -1.9217
  136OSM    C5S14763   4.026   1.005   6.736  0.0840  0.9510  0.2921
  136OSM    H5S14764   3.948   0.935   6.703 -1.3337  2.1670  0.9408
  136OSM    C6S14765   3.994   1.075   6.867  1.1725 -0.3639 -0.2312
  136OSM    H6S14766   3.920   1.015   6.923 -2.4802  1.8510 -2.3049
  136OSM    H6T14767   3.947   1.174   6.845  2.0849  1.5259  4.8704
  136OSM    C7S14768   4.118   1.096   6.957 -0.0236  0.1640 -0.6950
  136OSM    H7S14769   4.188   1.166   6.906  0.4260  0.5290  0.3894
  136OSM    H7T14770   4.168   0.997   6.965 -0.6494 -0.0793  0.5356
  136OSM    C8S14771   4.074   1.163   7.094 -0.3809  0.2180 -0.4068
  136OSM    H8S14772   4.001   1.097   7.144  1.1766 -1.9526 -0.8540
  136OSM    H8T14773   4.017   1.254   7.065 -0.9303 -0.3153 -1.0445
  136OSM    C9S14774   4.193   1.230   7.169  0.3179 -0.1682 -0.3828
  136OSM    H9S14775   4.239   1.307   7.103 -1.0663  0.6574 -0.4239
  136OSM    H9T14776   4.275   1.159   7.190  1.9978  1.5812 -0.7395
  136OSM   C10S14777   4.147   1.302   7.295  0.6220 -0.2405  0.4277
  136OSM   H10S14778   4.076   1.237   7.351  0.7115 -1.4400 -0.7768
  136OSM   H10T14779   4.094   1.392   7.258  3.4454  1.3697  0.0642
  136OSM   C11S14780   4.261   1.351   7.382 -0.0942 -0.0153  0.1041
  136OSM   H11S14781   4.301   1.446   7.341 -0.2429 -0.6631 -1.6011
  136OSM   H11T14782   4.336   1.269   7.385 -1.9739 -1.7992  1.5374
  136OSM   C12S14783   4.211   1.373   7.528  0.4935 -0.4272  0.2933
  136OSM   H12S14784   4.153   1.286   7.566  0.1728  0.2653  1.4471
  136OSM   H12T14785   4.131   1.449   7.519  0.9268 -0.0696 -0.6401
  136OSM   C13S14786   4.321   1.415   7.628  0.4729  0.4024 -0.3347
  136OSM   H13S14787   4.383   1.491   7.576  1.2397  1.1405  1.5877
  136OSM   H13T14788   4.381   1.329   7.667  0.1632  0.3518  0.0403
  136OSM   C14S14789   4.262   1.487   7.758  0.0947 -0.2099  0.7743
  136OSM   H14S14790   4.198   1.574   7.732  2.6232  1.3843 -0.5252
  136OSM   H14T14791   4.350   1.519   7.818 -0.6119 -1.8879  2.8248
  136OSM   C15S14792   4.184   1.397   7.854  0.8883  0.3576  0.0114
  136OSM   H15S14793   4.249   1.315   7.891 -0.2880  0.3638  2.2387
  136OSM   H15T14794   4.091   1.369   7.801  1.5931  0.7651 -1.4825
  136OSM   C16S14795   4.151   1.482   7.979  0.0683 -0.3762 -0.3640
  136OSM   H16S14796   4.132   1.589   7.956 -0.5428 -0.0834  1.3683
  136OSM   H16T14797   4.227   1.470   8.059 -0.2339  1.0877  0.1788
  136OSM   C17S14798   4.015   1.454   8.042  0.2701  0.4149 -0.3989
  136OSM   H17S14799   4.015   1.345   8.064 -3.5207  0.2881 -0.4617
  136OSM   H17T14800   3.936   1.479   7.968  0.8075 -1.8721 -1.8697
  136OSM   C18S14801   4.006   1.518   8.185  0.1750  0.0750  0.3718
  136OSM   H18S14802   3.923   1.460   8.232  0.1865 -1.5306 -1.4848
  136OSM   H18T14803   4.001   1.628   8.177 -1.5427 -0.0932 -1.8314
  136OSM   H18U14804   4.092   1.487   8.249  0.5683 -0.3983 -0.3816
  136OSM    C1F14805   4.472   0.800   6.693 -0.8948 -0.0123 -0.2147
  136OSM     OF14806   4.564   0.880   6.677  0.0071 -0.2257 -0.0804
  136OSM    C2F14807   4.494   0.671   6.760 -0.4835  0.1875 -0.3020
  136OSM    H2F14808   4.564   0.622   6.689  1.2919  2.9735 -0.6656
  136OSM    H2G14809   4.397   0.618   6.768  0.7127 -1.9494  0.8877
  136OSM    C3F14810   4.554   0.685   6.903  0.2781 -0.4238 -0.0058
  136OSM    H3F14811   4.656   0.729   6.904 -1.2672  3.6556 -1.3782
  136OSM    H3G14812   4.563   0.582   6.943  2.5243  0.0474  0.8357
  136OSM    C4F14813   4.468   0.769   6.994  0.0880 -0.0045 -0.0803
  136OSM    H4F14814   4.387   0.709   7.042  1.1269  0.3955  2.3175
  136OSM    H4G14815   4.411   0.851   6.945  2.1191  1.2267 -0.4827
  136OSM    C5F14816   4.536   0.832   7.116 -0.0820  0.0191 -0.0975
  136OSM    H5F14817   4.460   0.858   7.192 -0.0616 -2.0902  0.7230
  136OSM    H5G14818   4.593   0.924   7.091 -1.0822  0.5006 -0.6655
  136OSM    C6F14819   4.615   0.720   7.193 -0.0853 -0.1666  0.0932
  136OSM    H6F14820   4.679   0.658   7.127 -0.1714  0.0369 -0.1847
  136OSM    H6G14821   4.538   0.654   7.237  0.2900 -0.5481  0.1850
  136OSM    C7F14822   4.698   0.770   7.308 -0.5192  0.3893 -0.5668
  136OSM    H7F14823   4.639   0.844   7.366  0.5742  1.0135 -0.2404
  136OSM    H7G14824   4.791   0.822   7.279  0.9398 -0.4064  2.3283
  136OSM    C8F14825   4.738   0.652   7.412 -0.0436 -0.7298 -0.6879
  136OSM    H8F14826   4.767   0.558   7.360 -0.9392 -2.4502  1.7552
  136OSM    H8G14827   4.647   0.624   7.468  0.4037 -1.3450 -0.2480
  136OSM    C9F14828   4.850   0.691   7.506  0.6527  0.2691 -0.1593
  136OSM    H9F14829   4.945   0.719   7.459  0.9528 -1.4346 -0.6535
  136OSM   C10F14830   4.849   0.693   7.640 -0.3931  0.4048 -0.4771
  136OSM   H10F14831   4.939   0.733   7.689 -0.3575 -1.1494  0.7871
  136OSM   C11F14832   4.739   0.644   7.727  0.0656  0.3624  0.6119
  136OSM   H11F14833   4.784   0.578   7.804  1.5784 -0.1558 -0.6699
  136OSM   H11G14834   4.663   0.592   7.665  2.8248  1.0082 -3.7461
  136OSM   C12F14835   4.657   0.751   7.802  0.6109 -0.3258 -0.0228
  136OSM   H12F14836   4.721   0.818   7.863 -0.9398  1.8280 -0.6132
  136OSM   H12G14837   4.576   0.704   7.863 -0.5527 -1.6047 -2.3932
  136OSM   C13F14838   4.578   0.841   7.706 -0.7421 -0.2642  0.7061
  136OSM   H13F14839   4.513   0.767   7.655 -2.4618  0.2767  2.0194
  136OSM   H13G14840   4.645   0.893   7.635  1.2005 -1.1516  1.8070
  136OSM   C14F14841   4.487   0.942   7.769  0.3543 -0.2845  0.4936
  136OSM   H14F14842   4.537   1.018   7.832  1.8038 -1.2224  0.5251
  136OSM   H14G14843   4.428   0.870   7.829 -1.2837  0.5427 -0.0699
  136OSM   C15F14844   4.398   1.012   7.656 -0.1253  0.4147 -0.6037
  136OSM   H15F14845   4.465   1.081   7.600  0.4422 -0.0331 -0.4874
  136OSM   H15G14846   4.323   1.071   7.711  0.3561  1.5032 -1.0900
  136OSM   C16F14847   4.339   0.911   7.559 -0.3248 -0.3197  0.2398
  136OSM   H16F14848   4.321   0.811   7.604  2.5655 -2.3706 -2.7003
  136OSM   H16G14849   4.409   0.885   7.477 -0.7847 -0.4036 -0.1304
  136OSM   C17F14850   4.212   0.978   7.495 -0.0372 -0.6484  0.2127
  136OSM   H17F14851   4.249   1.065   7.437 -0.0423 -0.6829  0.1580
  136OSM   H17G14852   4.137   0.994   7.575 -1.1772 -1.3318 -0.6795
  136OSM   C18F14853   4.148   0.872   7.402 -0.3808 -0.2236 -0.5050
  136OSM   H18F14854   4.105   0.790   7.463 -0.4336  1.4155  1.8162
  136OSM   H18G14855   4.226   0.828   7.337  0.1629 -0.9535  0.5996
  136OSM   H18H14856   4.074   0.923   7.337 -0.1955  0.1687 -0.4155
  137OSM      N14857   0.938   6.121   6.228 -0.0673  0.2363 -0.2149
  137OSM    C1514858   1.067   6.173   6.294 -0.4077 -0.2423 -0.0433
  137OSM   H15A14859   1.140   6.222   6.232  1.9197 -2.5988  0.6829
  137OSM   H15B14860   1.117   6.089   6.338  0.3903  0.0005 -0.4736
  137OSM   H15C14861   1.041   6.249   6.368  1.2970  1.5721 -1.1988
  137OSM    C1414862   0.883   6.201   6.121 -0.3631 -0.1480 -0.0646
  137OSM   H14A14863   0.969   6.216   6.057  0.4872  0.6563  1.2096
  137OSM   H14B14864   0.850   6.299   6.152  1.3997 -0.2881  2.5525
  137OSM   H14C14865   0.797   6.165   6.067 -1.7914  1.0380  1.3153
  137OSM    C1314866   0.966   5.981   6.167  0.5471 -0.3828 -0.7726
  137OSM   H13A14867   1.020   5.998   6.075  1.2772  1.0649 -0.1184
  137OSM   H13B14868   0.877   5.926   6.141  0.0461 -0.1710  0.4258
  137OSM   H13C14869   1.026   5.926   6.239  3.7316  2.6084 -0.8529
  137OSM    C1214870   0.830   6.115   6.342 -0.1239 -0.0313 -0.0847
  137OSM   H12A14871   0.877   6.071   6.429 -1.2238  1.0954  1.1178
  137OSM   H12B14872   0.756   6.039   6.323  1.2215 -0.9183 -2.1356
  137OSM    C1114873   0.776   6.253   6.400  0.1001  0.6438  0.4173
  137OSM   H11A14874   0.697   6.231   6.475 -0.4519  2.3903  0.3954
  137OSM   H11B14875   0.728   6.306   6.315 -0.6501  0.0288  0.4536
  137OSM      P14876   0.921   6.318   6.613  0.0766  0.0385  0.1093
  137OSM    O1314877   1.063   6.344   6.633  0.3130 -0.3839  0.2623
  137OSM    O1414878   0.819   6.391   6.692  0.0748 -0.0031  0.2251
  137OSM    O1114879   0.891   6.162   6.643 -0.5857  0.0745 -0.0670
  137OSM    O1214880   0.884   6.333   6.456 -0.5464 -0.2382 -0.0251
  137OSM    C1S14881   0.965   6.105   6.757 -0.4485  0.4837 -0.5397
  137OSM    H1S14882   1.074   6.129   6.751  0.7582 -4.0244 -0.7130
  137OSM    H1T14883   0.951   5.995   6.756 -0.4424  0.4344  1.4309
  137OSM     NF14884   0.971   6.113   7.015 -0.6403 -0.5397  0.3641
  137OSM    HNF14885   0.933   6.045   7.078  0.0885 -1.9648 -0.6774
  137OSM    C2S14886   0.900   6.150   6.896  0.6264  0.0879  0.3430
  137OSM    H2S14887   0.895   6.261   6.895  0.4064  0.0821 -0.9552
  137OSM    C3S14888   0.756   6.099   6.912 -0.4070 -0.4076  0.5387
  137OSM    H3S14889   0.755   5.991   6.940 -2.3464 -0.3163  0.9620
  137OSM     O314890   0.685   6.099   6.785 -0.2727 -0.0864 -0.1648
  137OSM    HO314891   0.753   6.130   6.725  0.5333 -0.1596  0.6878
  137OSM    C4S14892   0.681   6.174   7.018 -0.7232 -0.8852 -0.3179
  137OSM    H4S14893   0.704   6.151   7.123  0.5275  0.8377 -0.1768
  137OSM    C5S14894   0.587   6.269   7.004  0.2167 -0.5094  0.0399
  137OSM    H5S14895   0.565   6.302   6.901 -0.2557  0.0886  0.3274
  137OSM    C6S14896   0.514   6.334   7.115 -0.5668 -0.6383 -0.1859
  137OSM    H6S14897   0.404   6.323   7.100 -1.0936  0.8564  2.0854
  137OSM    H6T14898   0.538   6.442   7.105  0.4489 -0.8631 -0.3013
  137OSM    C7S14899   0.554   6.294   7.261  0.7465  0.1613 -0.5696
  137OSM    H7S14900   0.664   6.306   7.275  0.5035 -0.1379  1.9811
  137OSM    H7T14901   0.526   6.190   7.289  1.8300  0.2005  0.7767
  137OSM    C8S14902   0.489   6.395   7.357 -0.3529  0.3775  0.2056
  137OSM    H8S14903   0.379   6.385   7.350 -0.5108  2.5528 -1.6298
  137OSM    H8T14904   0.526   6.495   7.324  1.8449 -0.4749 -0.1007
  137OSM    C9S14905   0.531   6.373   7.503  0.4673 -0.6589  0.1158
  137OSM    H9S14906   0.636   6.337   7.499  0.3288 -1.0024 -0.5519
  137OSM    H9T14907   0.469   6.287   7.535 -1.8851  0.4843 -1.1553
  137OSM   C10S14908   0.541   6.486   7.597 -0.4012 -0.2125 -0.5375
  137OSM   H10S14909   0.447   6.541   7.621  0.2797  2.1443 -2.8134
  137OSM   H10T14910   0.616   6.556   7.555 -1.0288  0.6401 -0.2783
  137OSM   C11S14911   0.598   6.436   7.729 -0.5182 -0.6735 -0.5323
  137OSM   H11S14912   0.704   6.406   7.712  0.1503  0.3762  1.4673
  137OSM   H11T14913   0.552   6.341   7.764 -1.9691 -0.0264 -0.6109
  137OSM   C12S14914   0.604   6.537   7.842  0.2604 -0.7503  0.3471
  137OSM   H12S14915   0.507   6.590   7.844 -0.9749 -2.8307 -0.6650
  137OSM   H12T14916   0.687   6.608   7.823 -1.1245  0.5902 -0.9676
  137OSM   C13S14917   0.631   6.479   7.984  0.6999 -0.5298  0.4544
  137OSM   H13S14918   0.739   6.454   7.988  0.8073 -0.6702 -1.8998
  137OSM   H13T14919   0.580   6.380   7.979  0.7788 -0.6374  1.6896
  137OSM   C14S14920   0.582   6.549   8.109  0.4257 -0.3579 -0.3449
  137OSM   H14S14921   0.476   6.582   8.097  0.1914  0.0723  2.2430
  137OSM   H14T14922   0.631   6.638   8.153 -1.5322 -0.6497  2.7333
  137OSM   C15S14923   0.566   6.450   8.228 -0.0009  0.0122  0.1054
  137OSM   H15S14924   0.668   6.421   8.260 -0.6675 -1.1293  1.2777
  137OSM   H15T14925   0.520   6.356   8.191  0.3522  0.2124 -0.8666
  137OSM   C16S14926   0.502   6.516   8.351  0.1881 -0.9383 -0.2691
  137OSM   H16S14927   0.406   6.555   8.312  0.4534 -0.9647 -0.9603
  137OSM   H16T14928   0.562   6.600   8.394 -0.1084 -0.5518 -0.6139
  137OSM   C17S14929   0.483   6.416   8.462  0.2231 -0.4103 -0.6707
  137OSM   H17S14930   0.583   6.382   8.497  1.6381  1.4314 -2.6890
  137OSM   H17T14931   0.419   6.329   8.432 -1.7465  1.0372 -0.8742
  137OSM   C18S14932   0.427   6.474   8.592 -0.4858  0.3814  0.2038
  137OSM   H18S14933   0.499   6.549   8.631  0.6807 -1.2570  1.3232
  137OSM   H18T14934   0.410   6.392   8.666 -0.3395 -1.6741 -1.9070
  137OSM   H18U14935   0.337   6.531   8.561  0.0052  0.8409 -0.4034
  137OSM    C1F14936   1.095   6.163   7.052  0.4537 -0.1115 -0.1752
  137OSM     OF14937   1.131   6.264   6.996 -0.1834  0.0629 -0.2477
  137OSM    C2F14938   1.174   6.090   7.154  0.5406  0.2229 -0.1281
  137OSM    H2F14939   1.223   6.003   7.106  2.6308  0.0236  2.1591
  137OSM    H2G14940   1.116   6.024   7.222  1.8187 -2.0747 -1.1724
  137OSM    C3F14941   1.282   6.178   7.224 -0.0761 -0.1417  0.1763
  137OSM    H3F14942   1.233   6.265   7.273 -3.0402 -1.8145  0.4366
  137OSM    H3G14943   1.349   6.218   7.144 -1.9476  0.6351 -1.0867
  137OSM    C4F14944   1.374   6.095   7.311 -1.1266 -0.4927  0.8492
  137OSM    H4F14945   1.469   6.149   7.332 -1.3052  0.9103 -1.5991
  137OSM    H4G14946   1.400   6.006   7.251  0.1366 -0.2874  1.0710
  137OSM    C5F14947   1.315   6.041   7.438  0.5545 -0.1536 -0.2434
  137OSM    H5F14948   1.403   5.990   7.482  0.5846  0.6795  0.6952
  137OSM    H5G14949   1.232   5.968   7.434 -1.0512  1.2920  2.9673
  137OSM    C6F14950   1.276   6.151   7.542 -0.3262  0.4738  0.3071
  137OSM    H6F14951   1.190   6.212   7.508 -0.5643  1.2812  2.2560
  137OSM    H6G14952   1.361   6.220   7.560 -1.2609  1.7769 -0.1353
  137OSM    C7F14953   1.248   6.074   7.667 -0.2453 -0.6505  0.0828
  137OSM    H7F14954   1.336   6.011   7.693 -0.6531 -1.6031 -0.7383
  137OSM    H7G14955   1.158   6.012   7.650  0.4864 -1.5579 -0.5819
  137OSM    C8F14956   1.208   6.166   7.785  0.5332  0.0056 -0.2854
  137OSM    H8F14957   1.281   6.249   7.797  1.6549 -0.8428 -1.0341
  137OSM    H8G14958   1.218   6.099   7.873 -2.2232  1.4421  1.2953
  137OSM    C9F14959   1.063   6.221   7.783 -0.3562  0.3150  0.0720
  137OSM    H9F14960   1.036   6.268   7.687 -2.2679 -0.6881  0.0768
  137OSM   C10F14961   0.981   6.223   7.890 -0.3447  0.8659 -0.0323
  137OSM   H10F14962   0.876   6.256   7.885 -0.6676 -0.3822 -2.2950
  137OSM   C11F14963   1.017   6.170   8.027 -0.9893 -0.0308  0.0310
  137OSM   H11F14964   1.084   6.081   8.025 -0.5653  0.1554  2.5467
  137OSM   H11G14965   0.928   6.122   8.074 -1.2508  0.3903 -0.0364
  137OSM   C12F14966   1.069   6.260   8.134  0.0108 -0.6167  0.1733
  137OSM   H12F14967   1.145   6.333   8.097 -0.3116 -0.0732  0.5626
  137OSM   H12G14968   1.108   6.199   8.218 -0.7979 -1.5061 -0.0842
  137OSM   C13F14969   0.950   6.346   8.198  0.2153  0.3175 -0.9233
  137OSM   H13F14970   0.885   6.269   8.246  0.8214  0.4069  0.0741
  137OSM   H13G14971   0.893   6.402   8.121 -0.7971  1.5299  0.6650
  137OSM   C14F14972   0.995   6.437   8.313 -0.2683 -0.2011  0.4048
  137OSM   H14F14973   1.068   6.514   8.279 -0.0779 -1.0859 -1.2709
  137OSM   H14G14974   1.055   6.376   8.384  0.6846 -0.7921 -0.8653
  137OSM   C15F14975   0.884   6.493   8.401 -0.0781 -0.2235  0.5823
  137OSM   H15F14976   0.812   6.410   8.418 -1.6403  1.2975  1.6970
  137OSM   H15G14977   0.831   6.555   8.326 -0.3693  1.4842  2.1394
  137OSM   C16F14978   0.920   6.565   8.528  0.3049  0.4149 -0.3877
  137OSM   H16F14979   0.981   6.656   8.507 -0.5736  1.4650  1.4251
  137OSM   H16G14980   0.990   6.496   8.580 -0.7437 -1.2749 -1.1442
  137OSM   C17F14981   0.796   6.591   8.621 -0.0084  0.4583  0.9100
  137OSM   H17F14982   0.750   6.496   8.656  1.5703 -0.9612 -0.6447
  137OSM   H17G14983   0.726   6.648   8.556  0.5954 -1.4527 -1.5704
  137OSM   C18F14984   0.837   6.681   8.741  0.6200  0.0268 -0.4645
  137OSM   H18F14985   0.744   6.718   8.789 -1.0391 -2.2255 -1.7430
  137OSM   H18G14986   0.879   6.777   8.704 -0.0320  0.7753  0.6544
  137OSM   H18H14987   0.911   6.637   8.810  0.3553  1.1774  0.5857
  138OSM      N14988   1.617   0.420   6.166  0.2726  1.2667 -0.1486
  138OSM    C1514989   1.757   0.468   6.174  0.5000 -0.2499 -0.1520
  138OSM   H15A14990   1.759   0.563   6.227  0.5801 -0.2440 -0.1645
  138OSM   H15B14991   1.799   0.502   6.081 -0.1491  0.4418 -0.2058
  138OSM   H15C14992   1.827   0.401   6.221  1.9955  2.1419  1.2911
  138OSM    C1414993   1.609   0.306   6.071 -0.3127 -0.9258  0.2832
  138OSM   H14A14994   1.512   0.282   6.031  0.6982 -0.8271 -2.4585
  138OSM   H14B14995   1.656   0.224   6.125  1.1678 -0.1142  0.2870
  138OSM   H14C14996   1.670   0.340   5.988 -2.2135  1.6201 -0.1657
  138OSM    C1314997   1.569   0.370   6.297  0.0558  0.4776 -0.1633
  138OSM   H13A14998   1.626   0.289   6.338  1.5662  0.2334 -2.6071
  138OSM   H13B14999   1.465   0.340   6.293  0.2129 -0.4569  1.6524
  138OSM   H13C15000   1.563   0.449   6.371  1.2746  2.1703 -1.7959
  138OSM    C1215001   1.516   0.524   6.130 -0.8771  0.1257  1.3144
  138OSM   H12A15002   1.418   0.480   6.132 -0.2162 -1.5034 -0.1299
  138OSM   H12B15003   1.531   0.554   6.028  0.4356 -1.7440  0.9146
  138OSM    C1115004   1.515   0.649   6.215  0.4931  0.0526 -0.5013
  138OSM   H11A15005   1.617   0.694   6.212 -0.2318  1.8785  0.6581
  138OSM   H11B15006   1.481   0.618   6.316 -2.3110  0.5334 -1.2265
  138OSM      P15007   1.317   0.826   6.238 -0.3624 -0.1435  0.5221
  138OSM    O1315008   1.310   0.960   6.184 -0.8276  0.1580 -0.4418
  138OSM    O1415009   1.192   0.753   6.239 -0.2566 -0.1105  0.1314
  138OSM    O1115010   1.383   0.836   6.380  0.0216  0.2634 -0.1014
  138OSM    O1215011   1.423   0.742   6.154 -0.1064 -0.2742  0.2287
  138OSM    C1S15012   1.461   0.958   6.420  0.1538 -0.3749  0.1913
  138OSM    H1S15013   1.486   1.025   6.335  0.2527 -0.7126 -0.0477
  138OSM    H1T15014   1.564   0.923   6.444  0.7192 -0.3475 -1.9145
  138OSM     NF15015   1.476   1.160   6.558  0.1502  0.3341 -0.4385
  138OSM    HNF15016   1.538   1.171   6.635 -0.5403  1.1676  0.0177
  138OSM    C2S15017   1.403   1.039   6.546  0.4496  0.2103  0.1478
  138OSM    H2S15018   1.300   1.066   6.514  0.9829  1.4809 -0.5667
  138OSM    C3S15019   1.397   0.949   6.676  0.6149 -0.2122 -0.4528
  138OSM    H3S15020   1.505   0.935   6.700  1.2868 -2.3904 -3.8896
  138OSM     O315021   1.354   0.822   6.650  0.5954 -0.0560  0.4481
  138OSM    HO315022   1.389   0.818   6.560  0.1975 -1.1393  0.3188
  138OSM    C4S15023   1.310   1.006   6.778 -0.0920  0.4801 -0.1408
  138OSM    H4S15024   1.209   1.025   6.739  0.0694  0.9058 -0.3552
  138OSM    C5S15025   1.349   1.050   6.896  0.2278 -0.0543 -0.9627
  138OSM    H5S15026   1.450   1.021   6.927 -0.3059 -0.7264  0.1969
  138OSM    C6S15027   1.266   1.120   6.998 -0.3364 -0.7578  0.2664
  138OSM    H6S15028   1.157   1.099   6.985 -0.8325  1.3531  0.7133
  138OSM    H6T15029   1.286   1.227   6.977  0.4369 -1.0020 -0.2642
  138OSM    C7S15030   1.320   1.081   7.137 -0.1078 -0.1999  0.1341
  138OSM    H7S15031   1.430   1.092   7.144 -0.3580  2.0794  1.7729
  138OSM    H7T15032   1.294   0.973   7.139  0.5427 -0.3504  1.1471
  138OSM    C8S15033   1.252   1.159   7.246  0.1112  0.2826  0.1433
  138OSM    H8S15034   1.142   1.150   7.236  0.3135 -1.8458 -0.6815
  138OSM    H8T15035   1.269   1.267   7.232  1.9960 -0.0021  0.0318
  138OSM    C9S15036   1.311   1.120   7.380  0.0350 -0.5099  0.7172
  138OSM    H9S15037   1.413   1.157   7.405 -0.6622  0.7188  1.8785
  138OSM    H9T15038   1.312   1.009   7.374 -1.0734 -0.4582 -1.4739
  138OSM   C10S15039   1.212   1.159   7.492  0.2788 -0.0874 -0.2533
  138OSM   H10S15040   1.112   1.121   7.462  0.0271 -2.3654  2.9876
  138OSM   H10T15041   1.210   1.269   7.508 -0.8833 -0.2002  0.4939
  138OSM   C11S15042   1.247   1.101   7.633 -0.4746  0.0199  0.6071
  138OSM   H11S15043   1.280   0.995   7.626 -0.6642  0.0438 -0.7637
  138OSM   H11T15044   1.153   1.104   7.692 -0.5906 -0.6340  0.4666
  138OSM   C12S15045   1.377   1.161   7.699 -1.1459 -0.6292  0.6425
  138OSM   H12S15046   1.383   1.269   7.674 -0.3966 -1.1237 -1.5806
  138OSM   H12T15047   1.468   1.118   7.653 -0.4319  2.6872 -1.3971
  138OSM   C13S15048   1.392   1.131   7.845  0.3211  0.1721  0.4086
  138OSM   H13S15049   1.400   1.022   7.864 -1.7332 -0.1583 -0.3484
  138OSM   H13T15050   1.291   1.147   7.889  0.4233 -1.7003  1.4220
  138OSM   C14S15051   1.479   1.223   7.914 -0.3776 -0.6408  0.6189
  138OSM   H14S15052   1.465   1.325   7.871 -1.0429 -2.4109 -3.8609
  138OSM   H14T15053   1.587   1.202   7.903  0.1511  1.3801  1.3899
  138OSM   C15S15054   1.455   1.239   8.066  0.4288  0.1868  0.3435
  138OSM   H15S15055   1.477   1.148   8.127  1.2587  0.0754 -0.1034
  138OSM   H15T15056   1.347   1.263   8.078  0.3954  0.0092  0.4018
  138OSM   C16S15057   1.532   1.364   8.130 -0.7652  0.1540  0.4991
  138OSM   H16S15058   1.502   1.452   8.069  1.2995  0.7169  0.2512
  138OSM   H16T15059   1.641   1.353   8.116 -0.8788  1.6936 -2.2283
  138OSM   C17S15060   1.503   1.395   8.273  0.0890  0.1399 -0.1184
  138OSM   H17S15061   1.509   1.299   8.329  0.9141  0.3151  0.1026
  138OSM   H17T15062   1.396   1.425   8.281  0.8837  3.7164 -1.2627
  138OSM   C18S15063   1.574   1.514   8.338 -0.6804 -0.5099 -0.1015
  138OSM   H18S15064   1.681   1.491   8.359 -0.9990 -1.3815  0.6597
  138OSM   H18T15065   1.517   1.535   8.431  0.2434  1.9334 -0.0286
  138OSM   H18U15066   1.566   1.607   8.279  1.1265 -0.0716  0.2824
  138OSM    C1F15067   1.470   1.254   6.465  0.7061 -0.1779 -0.2584
  138OSM     OF15068   1.399   1.248   6.366  0.0412  0.6539  0.6805
  138OSM    C2F15069   1.571   1.372   6.482  0.0556  0.4681  0.1122
  138OSM    H2F15070   1.628   1.382   6.387  0.2674 -0.8906  0.0767
  138OSM    H2G15071   1.656   1.341   6.547  1.0302 -0.9918 -1.7502
  138OSM    C3F15072   1.507   1.510   6.514  0.3876  0.0994 -0.1898
  138OSM    H3F15073   1.411   1.520   6.458 -0.7683 -0.4069  1.5998
  138OSM    H3G15074   1.570   1.597   6.488  0.1928  0.1030 -0.6619
  138OSM    C4F15075   1.467   1.516   6.655 -0.4078  0.8372  0.2883
  138OSM    H4F15076   1.556   1.522   6.722  0.2611  0.7220 -0.5661
  138OSM    H4G15077   1.422   1.420   6.687  2.8839 -0.4753  1.5103
  138OSM    C5F15078   1.366   1.625   6.673  0.3898  0.3041 -0.5124
  138OSM    H5F15079   1.264   1.600   6.637  0.4217 -1.0356  0.2560
  138OSM    H5G15080   1.403   1.717   6.624 -1.0030  1.4606  0.5083
  138OSM    C6F15081   1.361   1.651   6.825 -0.1805 -0.1778 -0.1129
  138OSM    H6F15082   1.281   1.727   6.835 -0.1669 -0.2368  0.4353
  138OSM    H6G15083   1.449   1.706   6.864 -0.6490  0.8040 -0.4214
  138OSM    C7F15084   1.320   1.545   6.933 -0.5419  0.2081  0.2166
  138OSM    H7F15085   1.406   1.533   7.002 -1.3438 -2.8294  0.8050
  138OSM    H7G15086   1.298   1.450   6.880 -0.6459  0.2799  0.1295
  138OSM    C8F15087   1.203   1.601   7.017 -0.0103 -0.0691 -0.0438
  138OSM    H8F15088   1.117   1.619   6.950 -0.4502  1.3316  0.8513
  138OSM    H8G15089   1.218   1.708   7.045  0.2014 -0.3436  0.9246
  138OSM    C9F15090   1.164   1.511   7.135  0.3235 -0.3376 -0.0037
  138OSM    H9F15091   1.115   1.417   7.105 -0.3277  0.1394 -0.4677
  138OSM   C10F15092   1.190   1.548   7.257  0.7470 -0.0126  0.0012
  138OSM   H10F15093   1.160   1.479   7.337 -0.7462  0.4771 -0.1087
  138OSM   C11F15094   1.263   1.676   7.293 -0.0255  1.3540  0.5746
  138OSM   H11F15095   1.202   1.767   7.272 -0.2140  1.3111  0.9343
  138OSM   H11G15096   1.357   1.683   7.234  0.8510 -1.8374  1.4071
  138OSM   C12F15097   1.301   1.690   7.443  0.4363 -0.3971 -0.0654
  138OSM   H12F15098   1.380   1.766   7.458  0.5943 -0.4488 -0.5894
  138OSM   H12G15099   1.354   1.594   7.465 -0.8975 -0.9385  0.8934
  138OSM   C13F15100   1.185   1.711   7.538  1.0682 -0.2708 -0.1278
  138OSM   H13F15101   1.102   1.639   7.523 -0.8640  1.8138  0.1039
  138OSM   H13G15102   1.132   1.805   7.516 -1.4376 -1.4138  0.6260
  138OSM   C14F15103   1.222   1.690   7.680  0.3656  0.1110 -0.2625
  138OSM   H14F15104   1.289   1.766   7.724  0.8396  0.4626 -1.5329
  138OSM   H14G15105   1.278   1.594   7.681 -0.4096 -0.3753  1.9290
  138OSM   C15F15106   1.108   1.679   7.783  0.4853  0.2144  0.0562
  138OSM   H15F15107   1.062   1.579   7.766  3.6925 -1.4818  0.5544
  138OSM   H15G15108   1.036   1.758   7.752  0.8552  0.0332 -1.3229
  138OSM   C16F15109   1.161   1.694   7.923 -1.1059 -0.2511 -0.7176
  138OSM   H16F15110   1.213   1.792   7.935 -0.7820 -0.5042 -0.0002
  138OSM   H16G15111   1.242   1.618   7.927 -0.0402  0.8204 -1.1920
  138OSM   C17F15112   1.054   1.664   8.030 -0.1871  0.6556  0.5215
  138OSM   H17F15113   1.017   1.561   8.009  1.1829  0.3257 -0.3899
  138OSM   H17G15114   0.974   1.739   8.013 -0.9943 -0.5358 -1.2962
  138OSM   C18F15115   1.102   1.662   8.171 -0.4425 -0.1584  0.1111
  138OSM   H18F15116   1.110   1.766   8.210 -0.2869 -0.6323  1.4029
  138OSM   H18G15117   1.195   1.602   8.179  1.4240  2.4061 -1.2254
  138OSM   H18H15118   1.020   1.630   8.240 -1.6155  0.8315 -0.7763
  139OSM      N15119   6.232   6.403   6.068  0.2941  0.4104 -0.9062
  139OSM    C1515120   6.170   6.467   5.949  0.1520 -0.0672 -0.3096
  139OSM   H15A15121   6.232   6.447   5.864 -0.0367 -0.7997 -0.2765
  139OSM   H15B15122   6.163   6.569   5.984  0.3988 -0.3590  0.6405
  139OSM   H15C15123   6.074   6.429   5.919 -0.5960  0.8577  0.8398
  139OSM    C1415124   6.137   6.389   6.177  0.6794  0.7576 -0.0116
  139OSM   H14A15125   6.173   6.327   6.258  0.0688 -0.9545 -1.0065
  139OSM   H14B15126   6.047   6.345   6.138  1.0050 -0.2315  0.3187
  139OSM   H14C15127   6.104   6.483   6.219  0.5009 -0.2360  2.2162
  139OSM    C1315128   6.267   6.264   6.034 -0.2133  0.3852  0.3496
  139OSM   H13A15129   6.326   6.258   5.944 -0.0960  0.0272  0.4481
  139OSM   H13B15130   6.179   6.208   6.004 -0.8637  0.9282  1.1971
  139OSM   H13C15131   6.323   6.206   6.105 -0.3207 -0.0765  0.0652
  139OSM    C1215132   6.349   6.487   6.120  0.6155  0.4373 -0.0699
  139OSM   H12A15133   6.427   6.494   6.045 -0.8744  0.0964 -1.7179
  139OSM   H12B15134   6.388   6.433   6.204 -3.6963 -1.3642  1.0364
  139OSM    C1115135   6.327   6.635   6.165  0.4777 -0.3808 -0.8263
  139OSM   H11A15136   6.425   6.681   6.189  0.2846  0.0186 -0.7800
  139OSM   H11B15137   6.263   6.646   6.255 -1.5780  1.6305 -2.3920
  139OSM      P15138   6.338   6.802   5.959 -0.1708 -0.1402  0.1468
  139OSM    O1315139   6.453   6.733   5.901 -0.4941 -1.2702  0.1670
  139OSM    O1415140   6.246   6.852   5.861  0.4126 -0.4287  0.1205
  139OSM    O1115141   6.386   6.917   6.053 -0.1557 -0.0136  0.2920
  139OSM    O1215142   6.261   6.706   6.058  0.3571 -0.1239 -0.1905
  139OSM    C1S15143   6.307   6.968   6.161  0.6024  0.2916  0.0050
  139OSM    H1S15144   6.199   6.947   6.145 -0.0409  3.0084  0.2128
  139OSM    H1T15145   6.303   7.078   6.145 -3.6777  0.0746 -1.8406
  139OSM     NF15146   6.252   7.014   6.401  0.0682 -0.1583  0.0943
  139OSM    HNF15147   6.293   7.079   6.465 -0.8974  0.5493  0.0257
  139OSM    C2S15148   6.341   6.938   6.312  0.7685  1.1603  0.0217
  139OSM    H2S15149   6.317   6.830   6.323 -0.2836  1.2687 -1.0681
  139OSM    C3S15150   6.498   6.938   6.341  0.7079 -0.1777  0.3989
  139OSM    H3S15151   6.528   7.044   6.335  2.3649 -0.6617 -0.5056
  139OSM     O315152   6.576   6.858   6.247 -0.5261  0.5831 -0.1299
  139OSM    HO315153   6.520   6.848   6.169 -0.4038  0.3434 -0.1872
  139OSM    C4S15154   6.533   6.883   6.477 -0.0183  0.6861 -0.1008
  139OSM    H4S15155   6.488   6.784   6.493 -0.1314  0.5580 -1.1364
  139OSM    C5S15156   6.614   6.942   6.566  0.6078 -0.6616 -0.0950
  139OSM    H5S15157   6.656   7.043   6.551 -0.7547 -0.1774 -0.8890
  139OSM    C6S15158   6.638   6.885   6.704 -0.9864  0.2052  0.3127
  139OSM    H6S15159   6.741   6.906   6.741 -0.6513  1.3271 -1.1912
  139OSM    H6T15160   6.626   6.775   6.702  0.0521  0.0737 -2.4412
  139OSM    C7S15161   6.547   6.956   6.807  0.0181 -0.4142 -0.2399
  139OSM    H7S15162   6.441   6.935   6.783 -0.3345  0.0683  0.8012
  139OSM    H7T15163   6.553   7.067   6.806 -2.9763 -0.1908 -0.9388
  139OSM    C8S15164   6.591   6.902   6.943  0.2502  0.5720  0.2185
  139OSM    H8S15165   6.702   6.902   6.956  0.2665 -2.6412  0.8947
  139OSM    H8T15166   6.578   6.792   6.942  0.8287  0.4988  0.1522
  139OSM    C9S15167   6.525   6.981   7.056  0.3901  0.5380  0.0586
  139OSM    H9S15168   6.418   6.989   7.026  0.5603 -1.3263 -1.2068
  139OSM    H9T15169   6.574   7.074   7.092  0.7508  0.1347  0.6167
  139OSM   C10S15170   6.517   6.891   7.178 -0.3653  0.1601  0.6625
  139OSM   H10S15171   6.621   6.890   7.218 -0.5785 -0.7133  1.2288
  139OSM   H10T15172   6.489   6.786   7.158  0.4090  0.1428 -0.4133
  139OSM   C11S15173   6.412   6.946   7.283  0.0345 -0.4812  0.0686
  139OSM   H11S15174   6.312   6.930   7.236  1.3799 -0.6179 -2.9931
  139OSM   H11T15175   6.422   7.057   7.288  1.8105 -0.2164 -4.4632
  139OSM   C12S15176   6.412   6.880   7.431 -0.3605  0.1513  0.1552
  139OSM   H12S15177   6.495   6.928   7.486  0.0661 -2.6787  2.1991
  139OSM   H12T15178   6.439   6.773   7.428  0.2568  0.1101  3.3878
  139OSM   C13S15179   6.278   6.896   7.494 -0.1310 -0.1287  0.2468
  139OSM   H13S15180   6.208   6.830   7.438 -0.8456  0.8532 -0.0351
  139OSM   H13T15181   6.240   7.000   7.484 -2.5055 -1.0742 -1.4526
  139OSM   C14S15182   6.279   6.851   7.640 -0.3743  0.1320  0.4235
  139OSM   H14S15183   6.175   6.849   7.679 -0.8447  1.9954 -0.6302
  139OSM   H14T15184   6.333   6.932   7.693 -0.5697 -0.5487  1.7080
  139OSM   C15S15185   6.361   6.721   7.662 -0.3705 -0.1213 -0.1593
  139OSM   H15S15186   6.469   6.740   7.642 -0.5890 -0.4407 -1.7526
  139OSM   H15T15187   6.341   6.630   7.603 -0.4505 -0.5132  0.4610
  139OSM   C16S15188   6.349   6.673   7.810 -0.8300  0.0507  0.2737
  139OSM   H16S15189   6.242   6.644   7.818 -0.6075 -1.2048 -1.0953
  139OSM   H16T15190   6.401   6.747   7.876  1.1195 -1.3246  0.3455
  139OSM   C17S15191   6.431   6.541   7.820 -0.0852  0.5267 -0.0239
  139OSM   H17S15192   6.515   6.553   7.748 -0.2870 -1.0495 -0.5662
  139OSM   H17T15193   6.371   6.452   7.790  1.5482 -0.2934 -0.9912
  139OSM   C18S15194   6.467   6.510   7.963 -0.0902  0.1135 -0.5655
  139OSM   H18S15195   6.515   6.594   8.016 -0.6548 -0.0237  0.1813
  139OSM   H18T15196   6.539   6.425   7.971 -0.5737 -0.2290  0.3199
  139OSM   H18U15197   6.385   6.471   8.028  2.8130 -3.5656  1.3207
  139OSM    C1F15198   6.117   7.000   6.401  0.2971  0.9224 -0.1131
  139OSM     OF15199   6.053   6.913   6.336  0.2855 -0.6477 -0.1952
  139OSM    C2F15200   6.056   7.099   6.496 -0.0721 -0.2201  0.1399
  139OSM    H2F15201   5.994   7.166   6.433  0.0081  0.2402  0.5435
  139OSM    H2G15202   6.135   7.168   6.534  0.3373  0.8685 -2.4689
  139OSM    C3F15203   5.961   7.035   6.597  0.6223  0.6481  0.3072
  139OSM    H3F15204   5.902   6.953   6.549 -0.5337  1.2536  0.6558
  139OSM    H3G15205   5.876   7.101   6.623 -0.0043 -0.1081  0.2060
  139OSM    C4F15206   6.014   6.977   6.731 -0.6198  0.0683 -0.7223
  139OSM    H4F15207   6.075   6.887   6.711 -1.5087 -0.0451 -3.2261
  139OSM    H4G15208   5.926   6.940   6.788 -0.1793  3.1156  2.3163
  139OSM    C5F15209   6.090   7.068   6.822  0.3071  0.3567 -0.3914
  139OSM    H5F15210   6.108   7.168   6.778  0.2000 -0.0196 -1.3158
  139OSM    H5G15211   6.194   7.028   6.825 -0.1431 -0.8460 -0.2471
  139OSM    C6F15212   6.029   7.087   6.961 -0.2690  0.1646 -0.1968
  139OSM    H6F15213   5.920   7.107   6.955 -0.7376 -1.9681  0.3317
  139OSM    H6G15214   6.073   7.174   7.015  0.2379  0.1447 -0.5689
  139OSM    C7F15215   6.064   6.965   7.047  0.2793 -0.1735  0.2276
  139OSM    H7F15216   6.169   6.934   7.027  0.6043  0.3181  1.1168
  139OSM    H7G15217   6.007   6.874   7.018  0.9167  0.1007 -2.1046
  139OSM    C8F15218   6.049   6.985   7.199  0.8556  0.2395 -0.6683
  139OSM    H8F15219   6.108   7.070   7.237  0.1652 -0.2335  1.5815
  139OSM    H8G15220   6.086   6.897   7.256  0.2862  0.5251  0.1651
  139OSM    C9F15221   5.904   7.019   7.238  0.0389  0.0311 -0.7121
  139OSM    H9F15222   5.846   7.048   7.149 -1.2561 -0.1507  0.0453
  139OSM   C10F15223   5.835   6.994   7.353  0.2197  0.1313  0.2695
  139OSM   H10F15224   5.732   7.029   7.367  0.3002  0.7024 -0.4810
  139OSM   C11F15225   5.896   6.922   7.465  0.5879 -0.5156  0.6007
  139OSM   H11F15226   5.991   6.971   7.496  0.4167 -0.3910  0.9392
  139OSM   H11G15227   5.929   6.831   7.411 -0.3349 -0.8480  0.5728
  139OSM   C12F15228   5.803   6.883   7.585  0.0208 -0.2594  0.1402
  139OSM   H12F15229   5.851   6.815   7.658 -0.4750  0.8823  1.5802
  139OSM   H12G15230   5.717   6.829   7.540  0.9708 -1.6562 -0.0598
  139OSM   C13F15231   5.762   6.998   7.668  0.5582 -0.4076  0.4427
  139OSM   H13F15232   5.690   7.053   7.605 -0.0354 -0.4780  1.0459
  139OSM   H13G15233   5.840   7.072   7.693  2.0142 -0.9522 -2.1348
  139OSM   C14F15234   5.696   6.958   7.806 -0.3522  0.4166 -0.3795
  139OSM   H14F15235   5.764   6.888   7.860 -1.5249 -0.9958 -0.6648
  139OSM   H14G15236   5.604   6.896   7.796 -0.4278 -0.6979  4.6194
  139OSM   C15F15237   5.679   7.079   7.902  0.2328 -0.2579  0.3585
  139OSM   H15F15238   5.611   7.153   7.856  0.7604 -0.8721 -1.4822
  139OSM   H15G15239   5.779   7.127   7.899 -1.3238  3.2640 -0.2763
  139OSM   C16F15240   5.625   7.051   8.042 -0.0541 -0.1278  0.4309
  139OSM   H16F15241   5.671   6.960   8.086  2.7106  0.5593 -0.8403
  139OSM   H16G15242   5.517   7.023   8.034  0.1590 -1.6344  2.1489
  139OSM   C17F15243   5.631   7.169   8.140 -0.2517  0.2956  0.5329
  139OSM   H17F15244   5.607   7.262   8.085 -0.4252  1.2030  2.0697
  139OSM   H17G15245   5.736   7.159   8.177  0.3054 -0.7988 -1.1918
  139OSM   C18F15246   5.528   7.158   8.257  0.0395  0.1712 -0.1992
  139OSM   H18F15247   5.574   7.203   8.348  0.0334  0.4801 -0.3442
  139OSM   H18G15248   5.516   7.052   8.289  0.0025  0.2749  0.1406
  139OSM   H18H15249   5.430   7.206   8.235  0.3305 -0.0682 -2.1090
  140OSM      N15250   1.721   4.589   5.958  0.4410  0.6109 -0.2596
  140OSM    C1515251   1.857   4.534   5.985 -0.2052  0.4948  0.1314
  140OSM   H15A15252   1.929   4.614   5.974  0.1100  0.0595 -1.1569
  140OSM   H15B15253   1.873   4.448   5.923  0.6667  0.1780  0.7711
  140OSM   H15C15254   1.864   4.492   6.084  2.8546  0.6273  0.0732
  140OSM    C1415255   1.745   4.682   5.849  0.0276  0.2585 -0.0223
  140OSM   H14A15256   1.767   4.628   5.758 -2.0134  0.3127 -0.6126
  140OSM   H14B15257   1.831   4.745   5.863  0.9787 -1.1970  0.9236
  140OSM   H14C15258   1.654   4.729   5.814  0.1123  0.1243 -0.4259
  140OSM    C1315259   1.625   4.477   5.928  0.4505 -0.0111  0.0157
  140OSM   H13A15260   1.634   4.404   6.007 -0.7721  2.0168  2.1297
  140OSM   H13B15261   1.639   4.422   5.835  2.4519  3.0502 -1.6808
  140OSM   H13C15262   1.522   4.507   5.926  0.6437  0.7177  0.5613
  140OSM    C1215263   1.677   4.660   6.092  0.5494 -0.1383  0.2953
  140OSM   H12A15264   1.576   4.697   6.083  0.1938 -1.2304 -0.3473
  140OSM   H12B15265   1.721   4.759   6.091 -2.4879  1.4163  1.9025
  140OSM    C1115266   1.703   4.596   6.232 -0.6899 -0.3811 -0.4457
  140OSM   H11A15267   1.659   4.494   6.230 -1.7140  0.0346  0.2843
  140OSM   H11B15268   1.659   4.659   6.312  2.4327  1.3020  0.1294
  140OSM      P15269   1.922   4.732   6.279  0.5125 -0.4907  0.0738
  140OSM    O1315270   2.067   4.709   6.303  0.3008  0.3296 -0.2722
  140OSM    O1415271   1.887   4.819   6.167  0.3418 -0.1174  0.1455
  140OSM    O1115272   1.854   4.798   6.406  0.1307 -0.2892 -0.1543
  140OSM    O1215273   1.842   4.593   6.266 -0.0714  0.4109 -0.0769
  140OSM    C1S15274   1.810   4.716   6.517 -1.1116 -0.7165  0.2652
  140OSM    H1S15275   1.792   4.608   6.502 -0.2636 -0.9210  0.6473
  140OSM    H1T15276   1.709   4.745   6.553 -0.6921  1.5603 -0.1783
  140OSM     NF15277   1.884   4.616   6.738  0.0948 -0.1357  0.7555
  140OSM    HNF15278   1.839   4.630   6.826  0.2019 -1.6803  1.0956
  140OSM    C2S15279   1.907   4.718   6.636 -0.0229  0.2424 -0.4362
  140OSM    H2S15280   2.001   4.694   6.580 -0.8220  0.9001 -2.1528
  140OSM    C3S15281   1.910   4.866   6.693  0.4384  0.2032  0.4386
  140OSM    H3S15282   1.812   4.883   6.742  0.5867 -1.3022  1.3339
  140OSM     O315283   1.928   4.966   6.587 -0.5930  0.4622  0.1656
  140OSM    HO315284   1.914   4.899   6.520 -1.9980  0.1415  0.7471
  140OSM    C4S15285   2.023   4.879   6.794 -0.0429  0.7403 -0.1123
  140OSM    H4S15286   2.122   4.893   6.747 -0.0692 -0.8536 -0.6844
  140OSM    C5S15287   2.003   4.871   6.927  0.2641  0.3403 -0.0562
  140OSM    H5S15288   1.898   4.872   6.959 -0.4022 -0.9358 -2.0369
  140OSM    C6S15289   2.105   4.898   7.033 -0.1504 -0.3072 -0.1446
  140OSM    H6S15290   2.206   4.891   6.989 -0.6381 -0.4593 -1.3003
  140OSM    H6T15291   2.106   4.813   7.104 -1.2085 -1.5694 -1.5695
  140OSM    C7S15292   2.089   5.030   7.100 -0.0132 -0.4664 -0.1635
  140OSM    H7S15293   1.993   5.044   7.155  0.8226  0.5734  1.0880
  140OSM    H7T15294   2.099   5.108   7.021 -0.3303 -0.6752 -0.4109
  140OSM    C8S15295   2.197   5.070   7.206 -0.1537  0.6874  0.0106
  140OSM    H8S15296   2.229   5.177   7.202 -0.5304  0.8356  0.7500
  140OSM    H8T15297   2.284   5.014   7.165 -0.6901  1.2192 -1.9162
  140OSM    C9S15298   2.163   5.015   7.341  0.2051  0.8029 -0.1718
  140OSM    H9S15299   2.253   4.994   7.404  0.0872 -0.8552 -0.5069
  140OSM    H9T15300   2.113   4.917   7.325  1.9995 -0.1152 -0.4920
  140OSM   C10S15301   2.057   5.097   7.428 -0.2020 -0.5640 -0.0764
  140OSM   H10S15302   1.958   5.084   7.378 -0.7355 -1.2085  1.1070
  140OSM   H10T15303   2.070   5.203   7.457  0.4032 -0.9855  1.2271
  140OSM   C11S15304   2.034   5.016   7.557 -0.0843 -0.3859 -0.4802
  140OSM   H11S15305   2.128   4.977   7.600 -0.7511 -0.7933  0.6628
  140OSM   H11T15306   1.975   4.923   7.538 -0.9793  0.4234 -1.8581
  140OSM   C12S15307   1.935   5.103   7.637 -0.0489 -0.4819  0.0437
  140OSM   H12S15308   1.843   5.129   7.580  0.5001 -0.5410 -0.8738
  140OSM   H12T15309   1.983   5.201   7.658 -1.4536  0.0084  1.1619
  140OSM   C13S15310   1.905   5.042   7.781 -0.0221 -0.2872  0.3226
  140OSM   H13S15311   2.004   5.031   7.829  1.3879 -0.0612 -2.3592
  140OSM   H13T15312   1.839   4.954   7.768 -2.0817  1.2853 -0.5712
  140OSM   C14S15313   1.828   5.147   7.861 -0.1921  0.5536  0.1617
  140OSM   H14S15314   1.728   5.151   7.811 -0.9007 -2.0204  1.1804
  140OSM   H14T15315   1.883   5.243   7.855  0.1114  0.3580 -0.2780
  140OSM   C15S15316   1.813   5.108   8.009  0.1144  0.0467 -0.3289
  140OSM   H15S15317   1.721   5.151   8.055  0.7408 -1.1553  2.2182
  140OSM   H15T15318   1.898   5.142   8.072  1.0887 -3.0424  0.2357
  140OSM   C16S15319   1.779   4.963   8.026 -0.5470 -0.4956  0.3244
  140OSM   H16S15320   1.870   4.901   8.010 -0.5180 -0.1054 -1.1681
  140OSM   H16T15321   1.697   4.940   7.955  0.5166 -0.4708 -0.9452
  140OSM   C17S15322   1.723   4.920   8.161 -0.0866 -0.5162  0.4192
  140OSM   H17S15323   1.734   5.010   8.225 -2.0690 -0.1489  0.2964
  140OSM   H17T15324   1.773   4.830   8.203  2.2072 -0.3030 -1.6446
  140OSM   C18S15325   1.570   4.909   8.144  0.3991 -0.6074  0.2598
  140OSM   H18S15326   1.536   4.992   8.080 -0.5870 -1.5997 -0.5433
  140OSM   H18T15327   1.528   4.917   8.247  2.1374 -1.6079  1.0905
  140OSM   H18U15328   1.541   4.813   8.096  0.9726 -0.8868  0.4597
  140OSM    C1F15329   1.922   4.486   6.716  0.3053 -0.2110  0.3632
  140OSM     OF15330   1.984   4.452   6.619 -0.0517 -0.0218 -0.0132
  140OSM    C2F15331   1.897   4.395   6.825  0.7493 -0.1521 -0.9553
  140OSM    H2F15332   1.789   4.372   6.830  1.0227 -1.2692  1.3792
  140OSM    H2G15333   1.923   4.449   6.919 -0.3773  1.4049 -1.4961
  140OSM    C3F15334   1.953   4.247   6.803 -0.2254 -0.1579  0.2304
  140OSM    H3F15335   2.064   4.248   6.801 -0.0856 -3.6325  0.5233
  140OSM    H3G15336   1.919   4.203   6.707 -0.0516  2.2397 -0.9957
  140OSM    C4F15337   1.909   4.159   6.914 -0.1018  0.0551 -0.7320
  140OSM    H4F15338   1.938   4.057   6.880  1.5286  1.2194 -3.0486
  140OSM    H4G15339   1.801   4.166   6.937  0.7025 -0.9822  4.7882
  140OSM    C5F15340   1.983   4.190   7.045 -0.5030 -0.0817  0.2836
  140OSM    H5F15341   1.968   4.298   7.067 -0.0926 -0.0958  0.6418
  140OSM    H5G15342   2.093   4.175   7.049  0.1650  3.6026 -0.1439
  140OSM    C6F15343   1.938   4.096   7.158  0.0610 -0.3189 -0.0579
  140OSM    H6F15344   1.934   3.991   7.121  0.8551 -0.5459  0.4763
  140OSM    H6G15345   1.830   4.113   7.172 -0.1199 -0.4034 -1.2665
  140OSM    C7F15346   2.031   4.109   7.280  0.5107  0.2145  0.1317
  140OSM    H7F15347   2.061   4.214   7.300  2.6520 -0.0470 -1.2979
  140OSM    H7G15348   2.122   4.049   7.256  0.9556 -0.0928  2.4224
  140OSM    C8F15349   1.979   4.048   7.410 -0.0590  0.3953  0.1828
  140OSM    H8F15350   2.054   4.037   7.491  0.3471 -1.9434 -0.4093
  140OSM    H8G15351   1.954   3.942   7.385 -1.5646  0.7747 -0.0230
  140OSM    C9F15352   1.849   4.107   7.467  0.5630 -0.5891 -0.2563
  140OSM    H9F15353   1.778   4.145   7.393  0.0521 -3.3490 -1.2957
  140OSM   C10F15354   1.813   4.104   7.600  0.0980  0.4920  0.2465
  140OSM   H10F15355   1.712   4.135   7.629 -0.8542 -0.3955 -1.9086
  140OSM   C11F15356   1.891   4.042   7.715  0.1306  0.7213 -0.0270
  140OSM   H11F15357   1.992   4.003   7.689  0.1276  0.2302  0.6607
  140OSM   H11G15358   1.841   3.952   7.755 -1.0080  0.9066 -0.9719
  140OSM   C12F15359   1.906   4.141   7.839 -0.0400  0.0161 -0.0494
  140OSM   H12F15360   1.806   4.170   7.878 -0.3486 -1.9292  0.7401
  140OSM   H12G15361   1.964   4.230   7.809  0.6066 -0.1289  0.7331
  140OSM   C13F15362   1.989   4.078   7.952 -0.4534 -0.3115 -0.4785
  140OSM   H13F15363   2.018   4.158   8.024  0.6785 -1.7729  0.7640
  140OSM   H13G15364   2.080   4.020   7.925  0.2942  0.2036  0.8420
  140OSM   C14F15365   1.918   3.983   8.039  0.1750  0.3828  0.3822
  140OSM   H14F15366   1.918   3.896   7.970 -0.9143  2.2737 -2.1671
  140OSM   H14G15367   1.812   4.013   8.054 -0.2194 -0.7254 -0.0228
  140OSM   C15F15368   1.995   3.944   8.160  0.3223  0.3954 -0.3224
  140OSM   H15F15369   2.100   3.920   8.133 -0.2947  1.2288 -4.0103
  140OSM   H15G15370   1.955   3.850   8.203 -1.0628  0.3318 -1.6519
  140OSM   C16F15371   1.969   4.059   8.263 -0.4286  0.5753  0.3187
  140OSM   H16F15372   1.861   4.085   8.261 -1.5297 -3.3314  0.8370
  140OSM   H16G15373   2.036   4.145   8.239  0.3378 -0.5306 -1.8008
  140OSM   C17F15374   2.010   4.025   8.405  0.1157  0.1346  0.4485
  140OSM   H17F15375   2.113   3.985   8.418 -0.7245 -1.7465  1.5870
  140OSM   H17G15376   1.934   3.953   8.442 -1.1690  0.3346 -1.6212
  140OSM   C18F15377   1.999   4.140   8.497 -0.1946  0.2317  0.1508
  140OSM   H18F15378   2.057   4.123   8.590  0.0203 -0.9415 -0.1829
  140OSM   H18G15379   1.895   4.170   8.524  0.5609  3.2422  0.0793
  140OSM   H18H15380   2.044   4.227   8.445 -0.9777 -0.0526 -1.0467
  141OSM      N15381   6.247   4.547   6.491  0.1369  0.4181 -0.3592
  141OSM    C1515382   6.343   4.629   6.577  0.1544 -0.1027  0.5174
  141OSM   H15A15383   6.306   4.729   6.592  0.8984  0.3048 -0.2399
  141OSM   H15B15384   6.441   4.634   6.531 -1.1262  1.6175 -2.2644
  141OSM   H15C15385   6.351   4.592   6.678 -2.6772  0.0571  0.8598
  141OSM    C1415386   6.296   4.407   6.489  0.1822  0.6137  0.6581
  141OSM   H14A15387   6.404   4.400   6.488  0.1676  0.4046  0.6566
  141OSM   H14B15388   6.264   4.355   6.400  2.5373  0.5879 -0.2281
  141OSM   H14C15389   6.257   4.354   6.574 -0.4840 -0.2600 -0.1774
  141OSM    C1315390   6.115   4.554   6.560  0.4417  0.2733  0.2413
  141OSM   H13A15391   6.045   4.484   6.515  4.1661 -3.1882 -0.7736
  141OSM   H13B15392   6.081   4.656   6.549  0.8570  0.4187  0.3150
  141OSM   H13C15393   6.129   4.519   6.661 -0.9443  1.3515  0.8347
  141OSM    C1215394   6.227   4.615   6.357 -0.3840  0.9138  0.8010
  141OSM   H12A15395   6.320   4.616   6.304  0.2260  1.0194  1.8429
  141OSM   H12B15396   6.208   4.719   6.380 -0.7068  1.0188  0.0919
  141OSM    C1115397   6.124   4.557   6.253  0.0982  0.2549  0.5753
  141OSM   H11A15398   6.140   4.448   6.240  1.5402  0.6256 -1.0930
  141OSM   H11B15399   6.152   4.607   6.158 -0.2986  0.5090  0.5909
  141OSM      P15400   5.865   4.501   6.271  0.2869 -0.1875 -0.3829
  141OSM    O1315401   5.743   4.579   6.274 -0.0994 -0.8666  0.4392
  141OSM    O1415402   5.882   4.411   6.158 -0.2121 -0.4596 -0.0289
  141OSM    O1115403   5.868   4.410   6.391 -1.0500  0.5878  0.2225
  141OSM    O1215404   5.987   4.591   6.295  0.0092 -0.0101  0.1897
  141OSM    C1S15405   5.936   4.286   6.409 -0.3975 -0.4299 -0.4538
  141OSM    H1S15406   6.044   4.304   6.427 -0.5901 -0.4224  0.7515
  141OSM    H1T15407   5.939   4.218   6.321  0.2966  0.0529 -0.8214
  141OSM     NF15408   5.952   4.111   6.577  0.0154 -0.3543  0.4143
  141OSM    HNF15409   5.935   4.017   6.550 -0.6359  0.4167 -2.1759
  141OSM    C2S15410   5.860   4.211   6.524  0.1251 -0.1448 -1.2628
  141OSM    H2S15411   5.851   4.283   6.608 -0.2294 -1.3546 -0.2172
  141OSM    C3S15412   5.726   4.153   6.471  1.0898 -0.4281 -0.2244
  141OSM    H3S15413   5.752   4.082   6.390 -0.9858  0.0756 -1.4063
  141OSM     O315414   5.640   4.254   6.404  0.1902  0.5128  0.5408
  141OSM    HO315415   5.692   4.334   6.412  0.2329  0.5864 -0.3839
  141OSM    C4S15416   5.645   4.082   6.574  0.0023  0.1082  0.0498
  141OSM    H4S15417   5.608   4.140   6.661 -0.8586 -1.8069  1.0221
  141OSM    C5S15418   5.608   3.950   6.553  0.1252  0.2760 -0.6659
  141OSM    H5S15419   5.648   3.902   6.463  3.4016  0.3147  0.6231
  141OSM    C6S15420   5.524   3.873   6.656 -0.6514  0.0683  0.9560
  141OSM    H6S15421   5.581   3.780   6.677  0.0484  0.4720  0.8784
  141OSM    H6T15422   5.433   3.828   6.610  0.3685 -0.1888 -0.9060
  141OSM    C7S15423   5.477   3.953   6.781  0.3286 -0.2676 -0.2340
  141OSM    H7S15424   5.399   4.021   6.740  1.0939  1.2070  0.6710
  141OSM    H7T15425   5.566   4.005   6.822  1.0375 -1.8550  0.3406
  141OSM    C8S15426   5.418   3.855   6.884  0.2030  0.6729  0.3548
  141OSM    H8S15427   5.494   3.787   6.927  0.8854 -0.2640 -2.1221
  141OSM    H8T15428   5.334   3.803   6.833 -1.2237  1.1080  2.1869
  141OSM    C9S15429   5.351   3.939   6.995 -0.0649  0.4317 -0.3022
  141OSM    H9S15430   5.273   3.999   6.942 -0.9039 -0.7507 -0.4279
  141OSM    H9T15431   5.423   4.010   7.042 -1.1846  0.3039  1.7249
  141OSM   C10S15432   5.291   3.868   7.115 -0.9986  0.9587  0.1031
  141OSM   H10S15433   5.358   3.786   7.148  1.3188  1.7891 -2.2323
  141OSM   H10T15434   5.198   3.818   7.079 -2.0738  1.4928  2.0300
  141OSM   C11S15435   5.262   3.963   7.228 -0.4406  0.1942  0.3519
  141OSM   H11S15436   5.168   4.018   7.205 -0.7180 -0.5799 -0.4589
  141OSM   H11T15437   5.346   4.032   7.249  1.4013 -2.2141  1.4152
  141OSM   C12S15438   5.225   3.886   7.360  0.2977  0.1034 -0.4225
  141OSM   H12S15439   5.297   3.805   7.383  0.9317  0.8194  0.1632
  141OSM   H12T15440   5.124   3.842   7.350 -0.4861  1.9252 -1.0035
  141OSM   C13S15441   5.231   3.986   7.480  0.6330 -0.6321 -0.3060
  141OSM   H13S15442   5.158   4.069   7.485  2.1356  0.6389  2.9051
  141OSM   H13T15443   5.336   4.024   7.487 -0.1589  1.4507  1.1777
  141OSM   C14S15444   5.198   3.914   7.606  0.0237  0.2158 -0.2910
  141OSM   H14S15445   5.276   3.838   7.631 -0.8111 -0.0221  1.7829
  141OSM   H14T15446   5.095   3.877   7.625  0.7970 -1.8712  0.0582
  141OSM   C15S15447   5.226   4.013   7.722 -0.3447  0.8307  0.1486
  141OSM   H15S15448   5.138   4.079   7.736 -2.5453 -1.9186  0.1597
  141OSM   H15T15449   5.324   4.056   7.693 -0.5056  0.5895 -0.7841
  141OSM   C16S15450   5.242   3.952   7.866  0.3302  0.0625 -0.5339
  141OSM   H16S15451   5.323   3.876   7.872 -2.5331 -3.1247  0.9617
  141OSM   H16T15452   5.145   3.902   7.886  0.1154  0.9995  0.9012
  141OSM   C17S15453   5.265   4.052   7.981  0.4109  0.2999 -0.2020
  141OSM   H17S15454   5.183   4.126   7.989  0.3819  0.2040  0.4241
  141OSM   H17T15455   5.351   4.119   7.960  0.4975  0.9616  1.9945
  141OSM   C18S15456   5.293   3.987   8.116 -0.5214  0.3064  0.1277
  141OSM   H18S15457   5.229   3.897   8.129 -1.3874  0.8554 -0.2609
  141OSM   H18T15458   5.281   4.067   8.192 -1.6522  0.6757 -0.4152
  141OSM   H18U15459   5.395   3.946   8.128 -0.6188  0.8085  3.4804
  141OSM    C1F15460   6.067   4.144   6.636  0.2953  0.3701  0.0674
  141OSM     OF15461   6.097   4.255   6.658 -0.3672  0.1070  0.4496
  141OSM    C2F15462   6.145   4.024   6.668  0.5855  0.0282  0.2313
  141OSM    H2F15463   6.212   4.000   6.583 -0.4733  1.8458 -1.1930
  141OSM    H2G15464   6.072   3.940   6.678 -1.2539  1.4082 -0.8944
  141OSM    C3F15465   6.231   4.043   6.792  0.1218 -1.3188 -0.3252
  141OSM    H3F15466   6.298   4.128   6.771 -0.1366 -1.4553 -1.7776
  141OSM    H3G15467   6.307   3.962   6.784  0.5307 -0.9273 -0.4136
  141OSM    C4F15468   6.156   4.041   6.923 -1.0286  0.2542 -0.6622
  141OSM    H4F15469   6.127   3.935   6.943  0.5627  0.0563  0.8620
  141OSM    H4G15470   6.069   4.110   6.925 -2.5022 -1.5068 -1.0029
  141OSM    C5F15471   6.246   4.081   7.052 -0.1149  0.0164 -0.5318
  141OSM    H5F15472   6.260   4.190   7.061 -1.5122  0.2517 -0.9767
  141OSM    H5G15473   6.345   4.030   7.047 -0.6111 -1.1936  1.0122
  141OSM    C6F15474   6.189   4.033   7.190 -0.3057  0.2532  0.5107
  141OSM    H6F15475   6.086   4.075   7.200 -0.4277  0.1188 -0.1685
  141OSM    H6G15476   6.253   4.074   7.271  1.4419 -0.1322 -0.6324
  141OSM    C7F15477   6.165   3.876   7.200  0.3011 -0.9333 -0.5516
  141OSM    H7F15478   6.259   3.831   7.161  1.2240 -0.2071  0.7733
  141OSM    H7G15479   6.086   3.860   7.123 -1.0331  0.6865  0.4107
  141OSM    C8F15480   6.125   3.820   7.337  0.5654  0.4754 -0.4519
  141OSM    H8F15481   6.214   3.850   7.396  0.6968  0.3644 -0.5915
  141OSM    H8G15482   6.128   3.709   7.327 -2.6671  0.1026  1.2557
  141OSM    C9F15483   5.994   3.851   7.406 -0.4168  0.8157 -0.2661
  141OSM    H9F15484   5.915   3.783   7.371  1.3832 -1.8917  0.6494
  141OSM   C10F15485   5.983   3.945   7.502 -0.5855  0.2680 -0.3873
  141OSM   H10F15486   5.882   3.959   7.542 -0.8423 -2.4689  0.1080
  141OSM   C11F15487   6.086   4.041   7.555  0.5738  0.0343  0.2777
  141OSM   H11F15488   6.061   4.147   7.530 -1.3202 -0.5389 -0.4348
  141OSM   H11G15489   6.187   4.026   7.512  0.4583  2.0375 -0.8102
  141OSM   C12F15490   6.101   4.037   7.712 -0.0815 -0.3326 -0.5351
  141OSM   H12F15491   5.997   4.051   7.748 -0.0571  0.6984 -0.8239
  141OSM   H12G15492   6.172   4.117   7.741  1.6066 -1.9757  0.0870
  141OSM   C13F15493   6.141   3.896   7.766  0.3634 -0.0220 -0.1560
  141OSM   H13F15494   6.237   3.873   7.715 -0.8481 -1.2149 -2.0182
  141OSM   H13G15495   6.059   3.830   7.730  1.8060 -1.8087 -0.2946
  141OSM   C14F15496   6.152   3.887   7.919 -0.0314  0.1663 -0.1536
  141OSM   H14F15497   6.243   3.945   7.944  1.3670 -0.5164 -3.1599
  141OSM   H14G15498   6.175   3.780   7.937  3.9101  0.8439 -0.2446
  141OSM   C15F15499   6.027   3.933   7.992  0.7336  0.1459 -0.2279
  141OSM   H15F15500   5.941   3.889   7.937  1.1955 -1.8316  0.5283
  141OSM   H15G15501   6.016   4.044   7.993  2.7904  0.4215  2.3024
  141OSM   C16F15502   6.020   3.889   8.138  0.4239  0.3302 -0.3409
  141OSM   H16F15503   6.012   3.779   8.148 -2.8877  0.6472  2.2938
  141OSM   H16G15504   5.930   3.918   8.196  0.9329 -1.8493  1.6421
  141OSM   C17F15505   6.138   3.943   8.223  0.5431 -0.5642  0.1383
  141OSM   H17F15506   6.144   4.052   8.207 -1.3385 -0.3869  0.4593
  141OSM   H17G15507   6.227   3.894   8.177  0.6265  0.3792 -0.7302
  141OSM   C18F15508   6.115   3.902   8.370  0.0293 -0.2294 -0.0279
  141OSM   H18F15509   6.023   3.954   8.402  0.4665  1.0669 -0.7841
  141OSM   H18G15510   6.198   3.940   8.434  1.2609 -2.0627 -0.4484
  141OSM   H18H15511   6.105   3.792   8.368 -4.4999 -0.0326 -3.4388
  142OSM      N15512   5.081   5.889   6.164  0.1393  0.4078  0.0282
  142OSM    C1515513   5.033   5.799   6.050  0.1354  0.2890 -0.5845
  142OSM   H15A15514   5.000   5.705   6.091 -1.5492  1.1687  0.1878
  142OSM   H15B15515   5.110   5.792   5.975  0.2619 -0.9295 -0.3602
  142OSM   H15C15516   4.945   5.842   6.005  0.0313 -1.1813 -1.8745
  142OSM    C1415517   5.137   6.009   6.104 -0.4361 -0.1905  0.3164
  142OSM   H14A15518   5.235   5.988   6.064 -0.2045  1.0332  0.1991
  142OSM   H14B15519   5.151   6.083   6.182  0.0548  0.0107  0.0436
  142OSM   H14C15520   5.068   6.046   6.029 -0.0161 -0.7728 -0.3622
  142OSM    C1315521   4.965   5.936   6.242  0.4813 -0.2852 -0.3136
  142OSM   H13A15522   4.999   6.014   6.308 -1.8820  0.5371  0.0250
  142OSM   H13B15523   4.908   5.865   6.300 -2.4794  2.0386 -0.1317
  142OSM   H13C15524   4.899   5.994   6.179  0.7639  1.5304  1.0031
  142OSM    C1215525   5.183   5.815   6.255  0.1206 -0.2336  0.0544
  142OSM   H12A15526   5.137   5.730   6.303 -2.0442  0.2644 -1.0447
  142OSM   H12B15527   5.205   5.877   6.340  2.5958 -0.4596 -0.3430
  142OSM    C1115528   5.309   5.765   6.183  0.7673 -0.1600  0.1915
  142OSM   H11A15529   5.284   5.712   6.089  0.4984  0.1825  0.0708
  142OSM   H11B15530   5.365   5.701   6.255 -0.0298  0.2636  1.2324
  142OSM      P15531   5.501   5.929   6.240 -0.6259  0.3317 -0.4090
  142OSM    O1315532   5.627   5.852   6.216 -0.2010  0.5925 -0.5584
  142OSM    O1415533   5.498   6.077   6.215  0.4291  0.1479  0.1737
  142OSM    O1115534   5.451   5.899   6.389 -0.5111 -0.4263  0.3712
  142OSM    O1215535   5.392   5.871   6.144 -0.4976  0.5600 -0.5123
  142OSM    C1S15536   5.516   5.963   6.494 -0.1555 -0.0071 -0.7990
  142OSM    H1S15537   5.500   6.072   6.481  1.6385  0.3940 -0.0162
  142OSM    H1T15538   5.626   5.952   6.489 -0.1266 -1.3856  1.4008
  142OSM     NF15539   5.494   6.011   6.745 -0.1459 -0.1494 -0.3550
  142OSM    HNF15540   5.554   5.974   6.815  0.4455 -0.9831 -1.2688
  142OSM    C2S15541   5.455   5.924   6.633  0.4699 -0.3112  0.0541
  142OSM    H2S15542   5.346   5.930   6.614  0.4708  0.3343  0.2238
  142OSM    C3S15543   5.487   5.778   6.663 -0.3917  0.0080 -0.3865
  142OSM    H3S15544   5.595   5.774   6.687 -0.5314  0.3762  0.3116
  142OSM     O315545   5.466   5.686   6.556 -0.1049 -0.0554  0.2520
  142OSM    HO315546   5.441   5.739   6.480 -0.0196  0.3170  0.4801
  142OSM    C4S15547   5.410   5.734   6.789  0.2512 -0.0399 -0.4296
  142OSM    H4S15548   5.464   5.747   6.884 -3.2027 -0.4422  1.7579
  142OSM    C5S15549   5.291   5.661   6.800 -0.0314 -0.2146  0.2366
  142OSM    H5S15550   5.242   5.622   6.709 -1.5255 -1.5319  1.5474
  142OSM    C6S15551   5.225   5.615   6.924  0.1144  0.0033 -0.1050
  142OSM    H6S15552   5.244   5.505   6.929  3.0544  0.5044  1.8508
  142OSM    H6T15553   5.116   5.638   6.927 -0.1316 -0.8713 -1.3512
  142OSM    C7S15554   5.295   5.667   7.048 -0.1486  0.3090  0.6198
  142OSM    H7S15555   5.296   5.778   7.054  0.3817  0.2829  1.1455
  142OSM    H7T15556   5.400   5.633   7.058 -0.3938 -0.1505  1.9571
  142OSM    C8S15557   5.235   5.600   7.178 -0.1060 -0.7152  0.6942
  142OSM    H8S15558   5.294   5.506   7.182  2.0145  0.5879  2.0343
  142OSM    H8T15559   5.126   5.592   7.161 -0.6032  3.7420  0.5671
  142OSM    C9S15560   5.255   5.684   7.306 -0.2542  0.0165 -0.4396
  142OSM    H9S15561   5.218   5.789   7.301  0.0121  0.0407 -2.6938
  142OSM    H9T15562   5.366   5.689   7.319 -0.0323 -1.9221 -1.3194
  142OSM   C10S15563   5.189   5.625   7.430  0.0208 -0.1487  0.4507
  142OSM   H10S15564   5.229   5.523   7.450 -0.6748 -0.4456  0.3615
  142OSM   H10T15565   5.080   5.610   7.413 -0.3088  0.5461  1.8801
  142OSM   C11S15566   5.216   5.707   7.554 -0.0327 -0.0560 -0.9568
  142OSM   H11S15567   5.186   5.812   7.532 -1.0693 -0.8505 -3.7293
  142OSM   H11T15568   5.324   5.706   7.580 -0.4048  1.2729  0.8839
  142OSM   C12S15569   5.144   5.652   7.676 -0.0034  0.6674  0.0474
  142OSM   H12S15570   5.195   5.556   7.699  0.8286  1.2419  0.6659
  142OSM   H12T15571   5.034   5.643   7.663  0.1579 -1.6295 -0.0889
  142OSM   C13S15572   5.160   5.738   7.806 -0.2327 -0.0728 -0.0867
  142OSM   H13S15573   5.132   5.844   7.790  0.4093  0.2651  0.9118
  142OSM   H13T15574   5.269   5.732   7.828 -0.1975 -3.4829 -0.6463
  142OSM   C14S15575   5.081   5.701   7.928 -0.0981 -0.2449  0.1786
  142OSM   H14S15576   4.973   5.678   7.915 -0.3998  1.9726 -1.9917
  142OSM   H14T15577   5.088   5.787   7.997  2.1145 -1.2663  1.3165
  142OSM   C15S15578   5.142   5.582   8.009 -0.3357 -0.4583  0.4289
  142OSM   H15S15579   5.247   5.602   8.040 -0.1344 -0.2294 -0.3729
  142OSM   H15T15580   5.152   5.492   7.945 -0.6424 -0.8569  0.9322
  142OSM   C16S15581   5.055   5.543   8.122  0.0242 -0.8003 -0.3051
  142OSM   H16S15582   4.978   5.474   8.081  1.3284 -2.1961 -0.5038
  142OSM   H16T15583   5.013   5.636   8.165  1.2274 -1.2672  2.0505
  142OSM   C17S15584   5.125   5.464   8.236 -0.0719 -0.3786  0.5357
  142OSM   H17S15585   5.222   5.512   8.261  1.0213 -1.7526 -0.8295
  142OSM   H17T15586   5.163   5.372   8.186  0.8113 -1.0748  2.3919
  142OSM   C18S15587   5.034   5.431   8.356 -0.1361 -0.3299 -0.1533
  142OSM   H18S15588   4.932   5.398   8.325  0.3381 -0.8149 -1.2867
  142OSM   H18T15589   5.028   5.523   8.418 -0.9522  0.6304 -1.5982
  142OSM   H18U15590   5.095   5.362   8.419  0.4087 -0.8273 -1.1933
  142OSM    C1F15591   5.474   6.142   6.743  0.0269 -0.1399  0.4821
  142OSM     OF15592   5.399   6.177   6.653  0.0752  0.4433  0.0325
  142OSM    C2F15593   5.552   6.229   6.838  0.5050 -0.7643 -0.1392
  142OSM    H2F15594   5.651   6.261   6.799  1.0505 -0.8493  1.1537
  142OSM    H2G15595   5.570   6.164   6.925  1.8623  0.0857  0.2469
  142OSM    C3F15596   5.455   6.343   6.882  0.4812  0.1045 -0.7608
  142OSM    H3F15597   5.360   6.312   6.931  1.5023 -3.3241 -0.6918
  142OSM    H3G15598   5.413   6.401   6.797 -0.7916  1.8760  0.9791
  142OSM    C4F15599   5.525   6.435   6.981 -0.5524 -0.7108  0.4408
  142OSM    H4F15600   5.588   6.509   6.927  0.2120 -1.3202  0.4696
  142OSM    H4G15601   5.581   6.370   7.052  0.3105 -0.6545 -0.1671
  142OSM    C5F15602   5.423   6.525   7.051 -0.2673 -0.8295 -0.2492
  142OSM    H5F15603   5.321   6.502   7.013 -0.7064 -0.1422  0.4852
  142OSM    H5G15604   5.443   6.632   7.030 -2.4747  0.2354  2.3983
  142OSM    C6F15605   5.436   6.517   7.206 -0.6149 -0.0535  0.0556
  142OSM    H6F15606   5.471   6.413   7.221 -0.3175 -0.0140 -0.3743
  142OSM    H6G15607   5.333   6.524   7.248 -0.7358 -0.7010 -0.1225
  142OSM    C7F15608   5.542   6.611   7.275  0.3920 -0.1498 -0.3683
  142OSM    H7F15609   5.629   6.626   7.207 -0.3447  0.6673 -1.1536
  142OSM    H7G15610   5.581   6.556   7.363  0.9059  1.2976  0.3386
  142OSM    C8F15611   5.479   6.736   7.340 -0.3213  0.0412  0.2620
  142OSM    H8F15612   5.541   6.765   7.428 -1.1561  2.4497  0.1265
  142OSM    H8G15613   5.389   6.701   7.395  0.8505  2.1140  3.8392
  142OSM    C9F15614   5.455   6.842   7.235 -0.1643  0.4372  0.1883
  142OSM    H9F15615   5.455   6.817   7.128  0.6250  0.3112  0.2105
  142OSM   C10F15616   5.439   6.971   7.266  0.7961 -0.3911 -0.7274
  142OSM   H10F15617   5.409   7.039   7.185  0.2572 -0.9776 -1.0285
  142OSM   C11F15618   5.435   7.033   7.406 -0.2045  0.8602 -0.4803
  142OSM   H11F15619   5.483   7.133   7.405 -0.4534  1.0485  1.9009
  142OSM   H11G15620   5.504   6.977   7.473 -0.6151  1.3785  0.3970
  142OSM   C12F15621   5.299   7.053   7.475 -1.2329 -0.1146 -0.1699
  142OSM   H12F15622   5.240   6.959   7.471 -0.2704 -0.7082 -0.8288
  142OSM   H12G15623   5.240   7.130   7.420  0.4530  1.2125 -0.2070
  142OSM   C13F15624   5.317   7.096   7.623 -0.9740 -0.4877  0.2571
  142OSM   H13F15625   5.369   7.194   7.622 -0.3534 -0.7767  2.0032
  142OSM   H13G15626   5.378   7.027   7.685 -1.9328 -1.1919  0.4435
  142OSM   C14F15627   5.181   7.120   7.689 -0.2185  0.4411 -0.0211
  142OSM   H14F15628   5.109   7.037   7.701  0.3041  0.1259  1.0661
  142OSM   H14G15629   5.123   7.197   7.635 -0.6983 -0.2131 -0.4504
  142OSM   C15F15630   5.203   7.177   7.832  0.8096 -0.6408 -0.4328
  142OSM   H15F15631   5.284   7.253   7.839  0.1383 -0.0097  0.8820
  142OSM   H15G15632   5.240   7.095   7.896 -0.9746 -1.7870 -0.7860
  142OSM   C16F15633   5.071   7.229   7.897 -0.2038 -0.3379 -0.5931
  142OSM   H16F15634   5.008   7.274   7.818  0.3571  0.7085 -0.4673
  142OSM   H16G15635   5.108   7.298   7.977  0.0662 -1.8194  0.6145
  142OSM   C17F15636   4.996   7.121   7.972  0.5412 -0.3409 -0.0135
  142OSM   H17F15637   5.068   7.069   8.039 -0.4204 -0.2739  1.0914
  142OSM   H17G15638   4.959   7.041   7.904  0.6699 -1.6749  1.4055
  142OSM   C18F15639   4.876   7.184   8.046  0.2094  0.1565  0.4325
  142OSM   H18F15640   4.904   7.272   8.107  1.7003  0.8103 -1.1103
  142OSM   H18G15641   4.828   7.101   8.102  0.4324 -0.2944 -0.0347
  142OSM   H18H15642   4.801   7.202   7.966  2.0839 -1.9795 -1.9826
  143OSM      N15643   2.848   2.939   5.907  0.3582  0.0682  0.1423
  143OSM    C1515644   2.811   3.074   5.841 -0.2083  0.2858 -0.1647
  143OSM   H15A15645   2.859   3.098   5.747 -0.7180  3.2617  0.2333
  143OSM   H15B15646   2.811   3.157   5.910 -1.0285 -0.7013  1.0705
  143OSM   H15C15647   2.706   3.062   5.819 -0.2281 -1.0571  0.5571
  143OSM    C1415648   2.825   2.830   5.807 -0.2166 -0.2874 -0.0300
  143OSM   H14A15649   2.902   2.836   5.731  0.4598 -2.0131  0.4806
  143OSM   H14B15650   2.724   2.837   5.769  0.4150 -0.1565 -1.7947
  143OSM   H14C15651   2.824   2.731   5.849  0.7688 -0.2299  0.1447
  143OSM    C1315652   2.993   2.947   5.946  0.4739  0.7857 -0.1297
  143OSM   H13A15653   3.013   3.013   6.029  1.4005 -0.9530  1.0725
  143OSM   H13B15654   3.047   2.989   5.862  0.4243  0.3983 -0.3597
  143OSM   H13C15655   3.030   2.847   5.958  0.6622  0.6152 -1.8365
  143OSM    C1215656   2.765   2.922   6.034 -0.3445 -0.0184 -0.4693
  143OSM   H12A15657   2.803   2.835   6.085 -1.8192 -0.9900 -0.9715
  143OSM   H12B15658   2.662   2.903   6.011 -1.2432 -0.0247  3.0103
  143OSM    C1115659   2.764   3.045   6.135 -0.1287  0.1268  0.4632
  143OSM   H11A15660   2.868   3.081   6.142 -0.7917  2.2496  0.1851
  143OSM   H11B15661   2.733   3.008   6.235  1.1285  0.6040  1.0509
  143OSM      P15662   2.521   3.132   6.072 -0.0680  0.1570  0.1124
  143OSM    O1315663   2.467   3.268   6.054  0.2618 -0.5931  0.4398
  143OSM    O1415664   2.491   3.027   5.971  0.8041 -0.1644 -0.0940
  143OSM    O1115665   2.479   3.073   6.207  0.2618 -0.3356 -0.2251
  143OSM    O1215666   2.675   3.148   6.096  0.5052 -0.3933  0.6092
  143OSM    C1S15667   2.483   3.147   6.333 -0.0597 -0.1169  1.0196
  143OSM    H1S15668   2.430   3.244   6.324  0.7849  0.3308  0.8158
  143OSM    H1T15669   2.588   3.171   6.358  0.4414 -0.5124 -0.5522
  143OSM     NF15670   2.410   3.168   6.560  0.2236  0.3102 -0.0160
  143OSM    HNF15671   2.478   3.187   6.630 -1.6439 -0.0648  2.0057
  143OSM    C2S15672   2.425   3.069   6.455 -0.1320  0.7872 -0.4586
  143OSM    H2S15673   2.325   3.026   6.433  0.5694 -0.1741 -1.9332
  143OSM    C3S15674   2.519   2.950   6.492  0.6478  0.0377  0.5097
  143OSM    H3S15675   2.621   2.978   6.527  1.0564 -0.2909 -0.3999
  143OSM     O315676   2.559   2.889   6.367 -0.1473  0.0253 -0.0784
  143OSM    HO315677   2.519   2.945   6.301  0.3420  1.2250  0.6118
  143OSM    C4S15678   2.449   2.851   6.575 -0.4502  0.1533  0.7266
  143OSM    H4S15679   2.408   2.764   6.522  1.3240 -1.3580  1.7554
  143OSM    C5S15680   2.453   2.847   6.709  0.3281  0.3219 -0.8847
  143OSM    H5S15681   2.510   2.928   6.756 -0.3248 -0.4253  1.3481
  143OSM    C6S15682   2.403   2.727   6.790  0.2638 -0.1885 -0.3152
  143OSM    H6S15683   2.498   2.673   6.814  0.4123 -0.7942 -2.0420
  143OSM    H6T15684   2.362   2.649   6.722 -1.8857  1.2773 -0.7810
  143OSM    C7S15685   2.318   2.748   6.915 -0.7421 -0.5888 -0.3838
  143OSM    H7S15686   2.234   2.813   6.882 -0.6649 -0.9660 -1.3601
  143OSM    H7T15687   2.378   2.796   6.995  0.3692  1.0955 -2.1443
  143OSM    C8S15688   2.270   2.608   6.971 -0.2350 -0.2643  0.1317
  143OSM    H8S15689   2.363   2.551   6.995  0.1215  0.7495  1.2586
  143OSM    H8T15690   2.214   2.561   6.888 -2.2850 -0.2311  1.4395
  143OSM    C9S15691   2.182   2.623   7.086  0.0179  0.0860  0.5555
  143OSM    H9S15692   2.139   2.523   7.107  0.6349 -0.7392 -1.8737
  143OSM    H9T15693   2.096   2.691   7.069 -0.0482 -0.6116 -2.3044
  143OSM   C10S15694   2.241   2.668   7.221  0.0254  0.2066 -0.2187
  143OSM   H10S15695   2.309   2.753   7.199 -1.4036  1.6650  0.7148
  143OSM   H10T15696   2.306   2.584   7.253 -0.1052  0.9813  2.3140
  143OSM   C11S15697   2.148   2.706   7.341 -0.2759  0.2382  0.1754
  143OSM   H11S15698   2.072   2.625   7.336  3.2783 -3.6401  2.3019
  143OSM   H11T15699   2.101   2.807   7.333  1.3714  0.9372 -1.2810
  143OSM   C12S15700   2.218   2.699   7.477 -0.0463 -0.0231  0.3248
  143OSM   H12S15701   2.301   2.772   7.474  0.8584 -1.0260 -3.1266
  143OSM   H12T15702   2.253   2.595   7.497  0.1577 -0.2263 -1.0212
  143OSM   C13S15703   2.130   2.725   7.609  0.0671  0.8200  0.6655
  143OSM   H13S15704   2.036   2.667   7.606 -0.6270  1.7820  2.3244
  143OSM   H13T15705   2.114   2.835   7.611  0.8919  0.9359  1.9716
  143OSM   C14S15706   2.200   2.673   7.732 -0.1957 -0.6719 -0.5363
  143OSM   H14S15707   2.304   2.711   7.724 -1.6845  4.2938  0.2361
  143OSM   H14T15708   2.205   2.562   7.735  2.0042 -0.5986  0.2771
  143OSM   C15S15709   2.141   2.729   7.868  0.8062 -0.1301 -0.4231
  143OSM   H15S15710   2.031   2.728   7.854  0.3344 -0.9129  2.6328
  143OSM   H15T15711   2.172   2.835   7.882  0.1429  0.1362 -0.9611
  143OSM   C16S15712   2.181   2.650   7.991  0.5744  0.1779 -0.4032
  143OSM   H16S15713   2.288   2.646   8.020  0.1856 -0.2249  1.0908
  143OSM   H16T15714   2.141   2.548   7.973 -0.2779  0.6384 -1.2038
  143OSM   C17S15715   2.099   2.694   8.110 -0.8242 -0.6331  0.9067
  143OSM   H17S15716   1.989   2.703   8.092 -0.6471  0.1348  0.1600
  143OSM   H17T15717   2.130   2.797   8.136 -1.0541  0.2519 -1.9638
  143OSM   C18S15718   2.120   2.608   8.232  0.2631  1.1610  0.0989
  143OSM   H18S15719   2.227   2.599   8.260  0.3291 -1.9045 -0.7168
  143OSM   H18T15720   2.083   2.504   8.214  1.2489  0.6369  1.0057
  143OSM   H18U15721   2.066   2.650   8.319  0.4972  1.8564 -0.0896
  143OSM    C1F15722   2.313   3.261   6.569 -0.0848 -0.0797 -0.3962
  143OSM     OF15723   2.229   3.272   6.484 -0.8199  0.0304 -0.5704
  143OSM    C2F15724   2.324   3.359   6.678 -0.1313 -0.1448  0.6329
  143OSM    H2F15725   2.289   3.458   6.640  1.0812  0.5411  1.2571
  143OSM    H2G15726   2.433   3.369   6.696  0.1848 -2.3301  0.2440
  143OSM    C3F15727   2.241   3.333   6.807 -0.9721  0.2088 -0.0546
  143OSM    H3F15728   2.255   3.233   6.852 -1.7266  0.6074  1.1149
  143OSM    H3G15729   2.134   3.352   6.783 -0.9479 -1.5295 -1.7909
  143OSM    C4F15730   2.277   3.448   6.902 -0.7306 -0.2703 -0.5774
  143OSM    H4F15731   2.292   3.547   6.855 -1.2991  0.0181 -0.1654
  143OSM    H4G15732   2.378   3.414   6.935 -0.5308 -0.5396 -1.4431
  143OSM    C5F15733   2.186   3.458   7.022  0.1795  0.3355 -0.2480
  143OSM    H5F15734   2.192   3.360   7.074  0.2526  1.0274  1.0849
  143OSM    H5G15735   2.081   3.476   6.990 -0.4813  1.5569  2.3575
  143OSM    C6F15736   2.220   3.566   7.118  0.4037 -0.0622  0.2251
  143OSM    H6F15737   2.203   3.665   7.070 -0.4692 -0.5842 -0.5712
  143OSM    H6G15738   2.328   3.564   7.144  0.2993 -1.5206  0.6282
  143OSM    C7F15739   2.129   3.563   7.243 -0.4460 -0.3120 -0.2632
  143OSM    H7F15740   2.139   3.465   7.293 -0.1649 -0.4648 -0.6108
  143OSM    H7G15741   2.026   3.569   7.201  0.3185  1.2951 -2.1196
  143OSM    C8F15742   2.156   3.681   7.332  0.1480 -0.1334  0.2951
  143OSM    H8F15743   2.140   3.780   7.285  2.7529 -0.4506 -1.4427
  143OSM    H8G15744   2.261   3.688   7.368 -0.7110 -0.3445  3.0831
  143OSM    C9F15745   2.070   3.665   7.453 -0.2755  0.0378  0.3008
  143OSM    H9F15746   1.965   3.698   7.443 -0.7742 -1.5061  0.0946
  143OSM   C10F15747   2.096   3.595   7.569 -0.1117 -0.0686  0.6005
  143OSM   H10F15748   2.012   3.570   7.635 -0.6279  2.0757  0.8071
  143OSM   C11F15749   2.231   3.530   7.608  1.5778  0.1561  0.5485
  143OSM   H11F15750   2.311   3.597   7.570  2.3437 -0.0631  1.7505
  143OSM   H11G15751   2.256   3.434   7.557  0.8593  0.1956  0.1115
  143OSM   C12F15752   2.241   3.495   7.755  0.0442 -1.4453 -0.3858
  143OSM   H12F15753   2.345   3.457   7.760  0.8109  0.1175 -2.5089
  143OSM   H12G15754   2.179   3.409   7.786  2.6912 -2.5118  2.4325
  143OSM   C13F15755   2.221   3.611   7.853 -0.5988 -0.1365 -0.2431
  143OSM   H13F15756   2.112   3.631   7.861  0.0351  3.6067  1.3645
  143OSM   H13G15757   2.272   3.708   7.834 -0.5320 -0.4031 -1.4992
  143OSM   C14F15758   2.274   3.571   7.992  0.0316 -0.3202 -0.1205
  143OSM   H14F15759   2.385   3.574   7.989  0.0361  2.2419  0.5008
  143OSM   H14G15760   2.247   3.465   8.015  1.9672 -0.8350 -0.0025
  143OSM   C15F15761   2.221   3.656   8.108  0.5569  0.1825  0.8869
  143OSM   H15F15762   2.128   3.698   8.064  0.2139 -0.7437  0.6979
  143OSM   H15G15763   2.286   3.745   8.121  1.3851 -0.1047 -0.8501
  143OSM   C16F15764   2.182   3.589   8.243 -0.2726 -0.1434  1.4908
  143OSM   H16F15765   2.270   3.525   8.265 -0.9235 -2.7738 -2.5800
  143OSM   H16G15766   2.097   3.520   8.229  0.7046 -1.2612  0.8719
  143OSM   C17F15767   2.159   3.690   8.353 -0.5061 -0.7515  0.1971
  143OSM   H17F15768   2.058   3.734   8.339 -0.0716 -0.6444 -3.8329
  143OSM   H17G15769   2.221   3.779   8.329 -0.6988 -1.0325 -1.5307
  143OSM   C18F15770   2.176   3.640   8.495  0.4958 -0.0257 -0.6002
  143OSM   H18F15771   2.167   3.723   8.568  1.0005 -1.6205  1.3853
  143OSM   H18G15772   2.268   3.579   8.510 -0.1699 -0.7084  0.9994
  143OSM   H18H15773   2.091   3.573   8.518  0.8723 -0.9912 -1.8768
  144OSM      N15774   1.002   6.768   6.488  0.6628  0.0636  0.7138
  144OSM    C1515775   1.072   6.636   6.495  0.2606 -1.1117 -0.2703
  144OSM   H15A15776   1.103   6.624   6.598 -0.6890  0.8996  0.2906
  144OSM   H15B15777   1.160   6.625   6.433  0.0750  0.5206 -0.8511
  144OSM   H15C15778   1.007   6.553   6.472  0.1329 -1.0025 -0.3010
  144OSM    C1415779   0.862   6.749   6.547  0.2868  1.1387 -0.3134
  144OSM   H14A15780   0.809   6.841   6.566 -0.1589  1.1847 -1.6704
  144OSM   H14B15781   0.872   6.697   6.641 -0.0818 -1.1160 -1.4713
  144OSM   H14C15782   0.800   6.693   6.479  1.4860  0.3129 -0.7468
  144OSM    C1315783   1.076   6.860   6.577 -0.3989 -0.3032 -0.6748
  144OSM   H13A15784   1.028   6.957   6.579  1.7876  0.8396  0.9709
  144OSM   H13B15785   1.179   6.876   6.546 -0.7957  2.8580 -0.7538
  144OSM   H13C15786   1.076   6.824   6.679 -1.9320  0.6245 -0.3219
  144OSM    C1215787   0.999   6.811   6.337 -0.4657  0.9826 -0.3781
  144OSM   H12A15788   0.939   6.737   6.286  0.3425 -1.6195  2.1858
  144OSM   H12B15789   1.090   6.800   6.280  0.2362 -2.2013  1.0923
  144OSM    C1115790   0.939   6.950   6.304 -0.0696  0.4545  0.6181
  144OSM   H11A15791   0.847   6.967   6.363 -0.7735 -1.8190  0.2819
  144OSM   H11B15792   0.903   6.946   6.199 -0.4216  0.0588  0.7501
  144OSM      P15793   1.164   7.060   6.236  0.1894 -0.1925  0.2287
  144OSM    O1315794   1.227   6.926   6.215 -0.0792 -0.9454 -0.4307
  144OSM    O1415795   1.130   7.134   6.117  0.0628 -0.1438  0.4908
  144OSM    O1115796   1.269   7.144   6.323 -0.6388  0.3949  0.0538
  144OSM    O1215797   1.038   7.049   6.331 -1.0798  0.2089  0.1450
  144OSM    C1S15798   1.218   7.254   6.391  0.6261  0.0762  0.2853
  144OSM    H1S15799   1.125   7.297   6.347  0.5273 -0.7065 -0.2994
  144OSM    H1T15800   1.296   7.333   6.387  2.5063 -1.7509 -0.5778
  144OSM     NF15801   1.161   7.373   6.607  0.1927  0.0331  0.0360
  144OSM    HNF15802   1.229   7.446   6.609 -0.2453  0.5187 -1.6370
  144OSM    C2S15803   1.207   7.244   6.552 -0.3594  0.3008 -0.4441
  144OSM    H2S15804   1.139   7.158   6.566  0.9920 -0.7098  0.1668
  144OSM    C3S15805   1.341   7.197   6.623  0.5718  0.3062  0.4083
  144OSM    H3S15806   1.413   7.282   6.617  0.2155  0.5754 -0.1494
  144OSM     O315807   1.417   7.084   6.563  0.4567 -0.5516  0.3800
  144OSM    HO315808   1.371   7.070   6.481 -1.2007 -1.1607  1.3635
  144OSM    C4S15809   1.314   7.177   6.773  0.3412 -0.1492  1.3375
  144OSM    H4S15810   1.331   7.266   6.834  1.5727  1.7328 -1.5340
  144OSM    C5S15811   1.282   7.055   6.825  0.5027 -0.1793  0.0704
  144OSM    H5S15812   1.290   6.970   6.756  2.5137 -2.0475  2.4003
  144OSM    C6S15813   1.260   7.028   6.967  0.7153  0.0257  0.2415
  144OSM    H6S15814   1.325   6.943   6.995  4.4523  1.7648 -2.3247
  144OSM    H6T15815   1.153   6.999   6.978 -0.2149  2.7612 -0.7552
  144OSM    C7S15816   1.275   7.151   7.057  0.6463  0.1663 -0.8820
  144OSM    H7S15817   1.209   7.235   7.029 -3.5198 -2.6048 -0.2079
  144OSM    H7T15818   1.382   7.181   7.048  0.4497  1.0518 -0.3737
  144OSM    C8S15819   1.236   7.111   7.198 -0.2042  0.5551 -0.1208
  144OSM    H8S15820   1.297   7.024   7.231  0.6440  1.0065 -0.4659
  144OSM    H8T15821   1.130   7.079   7.202 -0.7235  2.2791  0.6127
  144OSM    C9S15822   1.257   7.226   7.301 -0.2425  0.0229 -0.0942
  144OSM    H9S15823   1.182   7.304   7.275 -2.0919 -1.1580  1.4221
  144OSM    H9T15824   1.350   7.286   7.288  0.6419 -1.0534  1.0567
  144OSM   C10S15825   1.233   7.188   7.445 -0.0344 -0.4563 -0.4531
  144OSM   H10S15826   1.312   7.120   7.480 -2.0310 -2.0822  1.1442
  144OSM   H10T15827   1.142   7.125   7.460  1.1538 -2.4486 -1.3018
  144OSM   C11S15828   1.225   7.313   7.540  0.2666  1.2798  0.0651
  144OSM   H11S15829   1.148   7.381   7.499 -0.7342 -0.7928 -1.6861
  144OSM   H11T15830   1.324   7.364   7.532  1.6963 -1.3370  0.0940
  144OSM   C12S15831   1.183   7.264   7.677 -0.2100 -0.4879 -0.7013
  144OSM   H12S15832   1.245   7.176   7.705  1.0674  0.8510  0.9573
  144OSM   H12T15833   1.075   7.239   7.682 -0.8879  2.1665 -0.4319
  144OSM   C13S15834   1.209   7.377   7.780 -0.1883 -0.0346  0.4544
  144OSM   H13S15835   1.151   7.470   7.760 -0.0506 -0.7021 -3.8842
  144OSM   H13T15836   1.310   7.409   7.745 -0.1378 -0.6807 -0.0021
  144OSM   C14S15837   1.223   7.313   7.921 -0.4739 -0.6504 -0.8413
  144OSM   H14S15838   1.323   7.267   7.931 -1.7881 -3.5741  0.0154
  144OSM   H14T15839   1.143   7.235   7.925 -1.8558  0.6159 -2.3640
  144OSM   C15S15840   1.199   7.411   8.046 -0.2655 -0.2639  0.1303
  144OSM   H15S15841   1.095   7.445   8.030  0.2292  0.0061 -3.0728
  144OSM   H15T15842   1.259   7.503   8.031 -0.0261 -0.9752 -4.8631
  144OSM   C16S15843   1.233   7.349   8.182  0.3487  0.2289 -0.3452
  144OSM   H16S15844   1.339   7.317   8.172  0.4429  0.1237  0.7873
  144OSM   H16T15845   1.154   7.273   8.201 -1.5887  2.0742 -0.6934
  144OSM   C17S15846   1.227   7.461   8.287  0.6059 -0.1902  0.2609
  144OSM   H17S15847   1.121   7.492   8.298  0.8444  2.3606 -2.9461
  144OSM   H17T15848   1.292   7.536   8.236  0.4538 -0.1704  0.0943
  144OSM   C18S15849   1.301   7.432   8.420  0.8396 -0.0551  0.0936
  144OSM   H18S15850   1.259   7.342   8.471  0.9223 -0.1286  0.0321
  144OSM   H18T15851   1.291   7.522   8.485  1.1592 -0.5110  0.7871
  144OSM   H18U15852   1.405   7.401   8.393  0.3054 -1.0679 -0.9027
  144OSM    C1F15853   1.033   7.407   6.595 -0.1646  0.2737 -0.2627
  144OSM     OF15854   0.956   7.320   6.561  0.2611 -0.0612 -0.0805
  144OSM    C2F15855   0.990   7.552   6.622 -0.7984  0.0429  0.4295
  144OSM    H2F15856   0.897   7.571   6.566 -0.8767 -2.6749 -0.4939
  144OSM    H2G15857   1.067   7.630   6.603 -0.3014 -0.6309 -0.3598
  144OSM    C3F15858   0.950   7.573   6.769  0.5856 -0.4980 -0.5100
  144OSM    H3F15859   0.842   7.551   6.775 -0.0156  1.2248 -3.2462
  144OSM    H3G15860   0.966   7.683   6.783 -0.8168 -0.1902 -1.2114
  144OSM    C4F15861   1.029   7.509   6.883 -0.5323  0.2226 -0.0246
  144OSM    H4F15862   1.136   7.530   6.865  0.3642 -1.2777  2.9405
  144OSM    H4G15863   1.007   7.400   6.880 -1.3216  0.3122  1.5754
  144OSM    C5F15864   0.996   7.567   7.022  0.2879  0.0336  0.5061
  144OSM    H5F15865   0.886   7.563   7.036  0.3870  1.6674  2.2064
  144OSM    H5G15866   1.010   7.677   7.027  2.5048 -0.1086 -1.1919
  144OSM    C6F15867   1.068   7.492   7.130  0.2781 -0.2460  0.0711
  144OSM    H6F15868   1.176   7.484   7.101  0.1255 -0.0103 -0.5796
  144OSM    H6G15869   1.024   7.390   7.142  2.7300 -1.2205  1.4665
  144OSM    C7F15870   1.067   7.561   7.267  0.3665  0.0470  0.0103
  144OSM    H7F15871   1.074   7.668   7.240  0.8315  0.1419  0.5082
  144OSM    H7G15872   1.146   7.517   7.331 -1.1732 -0.2214  1.7892
  144OSM    C8F15873   0.931   7.553   7.337 -0.3663  0.5047  0.4923
  144OSM    H8F15874   0.904   7.449   7.366  2.7965 -0.0597  1.9058
  144OSM    H8G15875   0.856   7.591   7.264 -0.8754 -3.3857 -1.2914
  144OSM    C9F15876   0.943   7.643   7.458  0.9883  0.2575  0.7470
  144OSM    H9F15877   0.971   7.747   7.434 -2.4470  0.4681 -3.5267
  144OSM   C10F15878   0.888   7.620   7.582 -0.1231  0.4082  0.0616
  144OSM   H10F15879   0.910   7.699   7.655  1.8662 -0.5868  0.6007
  144OSM   C11F15880   0.819   7.497   7.637 -0.0557  0.8545 -0.3313
  144OSM   H11F15881   0.893   7.422   7.673  0.2867  1.4112  0.1281
  144OSM   H11G15882   0.766   7.448   7.553  1.0028  0.3330 -0.7076
  144OSM   C12F15883   0.706   7.520   7.739 -0.6284 -0.0199  0.1601
  144OSM   H12F15884   0.646   7.427   7.747  0.6458 -0.9066 -0.2845
  144OSM   H12G15885   0.639   7.598   7.696  0.5287  1.0274  0.2000
  144OSM   C13F15886   0.762   7.553   7.879 -0.5078 -0.2029  1.0429
  144OSM   H13F15887   0.833   7.636   7.859 -1.2408  0.0343 -0.8151
  144OSM   H13G15888   0.815   7.462   7.914 -1.3182 -1.2156 -0.2501
  144OSM   C14F15889   0.663   7.604   7.984  0.1267  0.3235  0.0381
  144OSM   H14F15890   0.584   7.527   7.997  0.9756 -0.8329 -1.4198
  144OSM   H14G15891   0.612   7.693   7.941  0.6491  0.8151  0.4036
  144OSM   C15F15892   0.739   7.635   8.120  0.3748 -0.4142 -0.2456
  144OSM   H15F15893   0.786   7.736   8.114  1.9835 -1.1059  0.1368
  144OSM   H15G15894   0.829   7.572   8.133  0.1140 -0.7090  0.1413
  144OSM   C16F15895   0.636   7.639   8.243 -0.0740  0.2343  0.6209
  144OSM   H16F15896   0.589   7.539   8.254  2.0441 -1.0563 -1.0441
  144OSM   H16G15897   0.547   7.700   8.216 -0.1609  0.2494  0.9384
  144OSM   C17F15898   0.700   7.680   8.377 -0.2730 -0.0277  0.0928
  144OSM   H17F15899   0.627   7.692   8.460  0.3304 -0.1484  0.6434
  144OSM   H17G15900   0.726   7.782   8.343 -0.4329 -0.6833 -2.1967
  144OSM   C18F15901   0.830   7.608   8.419  0.1724 -0.7350 -0.3638
  144OSM   H18F15902   0.910   7.612   8.343  1.0818  0.3742  0.6024
  144OSM   H18G15903   0.810   7.502   8.445 -1.3277 -0.2829  0.4817
  144OSM   H18H15904   0.860   7.654   8.516 -3.7240 -0.9097  1.1190
  145SAPE     N15905   6.260   0.279  10.606  0.1195 -0.1414  0.0102
  145SAPE   HN115906   6.252   0.372  10.652 -1.7971 -0.5667  0.5954
  145SAPE   HN215907   6.166   0.256  10.569 -0.4975 -0.4766  1.7198
  145SAPE   HN315908   6.278   0.204  10.675 -1.3542 -1.2021 -0.7093
  145SAPE   C1215909   6.363   0.277  10.497  0.3445 -0.2540  0.2888
  145SAPE  H12A15910   6.325   0.337  10.412  0.9541  1.4567  1.1909
  145SAPE  H12B15911   6.390   0.172  10.472  0.0664 -0.0665 -0.8657
  145SAPE   C1115912   6.493   0.340  10.531  0.0065  0.9774  0.5291
  145SAPE  H11A15913   6.560   0.338  10.443 -1.8024  2.0430 -0.9409
  145SAPE  H11B15914   6.545   0.279  10.608  0.7091  0.2509 -0.4918
  145SAPE     P15915   6.573   0.559  10.668 -0.5643 -1.0484  0.3582
  145SAPE   O1315916   6.573   0.707  10.632 -0.2459  0.2931 -0.0331
  145SAPE   O1415917   6.546   0.516  10.808  0.0255  0.0926 -0.0229
  145SAPE   O1215918   6.479   0.480  10.568  0.5063 -0.1631  0.2471
  145SAPE   O1115919   6.713   0.498  10.613  0.7017  0.4784  0.0944
  145SAPE    C115920   6.839   0.548  10.656 -0.2509  0.2246  0.1291
  145SAPE    HA15921   6.843   0.565  10.766 -0.8173  0.7766  0.0681
  145SAPE    HB15922   6.920   0.479  10.626 -1.0583 -0.6936 -0.0089
  145SAPE    C215923   6.872   0.682  10.579 -0.3404 -0.6132 -0.4743
  145SAPE    HS15924   6.802   0.760  10.618  2.7091  0.7231  2.9978
  145SAPE   O2115925   6.850   0.665  10.439  0.0045  0.2905  0.2735
  145SAPE   C2115926   6.846   0.778  10.374  0.0464  0.3846  0.1752
  145SAPE   O2215927   6.860   0.891  10.428  0.0422  0.4891  0.2049
  145SAPE   C2215928   6.794   0.747  10.232  0.2087 -0.0430  0.0697
  145SAPE   H2R15929   6.788   0.637  10.215  1.9386 -0.3298  1.0685
  145SAPE   H2S15930   6.691   0.789  10.229  1.0671  2.0762 -1.3499
  145SAPE    C315931   7.018   0.729  10.617  0.4863  0.7209 -0.8923
  145SAPE    HX15932   7.026   0.755  10.725 -1.7963  1.5324 -0.8588
  145SAPE    HY15933   7.045   0.819  10.558  0.9063 -0.5429 -2.7231
  145SAPE   O3115934   7.101   0.616  10.577 -0.9284 -0.0400  0.5409
  145SAPE   C3115935   7.229   0.649  10.544 -0.2679 -0.1001 -0.3330
  145SAPE   O3215936   7.283   0.756  10.569 -0.0989  0.3700 -0.0137
  145SAPE   C3215937   7.302   0.535  10.476  0.0583  0.1874  1.1157
  145SAPE   H2X15938   7.216   0.475  10.437  0.3515  0.0987  0.5935
  145SAPE   H2Y15939   7.353   0.471  10.550  1.6305  0.8729  0.6638
  145SAPE   C2315940   6.884   0.806  10.122  0.4420 -0.0730  0.6641
  145SAPE   H3R15941   6.990   0.785  10.148  0.2474 -0.4852  1.1393
  145SAPE   H3S15942   6.870   0.914  10.141  2.2345  0.2944  0.1245
  145SAPE   C2415943   6.861   0.768   9.980  0.1488 -0.1917  0.3463
  145SAPE   H4R15944   6.940   0.819   9.920 -0.6617  0.0342 -0.5509
  145SAPE   H4S15945   6.764   0.804   9.940 -1.6968 -1.8931  3.0122
  145SAPE   C2515946   6.872   0.620   9.964 -0.8955  0.1160 -0.2679
  145SAPE   H5R15947   6.857   0.567  10.059 -0.5916  1.7951  0.7552
  145SAPE   C2615948   6.876   0.562   9.847 -0.1117 -0.5426  0.1492
  145SAPE   H6R15949   6.899   0.455   9.844 -0.6927 -0.6647  0.0792
  145SAPE   C2715950   6.873   0.632   9.711 -0.5803 -0.6763 -1.0575
  145SAPE   H7R15951   6.958   0.598   9.649  0.1775 -0.3481 -0.2143
  145SAPE   H7S15952   6.890   0.741   9.725 -1.0944 -0.9361  2.8379
  145SAPE   C2815953   6.739   0.620   9.646 -0.4250 -0.7082  0.0025
  145SAPE   H8R15954   6.656   0.624   9.719 -0.4051  4.1811  0.0786
  145SAPE   C2915955   6.707   0.607   9.517  0.8029 -0.4122  0.7368
  145SAPE   H9R15956   6.599   0.601   9.494  0.9516 -0.5510  0.0592
  145SAPE  C21015957   6.807   0.613   9.402  0.0982 -0.1068  0.4383
  145SAPE  H10R15958   6.797   0.524   9.337 -1.1248  0.9982 -0.9309
  145SAPE  H10S15959   6.913   0.616   9.437 -0.3379  3.3915  1.8996
  145SAPE  C21115960   6.792   0.749   9.325 -0.3526 -0.5395  0.2154
  145SAPE  H11R15961   6.789   0.840   9.386  0.0478 -1.5366  1.7954
  145SAPE  C21215962   6.779   0.756   9.187  0.0746  0.1233 -0.0234
  145SAPE  H12R15963   6.778   0.857   9.143  0.6443 -0.2951 -1.0302
  145SAPE  C21315964   6.769   0.651   9.079  0.2890  0.2602  0.2071
  145SAPE  H13R15965   6.817   0.561   9.122 -0.0124  0.4422  0.9370
  145SAPE  H13S15966   6.834   0.683   8.994  0.6292  0.1272  0.4168
  145SAPE  C21415967   6.629   0.612   9.024 -0.5001  0.2049  0.1653
  145SAPE  H14R15968   6.535   0.639   9.075 -1.3726  0.4656 -1.5231
  145SAPE  C21515969   6.611   0.534   8.915 -0.4552 -0.1807 -0.9533
  145SAPE  H15R15970   6.508   0.530   8.879 -1.0431  0.5406  0.5660
  145SAPE  C21615971   6.725   0.482   8.817  0.2589  0.7383  0.0867
  145SAPE  H16R15972   6.718   0.372   8.807  1.8515  0.5833  0.4438
  145SAPE  H16S15973   6.829   0.503   8.850  0.5649 -0.0626 -0.3371
  145SAPE  C21715974   6.710   0.530   8.674  0.6568 -0.4475  0.0606
  145SAPE  H17R15975   6.606   0.501   8.645  1.0927  1.2948 -3.8947
  145SAPE  H17S15976   6.784   0.483   8.606  1.9122  0.4334  0.7735
  145SAPE  C21815977   6.717   0.685   8.650  0.1230  0.5779  0.0595
  145SAPE  H18R15978   6.821   0.724   8.663  0.0510  0.7659  0.0758
  145SAPE  H18S15979   6.652   0.738   8.723  1.4204 -0.0181  1.7161
  145SAPE  C21915980   6.682   0.707   8.502  0.6387  0.5280  0.5224
  145SAPE  H19R15981   6.576   0.674   8.495  0.3577  1.3935  0.4775
  145SAPE  H19S15982   6.741   0.641   8.436  0.7782 -1.1126  2.2180
  145SAPE  C22015983   6.701   0.848   8.441  0.1024 -0.3016 -0.2358
  145SAPE  H20R15984   6.636   0.924   8.488 -0.5418 -0.2504 -1.1885
  145SAPE  H20S15985   6.682   0.853   8.332  0.0856  2.0700 -0.1706
  145SAPE  H20T15986   6.806   0.876   8.467 -0.2756  1.4943 -0.5540
  145SAPE   C3315987   7.392   0.574  10.355 -0.3650 -0.3817 -0.5127
  145SAPE   H3X15988   7.427   0.480  10.309 -2.8976 -0.8235 -1.7377
  145SAPE   H3Y15989   7.482   0.633  10.382  0.1923 -0.6649 -1.7196
  145SAPE   C3415990   7.318   0.648  10.246 -0.7350  0.3686  0.4543
  145SAPE   H4X15991   7.310   0.751  10.287  0.2970  0.2600  0.9517
  145SAPE   H4Y15992   7.216   0.604  10.237 -1.1388  0.8809  2.0698
  145SAPE   C3515993   7.380   0.648  10.104  0.0455 -0.5859  0.8535
  145SAPE   H5X15994   7.435   0.552  10.091 -0.1596 -0.4978 -0.8410
  145SAPE   H5Y15995   7.462   0.722  10.109 -0.7527  0.6405 -2.2730
  145SAPE   C3615996   7.298   0.692   9.982 -0.1982  0.8184 -0.2162
  145SAPE   H6X15997   7.294   0.803   9.972  0.2876  1.0848  1.9939
  145SAPE   H6Y15998   7.196   0.654  10.002  0.2206  0.9942  2.7677
  145SAPE   C3715999   7.354   0.638   9.851  0.7268 -0.5778 -0.5784
  145SAPE   H7X16000   7.347   0.527   9.852 -1.6568 -0.4627 -0.0640
  145SAPE   H7Y16001   7.463   0.648   9.832  1.2225 -3.8928 -0.1991
  145SAPE   C3816002   7.274   0.677   9.729 -0.4023 -0.5128  0.3210
  145SAPE   H8X16003   7.267   0.786   9.714 -0.6656 -0.4676  0.7540
  145SAPE   H8Y16004   7.171   0.645   9.757 -0.7131  0.1701 -0.0208
  145SAPE   C3916005   7.315   0.600   9.601 -0.0485  0.2067 -0.9953
  145SAPE   H9X16006   7.292   0.494   9.624 -1.9892  1.1965  2.4671
  145SAPE   H9Y16007   7.423   0.624   9.598 -0.0567  0.5116  0.3237
  145SAPE  C31016008   7.250   0.639   9.473  0.5476  0.0791 -0.4726
  145SAPE  H10X16009   7.268   0.747   9.451  2.9130 -0.2028 -0.1952
  145SAPE  H10Y16010   7.141   0.621   9.481  0.5429  0.1078 -0.4723
  145SAPE  C31116011   7.299   0.562   9.353 -0.2008 -0.1738  0.5726
  145SAPE  H11X16012   7.241   0.468   9.342 -1.7335  1.0152 -4.2196
  145SAPE  H11Y16013   7.408   0.540   9.354 -0.4048 -1.2935  0.2012
  145SAPE  C31216014   7.279   0.646   9.222 -0.5823  0.3978  0.3679
  145SAPE  H12X16015   7.316   0.581   9.140 -0.3860 -1.6741  2.0185
  145SAPE  H12Y16016   7.344   0.735   9.239  0.6280 -0.4988  0.5397
  145SAPE  C31316017   7.139   0.677   9.195  0.2327  0.0551 -0.5079
  145SAPE  H13X16018   7.093   0.728   9.282 -1.0021  1.8162 -2.1159
  145SAPE  H13Y16019   7.083   0.583   9.175 -1.8347  1.6938 -3.1286
  145SAPE  C31416020   7.124   0.774   9.077  0.2959  0.0927 -0.2472
  145SAPE  H14X16021   7.154   0.880   9.090  0.9110 -0.3155  2.1419
  145SAPE  H14Y16022   7.014   0.791   9.070  0.4606  1.0862 -0.5385
  145SAPE  C31516023   7.151   0.718   8.936  0.0993 -0.1950  0.2434
  145SAPE  H15X16024   7.090   0.628   8.913 -1.3661  0.6678  0.5635
  145SAPE  H15Y16025   7.253   0.677   8.921  1.9918  3.8942  0.7058
  145SAPE  C31616026   7.119   0.816   8.820  0.2185 -0.7916  0.1850
  145SAPE  H16X16027   7.168   0.911   8.849 -0.8197 -0.6089  1.4377
  145SAPE  H16Y16028   7.013   0.847   8.811  0.8644  1.7313  0.5394
  145SAPE  C31716029   7.163   0.760   8.687  0.3780 -0.4079 -0.0496
  145SAPE  H17X16030   7.134   0.653   8.693  1.4250 -0.6590  1.0819
  145SAPE  H17Y16031   7.274   0.758   8.680  0.4345 -0.1343  0.7042
  145SAPE  C31816032   7.109   0.834   8.563 -0.0684 -0.1136  0.0355
  145SAPE  H18X16033   7.150   0.778   8.476  0.1990 -0.2774  0.2636
  145SAPE  H18Y16034   7.142   0.939   8.550  3.3441 -0.7530  2.2164
  145SAPE  H18Z16035   6.998   0.837   8.564 -0.0589  0.5724 -0.4287
  146SAPE     N16036   4.649   3.037  11.012  0.2963  0.0687  0.0686
  146SAPE   HN116037   4.666   2.972  11.091 -2.5055  0.1790  0.8559
  146SAPE   HN216038   4.553   3.077  11.022  0.4627  0.3587  0.5354
  146SAPE   HN316039   4.640   2.973  10.931  0.2728  0.5158 -0.2886
  146SAPE   C1216040   4.764   3.130  11.005 -0.2117 -0.1686 -0.5926
  146SAPE  H12A16041   4.857   3.070  10.998  0.5306  0.9248 -0.2978
  146SAPE  H12B16042   4.762   3.184  11.102 -1.0016 -1.2430  0.0202
  146SAPE   C1116043   4.761   3.228  10.891 -0.3992  0.4042  0.3905
  146SAPE  H11A16044   4.669   3.291  10.895 -0.7903 -0.1336 -0.0443
  146SAPE  H11B16045   4.761   3.181  10.791  1.5397  2.2236 -0.5425
  146SAPE     P16046   5.006   3.271  10.823 -0.3018  0.1748  0.3943
  146SAPE   O1316047   5.116   3.360  10.869  0.7026  0.0602  0.0760
  146SAPE   O1416048   5.021   3.125  10.830 -0.5005  0.3933  0.3478
  146SAPE   O1216049   4.872   3.316  10.903 -0.3798 -0.0820 -0.8871
  146SAPE   O1116050   4.963   3.313  10.678 -1.0494  0.6331 -0.3390
  146SAPE    C116051   4.905   3.437  10.640 -0.4375 -0.0739 -0.5618
  146SAPE    HA16052   4.801   3.414  10.606 -0.5501  0.0092 -0.2809
  146SAPE    HB16053   4.883   3.509  10.722 -0.1436  0.9634 -1.3607
  146SAPE    C216054   4.975   3.508  10.522  0.1657 -0.2186  0.8533
  146SAPE    HS16055   4.947   3.614  10.501  1.1530 -0.1936 -0.5556
  146SAPE   O2116056   4.952   3.439  10.400  0.0087 -0.6010  0.2875
  146SAPE   C2116057   4.831   3.435  10.350  0.1346 -0.2811  0.2394
  146SAPE   O2216058   4.739   3.503  10.393  0.0261 -0.1719  0.2334
  146SAPE   C2216059   4.827   3.353  10.221 -0.6322 -1.0762 -0.3602
  146SAPE   H2R16060   4.853   3.246  10.230  0.3755 -0.7954  0.2571
  146SAPE   H2S16061   4.725   3.354  10.178 -0.6721 -2.2510 -0.3206
  146SAPE    C316062   5.128   3.512  10.548  0.4922 -0.5569  0.3009
  146SAPE    HX16063   5.163   3.407  10.551  0.2990 -0.6330 -0.0320
  146SAPE    HY16064   5.129   3.553  10.651  0.8745 -0.2396  0.1711
  146SAPE   O3116065   5.202   3.597  10.463  0.1640 -0.7134  0.1194
  146SAPE   C3116066   5.268   3.544  10.367  0.0252 -0.0539 -0.1303
  146SAPE   O3216067   5.263   3.426  10.330  0.2008 -0.3658 -0.2286
  146SAPE   C3216068   5.343   3.658  10.285 -0.4542 -0.3468  0.0838
  146SAPE   H2X16069   5.407   3.608  10.210 -0.4897 -0.6873  0.2780
  146SAPE   H2Y16070   5.417   3.702  10.355 -0.5336  0.9387 -0.6100
  146SAPE   C2316071   4.921   3.421  10.104 -0.1996  0.0208 -0.1589
  146SAPE   H3R16072   5.025   3.391  10.129 -1.3109 -3.0781  1.3327
  146SAPE   H3S16073   4.900   3.530  10.095  0.8154  0.3509  1.1050
  146SAPE   C2416074   4.904   3.344   9.973 -0.2409 -0.9449  0.2923
  146SAPE   H4R16075   4.901   3.238  10.005 -0.0330  0.4310  5.9646
  146SAPE   H4S16076   4.993   3.364   9.910 -1.2093 -0.4958 -0.9696
  146SAPE   C2516077   4.772   3.373   9.904  0.1103 -0.6994 -0.2706
  146SAPE   H5R16078   4.693   3.418   9.965  0.0185 -1.8126  0.4657
  146SAPE   C2616079   4.748   3.361   9.767  0.0249 -0.1258 -0.1752
  146SAPE   H6R16080   4.648   3.382   9.726 -0.1714 -0.2810  0.2268
  146SAPE   C2716081   4.853   3.314   9.667 -0.8027 -0.4829  0.7753
  146SAPE   H7R16082   4.917   3.229   9.697  3.9726  2.0463 -0.9892
  146SAPE   H7S16083   4.933   3.391   9.659 -1.2646 -0.1003 -0.5244
  146SAPE   C2816084   4.790   3.306   9.529  0.5873  0.5078 -0.1491
  146SAPE   H8R16085   4.681   3.313   9.527  0.2453 -2.7690  0.7612
  146SAPE   C2916086   4.855   3.273   9.416  0.0747 -0.2772  0.3263
  146SAPE   H9R16087   4.799   3.257   9.322 -0.3237 -2.9220  0.9174
  146SAPE  C21016088   5.002   3.243   9.413 -0.2676  0.3033  0.3099
  146SAPE  H10R16089   5.042   3.198   9.506 -1.2397  1.8732  1.5435
  146SAPE  H10S16090   5.064   3.335   9.405  1.7553 -0.5274  4.1244
  146SAPE  C21116091   5.048   3.154   9.300  0.0850 -0.0661  0.1839
  146SAPE  H11R16092   5.087   3.062   9.346 -1.2339 -0.3424  0.7898
  146SAPE  C21216093   5.034   3.160   9.170  0.1298  0.0114  1.0156
  146SAPE  H12R16094   5.076   3.075   9.114  1.4443  0.5270  1.1725
  146SAPE  C21316095   4.971   3.272   9.092 -0.1517  0.3460  0.0124
  146SAPE  H13R16096   4.925   3.347   9.160 -1.7783  0.6199 -1.3253
  146SAPE  H13S16097   4.889   3.222   9.036  0.1822 -1.1738  0.8430
  146SAPE  C21416098   5.074   3.344   9.009  0.3921 -0.0229  0.0265
  146SAPE  H14R16099   5.154   3.400   9.060 -0.1889 -0.5176  1.5257
  146SAPE  C21516100   5.089   3.335   8.878 -0.3283 -0.0636  0.6363
  146SAPE  H15R16101   5.161   3.404   8.830  0.5268 -0.4227  1.3599
  146SAPE  C21616102   5.003   3.257   8.778 -0.4953  0.0754 -1.0543
  146SAPE  H16R16103   4.932   3.193   8.833 -1.7160  2.0526 -0.2008
  146SAPE  H16S16104   5.068   3.201   8.707 -1.1645  0.8625 -2.3334
  146SAPE  C21716105   4.918   3.364   8.709  0.1964  0.1305  0.2677
  146SAPE  H17R16106   4.885   3.449   8.772 -0.3666  1.1521 -1.3232
  146SAPE  H17S16107   4.824   3.310   8.681 -0.2687  0.6225  0.8489
  146SAPE  C21816108   4.986   3.413   8.572 -0.3149 -0.5604 -0.2298
  146SAPE  H18R16109   5.091   3.448   8.580 -0.3871 -0.2508 -0.5744
  146SAPE  H18S16110   4.920   3.494   8.532 -1.3265 -1.9594 -1.5128
  146SAPE  C21916111   4.983   3.306   8.462 -0.1206  0.4055  0.2969
  146SAPE  H19R16112   4.966   3.206   8.508 -0.3596  0.3481  0.0852
  146SAPE  H19S16113   5.086   3.310   8.421 -0.3802  0.4236 -0.3712
  146SAPE  C22016114   4.872   3.328   8.359 -0.3679 -0.3199 -1.2302
  146SAPE  H20R16115   4.887   3.249   8.282  2.5828 -2.1632  1.0088
  146SAPE  H20S16116   4.881   3.428   8.313  0.5003 -0.6876 -1.8831
  146SAPE  H20T16117   4.771   3.310   8.403 -0.8858  0.0114 -2.2584
  146SAPE   C3316118   5.253   3.784  10.240 -0.7211  0.7494  0.2370
  146SAPE   H3X16119   5.322   3.863  10.202 -0.1041  0.1838  0.1747
  146SAPE   H3Y16120   5.191   3.823  10.323 -1.6009 -1.2607  0.5917
  146SAPE   C3416121   5.177   3.742  10.112  0.3701  0.0138 -0.2078
  146SAPE   H4X16122   5.103   3.825  10.108  1.8255  1.4229  0.7058
  146SAPE   H4Y16123   5.144   3.638  10.134 -0.3558  0.9364  3.8301
  146SAPE   C3516124   5.260   3.745   9.983  0.0542  0.4146 -0.1505
  146SAPE   H5X16125   5.351   3.683  10.000  2.1090  2.1334 -3.6186
  146SAPE   H5Y16126   5.296   3.850   9.972  1.7820 -0.1000  0.3871
  146SAPE   C3616127   5.182   3.690   9.859  0.0197 -0.7372  0.4375
  146SAPE   H6X16128   5.087   3.744   9.836  0.2962 -0.4015  0.0627
  146SAPE   H6Y16129   5.151   3.585   9.876 -2.1358 -0.2548 -0.1832
  146SAPE   C3716130   5.262   3.686   9.721  0.2700 -0.5734 -0.1879
  146SAPE   H7X16131   5.340   3.607   9.732  0.5633 -0.1283  1.1529
  146SAPE   H7Y16132   5.317   3.783   9.717  1.6948 -1.1738  2.5569
  146SAPE   C3816133   5.156   3.663   9.611 -0.2626  0.3472  0.4285
  146SAPE   H8X16134   5.081   3.741   9.634  0.1556  0.7105  0.5889
  146SAPE   H8Y16135   5.094   3.571   9.606 -0.6358  0.5171 -5.5307
  146SAPE   C3916136   5.205   3.677   9.467  0.5863 -0.4143  0.0583
  146SAPE   H9X16137   5.273   3.593   9.441 -0.8033 -1.5299 -0.0820
  146SAPE   H9Y16138   5.269   3.768   9.458 -0.7720  0.7102  1.2944
  146SAPE  C31016139   5.091   3.674   9.360  0.2260 -0.1591 -0.2462
  146SAPE  H10X16140   5.018   3.755   9.378 -0.6920 -1.0141 -0.0126
  146SAPE  H10Y16141   5.030   3.582   9.375  1.7945 -1.4096 -1.2504
  146SAPE  C31116142   5.147   3.684   9.212 -0.2615  0.0480  0.5900
  146SAPE  H11X16143   5.059   3.658   9.150  0.5899  1.2576 -1.1891
  146SAPE  H11Y16144   5.230   3.610   9.199  0.7890  1.0915  1.1592
  146SAPE  C31216145   5.203   3.819   9.178  0.2909  0.3255 -0.3025
  146SAPE  H12X16146   5.280   3.846   9.253  1.9749  0.9245 -2.1448
  146SAPE  H12Y16147   5.126   3.898   9.190  0.2260  0.5825 -2.0913
  146SAPE  C31316148   5.274   3.821   9.045  0.6935 -0.0237  0.6265
  146SAPE  H13X16149   5.336   3.730   9.028  0.4086  0.0999 -1.3684
  146SAPE  H13Y16150   5.339   3.911   9.033 -0.9869  1.0106 -1.2434
  146SAPE  C31416151   5.180   3.837   8.935  0.0456  0.0320  0.3126
  146SAPE  H14X16152   5.123   3.932   8.947 -1.1668 -0.1198 -3.1708
  146SAPE  H14Y16153   5.102   3.759   8.940 -1.2347  1.2726  0.4132
  146SAPE  C31516154   5.247   3.841   8.789  1.0096  0.1845 -0.3160
  146SAPE  H15X16155   5.310   3.755   8.759  1.8065  1.0963 -1.3456
  146SAPE  H15Y16156   5.303   3.936   8.776  0.7759  0.4275  0.4075
  146SAPE  C31616157   5.135   3.851   8.684 -0.3595  0.4261 -0.0903
  146SAPE  H16X16158   5.074   3.941   8.705 -0.1687  0.9485 -1.6327
  146SAPE  H16Y16159   5.075   3.758   8.682  0.8070 -0.3585  0.2200
  146SAPE  C31716160   5.184   3.854   8.540  0.0699  0.0487  0.9446
  146SAPE  H17X16161   5.258   3.774   8.519 -0.1598  0.4276 -1.6661
  146SAPE  H17Y16162   5.244   3.947   8.526  2.0004 -1.3730 -0.6655
  146SAPE  C31816163   5.068   3.851   8.437 -0.5065  0.1082  0.2485
  146SAPE  H18X16164   4.979   3.909   8.469 -0.2578  0.9279 -0.5108
  146SAPE  H18Y16165   5.046   3.744   8.419  2.1743 -0.4880 -0.0238
  146SAPE  H18Z16166   5.100   3.895   8.340  0.3361 -0.0933  0.4260
  147SAPE     N16167   1.011   5.533  10.731 -0.1428 -0.1988  0.0939
  147SAPE   HN116168   0.926   5.491  10.775  0.6448 -1.5311  0.3971
  147SAPE   HN216169   0.980   5.608  10.666  1.5073 -0.7625 -1.3903
  147SAPE   HN316170   1.072   5.465  10.682  0.7247 -0.1584  1.0636
  147SAPE   C1216171   1.078   5.624  10.841 -0.5158 -0.1811 -0.0892
  147SAPE  H12A16172   1.013   5.714  10.848 -0.3448  0.3155 -3.4908
  147SAPE  H12B16173   1.172   5.668  10.804 -0.9210  0.5215 -0.2947
  147SAPE   C1116174   1.107   5.546  10.977  0.4159  1.1252  0.3746
  147SAPE  H11A16175   1.025   5.478  11.008  2.3687 -0.3376  2.6585
  147SAPE  H11B16176   1.113   5.621  11.058 -0.7694 -0.9603  2.5206
  147SAPE     P16177   1.371   5.536  11.005 -0.0542  0.2910  0.1093
  147SAPE   O1316178   1.342   5.669  11.063  0.2046 -0.2951 -0.3461
  147SAPE   O1416179   1.436   5.436  11.090  0.4403  0.1745 -0.2980
  147SAPE   O1216180   1.234   5.474  10.975  0.3110  0.3896  0.1653
  147SAPE   O1116181   1.439   5.556  10.872 -0.9588 -1.1330 -0.4453
  147SAPE    C116182   1.438   5.436  10.787  0.3806  0.2372 -0.3264
  147SAPE    HA16183   1.500   5.353  10.827 -1.3925 -1.7944 -1.5765
  147SAPE    HB16184   1.332   5.404  10.774  0.8208 -1.9548  0.9659
  147SAPE    C216185   1.489   5.452  10.642 -0.8631  0.6059 -0.1548
  147SAPE    HS16186   1.458   5.359  10.588 -2.6598  0.6281  0.7832
  147SAPE   O2116187   1.634   5.468  10.648  0.9927  0.0057 -0.0837
  147SAPE   C2116188   1.705   5.423  10.543 -0.4162  0.1056 -0.0888
  147SAPE   O2216189   1.662   5.354  10.449  0.1042  0.2360 -0.7989
  147SAPE   C2216190   1.848   5.472  10.553 -0.1117  0.2818 -0.4531
  147SAPE   H2R16191   1.851   5.568  10.496 -1.2130  1.0573  0.7534
  147SAPE   H2S16192   1.858   5.510  10.657 -2.0636  2.2853 -0.9267
  147SAPE    C316193   1.417   5.570  10.575  0.2648 -0.1629  0.5704
  147SAPE    HX16194   1.462   5.658  10.626 -1.1623  0.7075  0.3794
  147SAPE    HY16195   1.307   5.575  10.593  0.4013  1.8023  1.0791
  147SAPE   O3116196   1.456   5.592  10.437  0.1622 -0.9201 -0.0031
  147SAPE   C3116197   1.387   5.516  10.358  0.1136  0.3573  0.3253
  147SAPE   O3216198   1.282   5.460  10.382  0.1962  0.0717 -0.2906
  147SAPE   C3216199   1.469   5.490  10.224  0.3099  0.4125 -0.7026
  147SAPE   H2X16200   1.576   5.472  10.251  1.4093  3.2525 -2.6587
  147SAPE   H2Y16201   1.465   5.583  10.163  4.2916  1.2797  0.0840
  147SAPE   C2316202   1.959   5.375  10.517  0.1421  0.9379  0.3919
  147SAPE   H3R16203   1.932   5.280  10.569 -0.9624  1.2885  0.4850
  147SAPE   H3S16204   2.056   5.418  10.551  1.5174 -1.1991 -0.5776
  147SAPE   C2416205   1.967   5.357  10.360 -0.3749  0.2284  0.1020
  147SAPE   H4R16206   1.984   5.456  10.314 -0.5930 -0.6696 -2.0483
  147SAPE   H4S16207   1.875   5.304  10.327  0.7340 -0.9313 -1.3014
  147SAPE   C2516208   2.075   5.263  10.316  0.4132 -0.3025  0.5424
  147SAPE   H5R16209   2.055   5.170  10.370 -1.5540  0.1177  0.6388
  147SAPE   C2616210   2.181   5.278  10.232  0.3212  0.0147 -0.1218
  147SAPE   H6R16211   2.247   5.190  10.234  0.3971  0.0646 -0.4030
  147SAPE   C2716212   2.220   5.402  10.160  0.1094 -0.1056 -0.8411
  147SAPE   H7R16213   2.330   5.416  10.170  0.2870 -1.7897 -0.0789
  147SAPE   H7S16214   2.188   5.492  10.216  0.3203 -0.3929 -0.2465
  147SAPE   C2816215   2.174   5.411  10.015 -0.1219  0.3169 -0.9369
  147SAPE   H8R16216   2.066   5.392  10.007  0.0533 -0.4289 -1.7197
  147SAPE   C2916217   2.233   5.466   9.913 -0.3924  0.4180  0.3111
  147SAPE   H9R16218   2.185   5.475   9.815  2.3875  0.4395 -1.1307
  147SAPE  C21016219   2.365   5.537   9.907 -0.3711  0.0533 -0.3231
  147SAPE  H10R16220   2.441   5.495   9.977 -0.7519 -1.4604 -0.7989
  147SAPE  H10S16221   2.348   5.642   9.939 -1.4216 -0.7047  1.7746
  147SAPE  C21116222   2.448   5.533   9.778 -0.4881 -0.0663  0.1915
  147SAPE  H11R16223   2.514   5.444   9.779 -0.6483 -0.2056 -0.6047
  147SAPE  C21216224   2.441   5.617   9.669 -0.1028  0.2563 -0.8997
  147SAPE  H12R16225   2.508   5.607   9.582 -0.4375  1.9518 -1.3955
  147SAPE  C21316226   2.338   5.723   9.648  1.0063  0.6410  0.3731
  147SAPE  H13R16227   2.385   5.821   9.667  3.1795  0.0302 -1.4098
  147SAPE  H13S16228   2.247   5.708   9.710  2.1862 -0.5211  1.8761
  147SAPE  C21416229   2.284   5.720   9.503  0.2721  0.4864 -0.0663
  147SAPE  H14R16230   2.245   5.619   9.481  2.5053 -0.0084 -2.2131
  147SAPE  C21516231   2.293   5.804   9.395 -0.8280  0.7169 -0.1613
  147SAPE  H15R16232   2.264   5.764   9.296  0.2797 -0.4939 -0.0259
  147SAPE  C21616233   2.374   5.930   9.396 -0.1019 -1.1888  0.1163
  147SAPE  H16R16234   2.442   5.939   9.309  0.2270 -0.5156  0.4378
  147SAPE  H16S16235   2.421   5.939   9.496  1.5013  0.4057 -0.7252
  147SAPE  C21716236   2.282   6.060   9.377 -0.0924 -0.6665 -1.0900
  147SAPE  H17R16237   2.232   6.046   9.279 -0.2297 -0.8050 -0.9992
  147SAPE  H17S16238   2.349   6.148   9.373  0.7819 -1.1223  1.4717
  147SAPE  C21816239   2.181   6.090   9.484  0.1320  0.5540 -0.1066
  147SAPE  H18R16240   2.100   6.014   9.483  0.7899 -0.2497  2.1201
  147SAPE  H18S16241   2.135   6.187   9.458  3.1716  1.7746 -1.3977
  147SAPE  C21916242   2.239   6.079   9.626  0.6166 -0.2639 -0.8088
  147SAPE  H19R16243   2.278   5.977   9.643 -0.7404 -0.5258  1.0313
  147SAPE  H19S16244   2.155   6.090   9.698  1.7098  0.1550  0.4738
  147SAPE  C22016245   2.345   6.183   9.662  0.0676  0.2177 -0.4845
  147SAPE  H20R16246   2.441   6.158   9.612  0.0060 -0.7443 -0.1448
  147SAPE  H20S16247   2.346   6.176   9.773 -0.4436 -1.0367 -0.5355
  147SAPE  H20T16248   2.316   6.287   9.638  1.5380  1.2858  1.9673
  147SAPE   C3316249   1.418   5.384  10.137  0.5321 -0.4152  0.5726
  147SAPE   H3X16250   1.316   5.391  10.092  1.0638  0.0888 -0.5957
  147SAPE   H3Y16251   1.403   5.291  10.196 -0.3856 -0.1332  0.8099
  147SAPE   C3416252   1.511   5.374  10.014  0.0631 -0.4179 -0.3299
  147SAPE   H4X16253   1.618   5.350  10.036  0.1733  1.1088  0.8895
  147SAPE   H4Y16254   1.515   5.480   9.981 -2.4598  0.5485  2.1195
  147SAPE   C3516255   1.455   5.290   9.902  0.6255 -0.0334 -0.0098
  147SAPE   H5X16256   1.344   5.282   9.899  0.6563 -1.6649  1.7497
  147SAPE   H5Y16257   1.496   5.187   9.907 -0.8311 -0.5624  1.8147
  147SAPE   C3616258   1.518   5.347   9.775 -0.8474 -0.2505 -0.0062
  147SAPE   H6X16259   1.624   5.369   9.798 -0.9940 -0.1744  0.6103
  147SAPE   H6Y16260   1.468   5.444   9.755  0.8853  0.8687  0.8406
  147SAPE   C3716261   1.520   5.255   9.657  0.6000 -0.1841 -0.2740
  147SAPE   H7X16262   1.417   5.232   9.624  0.2382  2.3972 -1.1394
  147SAPE   H7Y16263   1.579   5.165   9.684 -0.5561 -0.2923  2.2801
  147SAPE   C3816264   1.597   5.327   9.543 -0.1490  0.1813  0.3209
  147SAPE   H8X16265   1.708   5.320   9.553 -0.3378 -0.3824  2.7653
  147SAPE   H8Y16266   1.551   5.427   9.534 -2.0263 -0.7163 -0.6146
  147SAPE   C3916267   1.571   5.261   9.414 -1.0476  0.3938 -0.0434
  147SAPE   H9X16268   1.466   5.289   9.393 -0.9817 -1.1263 -2.9497
  147SAPE   H9Y16269   1.577   5.151   9.401  0.6969  0.7488 -3.5496
  147SAPE  C31016270   1.662   5.313   9.294  0.2834  0.3665  0.4880
  147SAPE  H10X16271   1.759   5.259   9.295  0.0653 -0.0319  0.3622
  147SAPE  H10Y16272   1.697   5.418   9.302 -0.7243  0.8336 -0.6951
  147SAPE  C31116273   1.603   5.294   9.154  0.3407 -0.3229 -0.3295
  147SAPE  H11X16274   1.502   5.340   9.156  0.3012 -0.3995 -0.5732
  147SAPE  H11Y16275   1.592   5.185   9.135  4.9378 -1.8561  3.6570
  147SAPE  C31216276   1.672   5.372   9.037 -0.1056  0.2084 -0.7032
  147SAPE  H12X16277   1.781   5.359   9.051  0.0204 -0.1178 -1.8760
  147SAPE  H12Y16278   1.642   5.476   9.064  3.5691  1.3820 -0.6165
  147SAPE  C31316279   1.629   5.339   8.895  0.3331 -0.7930 -0.1106
  147SAPE  H13X16280   1.638   5.228   8.894 -0.7914 -0.8978 -0.0684
  147SAPE  H13Y16281   1.691   5.382   8.813 -0.9487  1.6582  0.1113
  147SAPE  C31416282   1.483   5.358   8.864  0.2382  0.0155  0.1863
  147SAPE  H14X16283   1.423   5.297   8.935  0.9512  1.3585  2.0190
  147SAPE  H14Y16284   1.477   5.312   8.763 -1.6144 -1.1186  0.7576
  147SAPE  C31516285   1.439   5.500   8.876  0.4814  0.3868 -0.7504
  147SAPE  H15X16286   1.455   5.530   8.982 -0.7554 -0.5835 -0.2626
  147SAPE  H15Y16287   1.330   5.507   8.853  0.6225  2.5469 -0.9738
  147SAPE  C31616288   1.506   5.605   8.784  0.4893 -0.1729  0.2619
  147SAPE  H16X16289   1.484   5.571   8.681 -1.3436 -0.8579  0.8441
  147SAPE  H16Y16290   1.616   5.595   8.800  0.4694  1.6220  1.7822
  147SAPE  C31716291   1.453   5.746   8.810 -0.2809  0.1270  0.4047
  147SAPE  H17X16292   1.468   5.775   8.916 -2.2137 -0.2991  0.8415
  147SAPE  H17Y16293   1.344   5.736   8.791 -0.4484  1.3450  0.6856
  147SAPE  C31816294   1.508   5.847   8.716  0.1345 -0.5652 -0.2071
  147SAPE  H18X16295   1.619   5.851   8.719  0.1264  3.7090  0.6753
  147SAPE  H18Y16296   1.484   5.953   8.739 -0.1702 -0.5379 -0.6397
  147SAPE  H18Z16297   1.484   5.821   8.611  1.2163 -1.9480 -0.1453
  148SAPE     N16298   3.153   2.589  10.687  0.0273  0.4719 -0.1339
  148SAPE   HN116299   3.193   2.495  10.707  1.6069  1.3723  1.2138
  148SAPE   HN216300   3.236   2.648  10.666 -0.2168  1.1834  0.8055
  148SAPE   HN316301   3.102   2.629  10.769  1.0194  1.0975  0.1965
  148SAPE   C1216302   3.059   2.591  10.572  0.3025  0.2867 -0.4258
  148SAPE  H12A16303   3.111   2.548  10.483  0.7765 -2.8705  1.2363
  148SAPE  H12B16304   3.044   2.700  10.555 -0.6612  0.1038 -0.8013
  148SAPE   C1116305   2.930   2.505  10.606 -0.5031 -0.3396 -0.2051
  148SAPE  H11A16306   2.863   2.528  10.521 -1.0787 -0.1948  0.2772
  148SAPE  H11B16307   2.878   2.530  10.702 -0.4698  1.4595 -0.6214
  148SAPE     P16308   2.881   2.249  10.634 -0.2375 -0.1476 -0.1882
  148SAPE   O1316309   2.941   2.118  10.593 -0.3684 -0.6729 -0.0107
  148SAPE   O1416310   2.840   2.262  10.781  0.5045 -0.2855  0.0569
  148SAPE   O1216311   2.976   2.370  10.595  0.0157 -0.8144  0.3446
  148SAPE   O1116312   2.751   2.289  10.544  0.3889 -0.4333  0.0630
  148SAPE    C116313   2.739   2.276  10.401  0.0184 -0.7457 -1.3017
  148SAPE    HA16314   2.708   2.378  10.372 -0.0353 -0.2472  0.3740
  148SAPE    HB16315   2.841   2.265  10.357  0.6628 -0.0901 -0.0384
  148SAPE    C216316   2.644   2.169  10.346  0.7033 -0.7751  0.0782
  148SAPE    HS16317   2.700   2.075  10.364 -0.8722 -1.1340  4.3042
  148SAPE   O2116318   2.629   2.198  10.200  0.0626 -0.2071  0.0252
  148SAPE   C2116319   2.720   2.146  10.130  0.0063 -0.5789 -0.1757
  148SAPE   O2216320   2.820   2.083  10.165  0.0061  0.2627  0.0855
  148SAPE   C2216321   2.676   2.173   9.981  0.4588  0.3554 -0.0300
  148SAPE   H2R16322   2.585   2.112   9.961 -0.6057  1.6612  0.6619
  148SAPE   H2S16323   2.641   2.278   9.973  1.2598  0.9428  3.0615
  148SAPE    C316324   2.503   2.170  10.414 -0.1727  0.3557 -0.4711
  148SAPE    HX16325   2.469   2.274  10.400 -1.1300  0.0812 -0.3116
  148SAPE    HY16326   2.504   2.150  10.523  0.4902  0.9582 -0.3647
  148SAPE   O3116327   2.405   2.082  10.349  0.4780  0.7967  0.0541
  148SAPE   C3116328   2.418   1.956  10.358  0.3099 -0.3026 -0.2610
  148SAPE   O3216329   2.500   1.891  10.421 -0.1389  0.0666 -0.3366
  148SAPE   C3216330   2.298   1.885  10.292  0.6421 -0.3544  0.3888
  148SAPE   H2X16331   2.222   1.882  10.372 -0.7828 -1.5588 -0.9639
  148SAPE   H2Y16332   2.314   1.775  10.287 -0.2922 -0.4976  0.5062
  148SAPE   C2316333   2.782   2.135   9.874 -0.0446  0.0004  0.0475
  148SAPE   H3R16334   2.833   2.041   9.902 -1.0894 -0.2322  1.2904
  148SAPE   H3S16335   2.852   2.221   9.883 -0.5617  0.5578 -1.0092
  148SAPE   C2416336   2.728   2.121   9.728 -0.4178  0.1130 -0.8600
  148SAPE   H4R16337   2.697   2.225   9.701  0.7691  1.1453  1.4562
  148SAPE   H4S16338   2.639   2.056   9.726  1.1171 -2.0871 -1.7154
  148SAPE   C2516339   2.831   2.069   9.639 -0.2019  0.5975  0.0148
  148SAPE   H5R16340   2.901   1.993   9.679 -0.5554  0.1592 -0.1897
  148SAPE   C2616341   2.881   2.120   9.527  0.1368 -0.2901  0.4911
  148SAPE   H6R16342   2.957   2.064   9.469 -1.3390 -0.6588 -1.1885
  148SAPE   C2716343   2.850   2.251   9.454 -0.0456  0.5345 -0.5931
  148SAPE   H7R16344   2.938   2.314   9.429 -0.6328  1.2921 -0.7446
  148SAPE   H7S16345   2.793   2.317   9.523  1.3174  0.0102  1.1150
  148SAPE   C2816346   2.760   2.233   9.333 -0.2163  0.3943 -0.1485
  148SAPE   H8R16347   2.654   2.216   9.357 -0.2978 -2.6972 -2.0678
  148SAPE   C2916348   2.795   2.232   9.205 -0.4535  0.1435  0.1233
  148SAPE   H9R16349   2.709   2.205   9.141 -0.1434  0.8719 -0.6164
  148SAPE  C21016350   2.931   2.259   9.155 -0.7000 -0.0148  0.1310
  148SAPE  H10R16351   3.000   2.192   9.210 -1.0354 -0.5900 -0.1393
  148SAPE  H10S16352   2.964   2.364   9.173 -2.2136  0.6040 -0.5226
  148SAPE  C21116353   2.936   2.226   9.014 -0.7671 -0.5622 -0.0982
  148SAPE  H11R16354   2.947   2.321   8.960  4.5961 -0.5066  0.5719
  148SAPE  C21216355   2.940   2.107   8.957 -0.2745  0.7640  0.3158
  148SAPE  H12R16356   2.945   2.096   8.848 -0.4257  1.1888  0.2635
  148SAPE  C21316357   2.937   1.975   9.027  0.3569 -0.2276 -0.1465
  148SAPE  H13R16358   2.905   1.897   8.955 -0.5509 -0.5165  0.5534
  148SAPE  H13S16359   2.863   1.978   9.110 -0.0801  1.0097 -0.5553
  148SAPE  C21416360   3.075   1.936   9.064  0.6236 -0.6537  0.5169
  148SAPE  H14R16361   3.098   1.973   9.165  1.0377  1.3452 -0.2442
  148SAPE  C21516362   3.163   1.865   8.991 -0.2954 -0.4860  0.3888
  148SAPE  H15R16363   3.256   1.827   9.037 -0.1100  0.6081  0.9539
  148SAPE  C21616364   3.147   1.811   8.855 -0.5554  0.3554  0.3578
  148SAPE  H16R16365   3.043   1.800   8.819 -0.6200 -1.2922  0.9312
  148SAPE  H16S16366   3.198   1.712   8.845 -1.3852 -0.1832  1.2844
  148SAPE  C21716367   3.213   1.903   8.748 -0.8209  0.3249  0.4456
  148SAPE  H17R16368   3.177   2.008   8.753 -0.1679  0.6196 -0.6407
  148SAPE  H17S16369   3.194   1.868   8.645  1.1815 -0.8379  0.4169
  148SAPE  C21816370   3.369   1.914   8.764  0.0677  0.0149  0.2963
  148SAPE  H18R16371   3.411   1.813   8.741 -1.4573 -0.0211 -2.9108
  148SAPE  H18S16372   3.388   1.941   8.870 -1.3803  2.5338 -0.0208
  148SAPE  C21916373   3.442   2.003   8.663 -0.2019  0.0043 -0.0166
  148SAPE  H19R16374   3.546   2.024   8.695 -0.5176  2.8891 -0.6310
  148SAPE  H19S16375   3.402   2.106   8.672  4.8961  2.1416  1.6523
  148SAPE  C22016376   3.448   1.953   8.517 -0.8304 -0.0449 -0.0326
  148SAPE  H20R16377   3.350   1.929   8.472 -1.3264  1.9750 -0.1113
  148SAPE  H20S16378   3.516   1.866   8.504 -0.4789 -0.4517  3.5727
  148SAPE  H20T16379   3.495   2.034   8.458  0.0736 -0.7360 -0.2940
  148SAPE   C3316380   2.250   1.937  10.157 -0.9166 -0.3716  0.2582
  148SAPE   H3X16381   2.245   2.047  10.145  1.0767 -0.1842  0.8153
  148SAPE   H3Y16382   2.145   1.907  10.139 -1.6514  1.6118  1.0140
  148SAPE   C3416383   2.337   1.880  10.039 -0.1749 -0.7803 -1.0484
  148SAPE   H4X16384   2.306   1.773  10.039  0.4041 -0.9921  1.2983
  148SAPE   H4Y16385   2.445   1.893  10.062  0.0740 -0.7184 -2.1936
  148SAPE   C3516386   2.300   1.947   9.909 -0.8871  0.5703  0.3363
  148SAPE   H5X16387   2.351   2.046   9.916 -0.2775  0.2282  0.7887
  148SAPE   H5Y16388   2.192   1.962   9.891 -1.1691  0.4985  1.8416
  148SAPE   C3616389   2.352   1.874   9.788  0.1834 -0.6319  0.0527
  148SAPE   H6X16390   2.326   1.766   9.789 -2.5277 -0.0704 -1.4334
  148SAPE   H6Y16391   2.463   1.867   9.795  0.0979 -3.6828 -0.4475
  148SAPE   C3716392   2.307   1.940   9.653  0.0048 -0.5911 -0.6071
  148SAPE   H7X16393   2.313   2.046   9.686 -0.8128 -1.1425  1.4778
  148SAPE   H7Y16394   2.200   1.928   9.625 -0.4136  2.1574 -0.4640
  148SAPE   C3816395   2.411   1.917   9.544 -0.1650  0.5668 -0.0526
  148SAPE   H8X16396   2.388   1.811   9.519 -2.3746  0.7135  1.1260
  148SAPE   H8Y16397   2.517   1.937   9.568 -0.2206  2.6612 -1.2916
  148SAPE   C3916398   2.371   1.980   9.417 -0.0624  0.2209  0.5915
  148SAPE   H9X16399   2.394   2.089   9.420  2.8323 -0.1719 -2.2506
  148SAPE   H9Y16400   2.270   1.961   9.373  0.6898  0.9458 -1.6023
  148SAPE  C31016401   2.463   1.927   9.310  0.0553 -0.5663  1.1213
  148SAPE  H10X16402   2.448   1.817   9.299  0.9914 -0.5365 -0.8949
  148SAPE  H10Y16403   2.567   1.954   9.339  0.8851 -1.9945 -0.3449
  148SAPE  C31116404   2.448   2.000   9.172  0.5110 -0.3309 -0.3577
  148SAPE  H11X16405   2.489   2.099   9.199 -1.1237  0.3188 -0.1721
  148SAPE  H11Y16406   2.339   2.011   9.152  0.5997  2.0911  0.3049
  148SAPE  C31216407   2.507   1.935   9.056  0.6961  0.4649  0.2350
  148SAPE  H12X16408   2.468   1.834   9.034  2.6787 -0.6473  1.5203
  148SAPE  H12Y16409   2.617   1.934   9.073  0.2730  0.4055  3.7258
  148SAPE  C31316410   2.481   2.013   8.927  0.4243  0.5584  0.7129
  148SAPE  H13X16411   2.553   2.097   8.926  0.6739  0.4309 -2.2149
  148SAPE  H13Y16412   2.376   2.051   8.925 -0.1150 -0.8599  0.3577
  148SAPE  C31416413   2.504   1.936   8.787  0.2627 -0.1191 -0.0831
  148SAPE  H14X16414   2.411   1.877   8.772 -0.8400  1.7806 -1.2167
  148SAPE  H14Y16415   2.592   1.875   8.813  1.1807  0.5659 -1.4376
  148SAPE  C31516416   2.527   2.032   8.673  0.0199  0.3059 -0.0417
  148SAPE  H15X16417   2.546   1.974   8.581 -0.9606  0.9298 -0.6548
  148SAPE  H15Y16418   2.609   2.106   8.687  0.1333  0.3437 -0.8556
  148SAPE  C31616419   2.400   2.120   8.649  0.2504  0.7912 -0.3363
  148SAPE  H16X16420   2.351   2.157   8.742  1.3260 -0.7029  0.8849
  148SAPE  H16Y16421   2.332   2.054   8.593  2.2710 -0.4971 -1.4043
  148SAPE  C31716422   2.433   2.239   8.561  0.0556  0.6108 -0.4352
  148SAPE  H17X16423   2.492   2.297   8.635 -0.9448  0.6635  0.3559
  148SAPE  H17Y16424   2.344   2.292   8.521 -0.4007 -0.1876 -0.5062
  148SAPE  C31816425   2.529   2.210   8.443  0.2286  0.6208  0.1555
  148SAPE  H18X16426   2.548   2.299   8.380 -2.5538 -0.4360 -2.4263
  148SAPE  H18Y16427   2.476   2.142   8.373  2.0296  1.0738 -1.7335
  148SAPE  H18Z16428   2.626   2.158   8.462  0.1767  0.3468 -0.3113
  149SAPE     N16429   5.609   4.643  11.068 -0.0474  0.3163  0.2556
  149SAPE   HN116430   5.701   4.667  11.026  0.0078  1.3273  0.9143
  149SAPE   HN216431   5.603   4.687  11.162  0.9693 -0.4483  0.6917
  149SAPE   HN316432   5.605   4.539  11.073  3.1729  0.1367  2.1938
  149SAPE   C1216433   5.507   4.699  10.979  0.7205  0.0528  0.7762
  149SAPE  H12A16434   5.533   4.684  10.872 -0.5524 -0.3182  0.5079
  149SAPE  H12B16435   5.495   4.806  11.005 -1.1895  0.3244 -0.9814
  149SAPE   C1116436   5.368   4.634  11.003  0.5503 -0.0030  0.3418
  149SAPE  H11A16437   5.294   4.659  10.924  0.7894 -2.5913 -0.8045
  149SAPE  H11B16438   5.330   4.661  11.104  0.4311  1.0772  0.0181
  149SAPE     P16439   5.378   4.397  10.875  0.2087  0.0586  0.1740
  149SAPE   O1316440   5.497   4.313  10.882  0.1471 -0.6040  0.5939
  149SAPE   O1416441   5.248   4.326  10.864 -0.7826  0.3809 -0.3917
  149SAPE   O1216442   5.376   4.492  11.000 -0.8184 -0.4216  0.2992
  149SAPE   O1116443   5.391   4.501  10.759  0.0978 -0.7111  0.6132
  149SAPE    C116444   5.280   4.553  10.681 -0.0209 -0.5604 -0.9616
  149SAPE    HA16445   5.185   4.500  10.704 -0.8681  1.0552 -0.6046
  149SAPE    HB16446   5.260   4.660  10.706 -3.3813 -1.5237  1.1079
  149SAPE    C216447   5.299   4.542  10.521  0.4464 -0.9874 -1.0094
  149SAPE    HS16448   5.207   4.590  10.481 -1.4886 -0.7857  3.0950
  149SAPE   O2116449   5.310   4.404  10.484  0.1165  0.1342  0.2677
  149SAPE   C2116450   5.200   4.345  10.493 -0.3130 -0.2001 -0.8170
  149SAPE   O2216451   5.088   4.395  10.509 -0.6535 -0.4983 -0.2186
  149SAPE   C2216452   5.226   4.198  10.474 -0.4630 -0.1509 -0.2223
  149SAPE   H2R16453   5.304   4.172  10.549 -0.8466  1.8466  0.9217
  149SAPE   H2S16454   5.141   4.131  10.498  2.2206 -4.0812 -0.6356
  149SAPE    C316455   5.424   4.616  10.475  0.5388 -0.2087 -1.2558
  149SAPE    HX16456   5.512   4.589  10.538  0.5761  0.6231 -0.9334
  149SAPE    HY16457   5.407   4.723  10.501 -1.9761 -0.4876 -1.5399
  149SAPE   O3116458   5.443   4.608  10.338 -0.3309  0.5104  0.1359
  149SAPE   C3116459   5.544   4.524  10.311  0.3372  0.9878 -0.4927
  149SAPE   O3216460   5.611   4.455  10.388  0.2543 -0.2312  0.3010
  149SAPE   C3216461   5.575   4.533  10.161  0.1109 -0.1994  1.0694
  149SAPE   H2X16462   5.591   4.637  10.126 -1.8365 -0.3531 -0.5408
  149SAPE   H2Y16463   5.481   4.496  10.113  0.7364 -0.9942  0.4295
  149SAPE   C2316464   5.279   4.164  10.332  0.5007  0.0571  0.1712
  149SAPE   H3R16465   5.273   4.055  10.311  0.4763  0.2457 -0.8279
  149SAPE   H3S16466   5.389   4.177  10.326  0.4049  0.2031 -3.0137
  149SAPE   C2416467   5.212   4.233  10.212 -0.6912 -0.4619  0.1155
  149SAPE   H4R16468   5.287   4.199  10.137 -2.5055  0.4784 -2.2446
  149SAPE   H4S16469   5.213   4.344  10.218  0.3937 -0.4787  0.4268
  149SAPE   C2516470   5.076   4.172  10.183 -0.3606  0.3808 -0.0530
  149SAPE   H5R16471   5.008   4.170  10.269 -0.4293 -0.8813 -0.1242
  149SAPE   C2616472   5.039   4.113  10.066  1.0104 -0.1056 -0.6031
  149SAPE   H6R16473   4.947   4.052  10.061 -0.4258  1.7282  1.2257
  149SAPE   C2716474   5.127   4.102   9.945 -0.7105 -0.0832  0.0704
  149SAPE   H7R16475   5.133   3.995   9.916  1.3715 -0.8862  3.0770
  149SAPE   H7S16476   5.231   4.137   9.958 -1.0672  1.0731 -0.0230
  149SAPE   C2816477   5.051   4.197   9.856  0.3867  0.0147  0.7972
  149SAPE   H8R16478   5.023   4.298   9.889 -0.1718  0.0432  0.2632
  149SAPE   C2916479   5.015   4.173   9.726 -0.8010 -0.0147  0.4431
  149SAPE   H9R16480   4.969   4.252   9.666 -1.4029 -0.9267 -0.3290
  149SAPE  C21016481   5.046   4.048   9.650 -0.6949 -0.1697  0.1154
  149SAPE  H10R16482   5.030   3.961   9.718  2.9918 -1.7668 -0.7738
  149SAPE  H10S16483   5.156   4.041   9.636 -0.6452  1.7132 -0.6645
  149SAPE  C21116484   4.977   4.027   9.519  0.9117  0.3839  0.0092
  149SAPE  H11R16485   4.878   3.978   9.526 -0.4175  2.4121 -2.4793
  149SAPE  C21216486   5.015   4.061   9.393  0.1935 -0.2558  0.6368
  149SAPE  H12R16487   4.966   4.014   9.307 -0.3034 -1.0297  1.3332
  149SAPE  C21316488   5.132   4.154   9.359  1.0556 -0.7119 -0.6399
  149SAPE  H13R16489   5.199   4.097   9.292 -0.0828  1.3923 -3.7588
  149SAPE  H13S16490   5.190   4.176   9.452  0.7608 -1.7292 -0.1961
  149SAPE  C21416491   5.099   4.296   9.307 -0.8554  0.3189 -0.7106
  149SAPE  H14R16492   5.090   4.375   9.383 -1.1218  0.5924 -1.0239
  149SAPE  C21516493   5.095   4.335   9.177 -0.1098  0.0791  1.0054
  149SAPE  H15R16494   5.077   4.441   9.153  1.1560 -0.0748 -0.8880
  149SAPE  C21616495   5.123   4.249   9.061  0.1686  0.5842 -0.3372
  149SAPE  H16R16496   5.046   4.252   8.981  0.5252  0.8074 -0.6803
  149SAPE  H16S16497   5.113   4.145   9.098  1.8361  1.0406  1.5636
  149SAPE  C21716498   5.266   4.277   9.014  0.4562 -0.2087  0.8782
  149SAPE  H17R16499   5.329   4.234   9.094 -0.7694 -4.7926 -0.2893
  149SAPE  H17S16500   5.277   4.387   9.008 -0.1988 -0.1189  1.1848
  149SAPE  C21816501   5.298   4.215   8.879 -0.5958  0.6861  0.0037
  149SAPE  H18R16502   5.218   4.144   8.852 -0.0556  0.1180 -0.1390
  149SAPE  H18S16503   5.399   4.167   8.879 -1.4488 -1.2106  1.3558
  149SAPE  C21916504   5.285   4.318   8.761  0.3831  0.8731 -0.9190
  149SAPE  H19R16505   5.348   4.408   8.778  0.2427  1.5220 -3.3475
  149SAPE  H19S16506   5.181   4.357   8.762 -0.4143 -1.1331 -0.7489
  149SAPE  C22016507   5.314   4.253   8.630 -0.3278 -0.0111 -0.8836
  149SAPE  H20R16508   5.301   4.332   8.553 -3.3716  0.3483 -0.1220
  149SAPE  H20S16509   5.251   4.165   8.603 -1.0895  0.8821 -2.1043
  149SAPE  H20T16510   5.417   4.213   8.624  0.6722  2.1743  0.4143
  149SAPE   C3316511   5.682   4.423  10.108 -0.2048 -1.0437  0.0351
  149SAPE   H3X16512   5.659   4.333  10.169  0.6781  1.1656  4.0207
  149SAPE   H3Y16513   5.779   4.463  10.143 -1.6943  1.1426  1.9895
  149SAPE   C3416514   5.673   4.399   9.954  0.8633 -0.3890  0.1398
  149SAPE   H4X16515   5.772   4.353   9.933  1.1257 -0.1087  0.7237
  149SAPE   H4Y16516   5.667   4.497   9.901 -1.7477  0.2294  1.4265
  149SAPE   C3516517   5.552   4.319   9.916  0.2160 -0.1338 -1.0743
  149SAPE   H5X16518   5.452   4.366   9.921  0.6340  0.7188 -0.6091
  149SAPE   H5Y16519   5.549   4.236   9.990 -1.1556  0.2276 -0.6848
  149SAPE   C3616520   5.563   4.252   9.778  0.1046  0.1778 -0.3636
  149SAPE   H6X16521   5.658   4.193   9.776  0.5007  0.8222 -0.6585
  149SAPE   H6Y16522   5.569   4.333   9.702 -2.7003  0.8348  0.0100
  149SAPE   C3716523   5.463   4.142   9.749  0.2413  0.2451 -0.0686
  149SAPE   H7X16524   5.365   4.182   9.784  1.8022  2.8265  1.6702
  149SAPE   H7Y16525   5.480   4.043   9.796 -2.3322  0.3239  1.2073
  149SAPE   C3816526   5.448   4.106   9.596 -0.1870 -0.2138 -0.4319
  149SAPE   H8X16527   5.446   4.201   9.539 -1.9453  1.2541  1.9118
  149SAPE   H8Y16528   5.342   4.072   9.584 -0.7620  1.4932 -0.4476
  149SAPE   C3916529   5.551   4.005   9.530  0.4342 -0.3598 -0.4627
  149SAPE   H9X16530   5.505   3.904   9.521 -0.0050 -0.2554  0.5267
  149SAPE   H9Y16531   5.642   4.008   9.593  0.1459  1.5542 -0.0790
  149SAPE  C31016532   5.609   4.043   9.387  0.1164  0.5537  0.3820
  149SAPE  H10X16533   5.700   4.105   9.400 -1.5191  3.1577  0.1581
  149SAPE  H10Y16534   5.539   4.118   9.344  1.7283  0.5711 -2.4585
  149SAPE  C31116535   5.630   3.921   9.290  0.3697 -0.2810 -0.4662
  149SAPE  H11X16536   5.537   3.860   9.287  0.4394 -0.9317  3.6528
  149SAPE  H11Y16537   5.704   3.854   9.338 -0.7833 -0.4102  1.2325
  149SAPE  C31216538   5.693   3.956   9.156  0.4787  0.4011 -0.5326
  149SAPE  H12X16539   5.797   3.993   9.164  1.0296 -1.3416  1.0982
  149SAPE  H12Y16540   5.633   4.038   9.110  1.9536  1.7225 -0.2009
  149SAPE  C31316541   5.682   3.835   9.068 -0.1916 -0.6432 -0.1489
  149SAPE  H13X16542   5.577   3.801   9.054 -0.3684 -0.4932  0.7656
  149SAPE  H13Y16543   5.733   3.753   9.122 -3.4136 -2.1187  0.8903
  149SAPE  C31416544   5.745   3.868   8.936  0.7392  0.3819 -0.2262
  149SAPE  H14X16545   5.747   3.778   8.870  0.0663 -0.7199  1.1751
  149SAPE  H14Y16546   5.848   3.906   8.952  0.4625  2.5806 -2.9565
  149SAPE  C31516547   5.670   3.975   8.855  0.0481  0.5340  0.9843
  149SAPE  H15X16548   5.645   4.065   8.914 -0.5333  1.2928 -0.3683
  149SAPE  H15Y16549   5.576   3.927   8.819  1.0659  0.5144 -1.9341
  149SAPE  C31616550   5.745   4.033   8.729 -0.2376  0.1992  0.0222
  149SAPE  H16X16551   5.853   4.045   8.751 -0.8219  0.0532  3.3385
  149SAPE  H16Y16552   5.705   4.135   8.707  0.4659  1.2279  3.0719
  149SAPE  C31716553   5.738   3.946   8.608 -0.4773  0.1593  0.0512
  149SAPE  H17X16554   5.778   4.012   8.528 -1.2285  1.4293  0.6747
  149SAPE  H17Y16555   5.632   3.923   8.584 -0.4941 -1.9134  1.8567
  149SAPE  C31816556   5.820   3.821   8.605  0.0947 -0.6106 -0.0164
  149SAPE  H18X16557   5.761   3.734   8.640  1.6982 -1.3212  1.0560
  149SAPE  H18Y16558   5.909   3.822   8.673 -0.9277 -3.9316  1.5625
  149SAPE  H18Z16559   5.858   3.803   8.503 -0.9530  0.1308 -0.5553
  150SAPE     N16560   6.528   1.891  10.800  0.1157 -0.2943  0.0109
  150SAPE   HN116561   6.601   1.931  10.862 -0.0432  0.1865 -0.1126
  150SAPE   HN216562   6.478   1.973  10.762  1.3161 -0.1119 -1.2434
  150SAPE   HN316563   6.461   1.851  10.869  1.6046 -0.2994  1.5012
  150SAPE   C1216564   6.582   1.797  10.705 -0.7043  0.8770  0.4061
  150SAPE  H12A16565   6.496   1.752  10.651  0.0626 -0.3637  0.1563
  150SAPE  H12B16566   6.647   1.721  10.754  0.6919  0.9968 -1.1406
  150SAPE   C1116567   6.663   1.862  10.594 -0.4240 -0.5986 -0.2299
  150SAPE  H11A16568   6.596   1.934  10.541  0.6643  0.6082 -0.0101
  150SAPE  H11B16569   6.706   1.786  10.526 -0.9111  0.5998 -1.9474
  150SAPE     P16570   6.906   1.881  10.688  0.2658 -0.3096 -0.4488
  150SAPE   O1316571   6.998   1.982  10.744  0.8267  0.6247  0.1784
  150SAPE   O1416572   6.880   1.759  10.770 -0.6444 -0.6406  0.0658
  150SAPE   O1216573   6.766   1.941  10.651 -0.1644 -0.3734 -0.2031
  150SAPE   O1116574   6.959   1.837  10.546 -0.0586  1.0933  0.4139
  150SAPE    C116575   6.940   1.924  10.433 -0.2741 -0.7775 -0.4991
  150SAPE    HA16576   6.864   1.884  10.362  0.1329 -1.9680 -0.2862
  150SAPE    HB16577   6.892   2.021  10.459 -0.0689 -0.9484  0.5762
  150SAPE    C216578   7.079   1.970  10.364 -0.5808 -0.1563  0.1864
  150SAPE    HS16579   7.062   2.061  10.302 -1.2968 -2.5714 -3.4846
  150SAPE   O2116580   7.146   1.873  10.284  0.0962  0.2924  0.6745
  150SAPE   C2116581   7.081   1.836  10.178  0.2194 -0.3749 -0.3009
  150SAPE   O2216582   6.966   1.867  10.139 -0.4470 -0.1267  0.2651
  150SAPE   C2216583   7.171   1.741  10.097  0.1271  0.1102 -0.0427
  150SAPE   H2R16584   7.252   1.797  10.045 -0.7846  1.1549 -0.3584
  150SAPE   H2S16585   7.211   1.685  10.184  2.4862  3.0945  0.9485
  150SAPE    C316586   7.188   2.016  10.470  0.4156  0.3466  0.5365
  150SAPE    HX16587   7.201   1.940  10.550 -2.0533 -1.2747 -0.4961
  150SAPE    HY16588   7.132   2.097  10.520 -0.7107  1.5120 -2.3833
  150SAPE   O3116589   7.318   2.063  10.416 -0.3065 -0.1577  0.4355
  150SAPE   C3116590   7.414   1.970  10.405  0.1203 -0.5131  0.0090
  150SAPE   O3216591   7.398   1.849  10.420 -0.1593  0.3384 -0.6845
  150SAPE   C3216592   7.546   2.029  10.353 -0.5848 -0.0486 -0.6626
  150SAPE   H2X16593   7.627   1.969  10.400 -1.3488 -0.0631  0.6706
  150SAPE   H2Y16594   7.561   2.134  10.387  2.5249 -0.5005 -0.3495
  150SAPE   C2316595   7.082   1.655  10.014 -0.5048 -0.1396  0.2998
  150SAPE   H3R16596   7.056   1.699   9.916  3.1933  0.0684 -0.7278
  150SAPE   H3S16597   6.992   1.632  10.075 -0.0356  2.1095  1.9734
  150SAPE   C2416598   7.144   1.519   9.979 -0.2828  0.6912 -0.3096
  150SAPE   H4R16599   7.074   1.447   9.929 -1.0333  0.4251  1.0636
  150SAPE   H4S16600   7.163   1.470  10.077  1.2031  1.4995 -0.1725
  150SAPE   C2516601   7.277   1.525   9.908  0.0398 -0.5366 -0.2594
  150SAPE   H5R16602   7.367   1.523   9.971 -0.0150 -0.3489 -0.1730
  150SAPE   C2616603   7.294   1.568   9.777 -0.6732  0.3776  0.4299
  150SAPE   H6R16604   7.395   1.569   9.733 -1.1423  1.4710 -0.6833
  150SAPE   C2716605   7.180   1.587   9.674  0.1515  0.0331 -0.3634
  150SAPE   H7R16606   7.082   1.575   9.724  0.4743 -0.7054  0.1048
  150SAPE   H7S16607   7.201   1.515   9.593  0.8968 -0.2259  0.0479
  150SAPE   C2816608   7.196   1.736   9.625  0.6812  0.1082  0.0695
  150SAPE   H8R16609   7.182   1.821   9.694 -1.1616 -0.0512 -0.0519
  150SAPE   C2916610   7.208   1.781   9.497 -0.3364 -0.4201  0.0304
  150SAPE   H9R16611   7.210   1.890   9.487  1.3130 -0.2961  1.3022
  150SAPE  C21016612   7.214   1.700   9.372 -0.8314 -0.9355 -0.5716
  150SAPE  H10R16613   7.240   1.597   9.405  0.8889  0.6010  3.5039
  150SAPE  H10S16614   7.304   1.736   9.317 -1.5387  0.1950 -1.0201
  150SAPE  C21116615   7.087   1.700   9.294 -0.4868  0.0710 -0.4377
  150SAPE  H11R16616   7.000   1.742   9.347  1.0603  3.4086 -0.2648
  150SAPE  C21216617   7.074   1.668   9.159  0.0397  0.4363  0.0795
  150SAPE  H12R16618   6.971   1.658   9.123  0.0374  0.7034  0.0136
  150SAPE  C21316619   7.176   1.625   9.063 -0.1566 -0.3647 -0.2961
  150SAPE  H13R16620   7.280   1.621   9.103  0.6591 -0.2546 -2.3152
  150SAPE  H13S16621   7.177   1.685   8.969  1.6403 -0.4208 -0.3507
  150SAPE  C21416622   7.156   1.485   9.023  1.1166  0.1684  0.0173
  150SAPE  H14R16623   7.126   1.426   9.110 -1.7704 -2.1112 -2.2920
  150SAPE  C21516624   7.156   1.432   8.901 -0.8231 -0.6865  0.1042
  150SAPE  H15R16625   7.146   1.323   8.892  0.4503 -0.7495 -0.8814
  150SAPE  C21616626   7.178   1.499   8.767 -0.3836  0.0002  0.7273
  150SAPE  H16R16627   7.278   1.468   8.728  0.1912  0.5340  1.7256
  150SAPE  H16S16628   7.200   1.605   8.792  0.0802 -0.3970  2.0600
  150SAPE  C21716629   7.074   1.482   8.659 -0.3580 -0.2614 -0.0968
  150SAPE  H17R16630   7.095   1.530   8.561  0.9825  0.4086  0.4869
  150SAPE  H17S16631   6.977   1.529   8.684 -0.2694  0.0378 -0.3210
  150SAPE  C21816632   7.056   1.332   8.619 -0.5385 -0.2173 -0.1875
  150SAPE  H18R16633   7.036   1.264   8.705  0.4525 -2.8198 -1.8967
  150SAPE  H18S16634   7.151   1.299   8.572 -0.3170  1.2387 -0.8073
  150SAPE  C21916635   6.944   1.321   8.515  0.5011  1.0103  0.6142
  150SAPE  H19R16636   6.965   1.397   8.436 -2.9640  0.0013 -1.4933
  150SAPE  H19S16637   6.850   1.341   8.571  0.2006 -2.3743  1.4879
  150SAPE  C22016638   6.933   1.185   8.441 -0.1676 -0.1107  0.7150
  150SAPE  H20R16639   6.846   1.185   8.372 -0.7268  0.3591  1.4169
  150SAPE  H20S16640   6.916   1.092   8.498  1.1530  0.3255  1.8782
  150SAPE  H20T16641   7.035   1.164   8.400  0.7814 -0.6724  3.1637
  150SAPE   C3316642   7.565   2.025  10.198  0.2034  0.0491  0.2838
  150SAPE   H3X16643   7.547   1.923  10.158  0.5065  0.3791 -0.7172
  150SAPE   H3Y16644   7.667   2.059  10.171 -0.7572  1.8461 -1.2887
  150SAPE   C3416645   7.464   2.120  10.121  0.2396 -0.5722 -0.0493
  150SAPE   H4X16646   7.479   2.218  10.170  0.5866 -0.5973 -0.0980
  150SAPE   H4Y16647   7.360   2.085  10.133  0.3072 -0.0577  2.6075
  150SAPE   C3516648   7.507   2.128   9.974 -0.1443 -0.0621 -0.2332
  150SAPE   H5X16649   7.610   2.088   9.983 -1.0640 -2.1588  2.6529
  150SAPE   H5Y16650   7.508   2.234   9.942  1.3331  0.1874  0.5441
  150SAPE   C3616651   7.445   2.021   9.885  0.8812 -0.2164 -0.6920
  150SAPE   H6X16652   7.443   1.925   9.942 -0.1014  0.0318 -0.2792
  150SAPE   H6Y16653   7.514   2.014   9.798 -1.3309  0.3281 -2.5877
  150SAPE   C3716654   7.310   2.053   9.822 -0.1959 -0.8748  0.2831
  150SAPE   H7X16655   7.221   2.020   9.878 -1.4792  1.2529 -0.3843
  150SAPE   H7Y16656   7.310   1.998   9.725 -0.4647 -0.0193 -0.2136
  150SAPE   C3816657   7.290   2.207   9.793 -0.2580 -0.0700  0.2314
  150SAPE   H8X16658   7.382   2.269   9.798  1.7276 -2.5280 -2.4445
  150SAPE   H8Y16659   7.220   2.235   9.874 -0.9437 -0.4777 -0.2083
  150SAPE   C3916660   7.216   2.249   9.652  0.0944 -0.1243  0.8514
  150SAPE   H9X16661   7.194   2.358   9.656  1.1700  0.1576 -0.2386
  150SAPE   H9Y16662   7.116   2.201   9.656 -0.9252  1.5159 -1.7565
  150SAPE  C31016663   7.294   2.208   9.522 -0.4480 -0.0239  0.0430
  150SAPE  H10X16664   7.360   2.120   9.534 -0.6778  0.0341  2.2324
  150SAPE  H10Y16665   7.360   2.291   9.491 -0.3778  0.0998  0.5093
  150SAPE  C31116666   7.201   2.183   9.403 -0.2324 -0.8142 -0.1930
  150SAPE  H11X16667   7.155   2.279   9.373 -2.3056 -1.3918  0.9755
  150SAPE  H11Y16668   7.113   2.123   9.432 -2.0606  1.6837 -0.2791
  150SAPE  C31216669   7.268   2.107   9.287  0.1403  0.6600 -0.0102
  150SAPE  H12X16670   7.215   2.010   9.289 -2.5285  2.0232 -0.3161
  150SAPE  H12Y16671   7.378   2.094   9.300  0.5083 -0.0490 -3.0550
  150SAPE  C31316672   7.248   2.190   9.155 -0.3014  0.0905  0.1928
  150SAPE  H13X16673   7.272   2.297   9.175 -1.0484  0.3282 -0.1230
  150SAPE  H13Y16674   7.140   2.198   9.131 -0.2568 -1.3207 -0.5235
  150SAPE  C31416675   7.326   2.122   9.040 -0.4117 -0.5253  0.1783
  150SAPE  H14X16676   7.435   2.120   9.065 -0.4393 -2.2089  0.3179
  150SAPE  H14Y16677   7.303   2.172   8.944  1.6893  1.3042  0.5428
  150SAPE  C31516678   7.300   1.968   9.018  0.1195 -0.4738  0.0653
  150SAPE  H15X16679   7.191   1.952   9.007 -0.4642  2.1756  1.3502
  150SAPE  H15Y16680   7.330   1.910   9.108  3.4572  1.6829  0.5367
  150SAPE  C31616681   7.372   1.907   8.894 -0.1806 -0.0143  1.2035
  150SAPE  H16X16682   7.386   1.799   8.913  0.8730  0.0382  0.7664
  150SAPE  H16Y16683   7.467   1.958   8.867 -1.3711  2.0811  0.7028
  150SAPE  C31716684   7.281   1.918   8.762  0.0797  0.0108 -0.0864
  150SAPE  H17X16685   7.272   2.027   8.741  0.0229 -0.4212 -2.5828
  150SAPE  H17Y16686   7.180   1.878   8.786 -0.9556  0.1515 -3.6813
  150SAPE  C31816687   7.341   1.833   8.641  0.6960  0.0486 -0.0518
  150SAPE  H18X16688   7.440   1.875   8.613  1.2413 -1.1481 -0.0016
  150SAPE  H18Y16689   7.290   1.847   8.543 -0.5157  2.2018  0.8189
  150SAPE  H18Z16690   7.338   1.725   8.667 -1.9532  0.0999  0.0815
  151SAPE     N16691   3.300   6.152  10.522 -0.2144  1.0962  0.5827
  151SAPE   HN116692   3.332   6.162  10.424  0.5320  0.2301  0.7288
  151SAPE   HN216693   3.394   6.165  10.563  0.4117  0.1455 -0.4912
  151SAPE   HN316694   3.274   6.051  10.531  0.1091  0.7426 -1.7015
  151SAPE   C1216695   3.181   6.236  10.558 -0.1567  0.2342  0.4484
  151SAPE  H12A16696   3.218   6.340  10.550  1.7585 -0.1229  3.4561
  151SAPE  H12B16697   3.160   6.217  10.665  2.1413 -1.0844  0.7135
  151SAPE   C1116698   3.068   6.198  10.463 -0.0749  0.2802  0.1694
  151SAPE  H11A16699   3.111   6.212  10.361 -0.2854  1.5966  0.2413
  151SAPE  H11B16700   2.983   6.267  10.482  1.1519  1.5905  1.1249
  151SAPE     P16701   2.900   5.983  10.434  0.1096 -0.2746 -0.2200
  151SAPE   O1316702   2.875   5.859  10.509 -0.1885 -0.3835  0.2137
  151SAPE   O1416703   2.785   6.077  10.439  0.3676  0.6484  0.0710
  151SAPE   O1216704   3.032   6.065  10.483  0.5223  0.3968  0.1380
  151SAPE   O1116705   2.945   5.939  10.289 -0.2627  0.1418  0.0713
  151SAPE    C116706   2.899   6.015  10.176  0.2440 -1.0185  0.1301
  151SAPE    HA16707   2.889   6.123  10.196 -0.5964 -0.8348 -1.2202
  151SAPE    HB16708   2.967   6.011  10.089  0.1966  0.6950 -0.0170
  151SAPE    C216709   2.766   5.963  10.112 -0.0254 -0.3857 -0.9343
  151SAPE    HS16710   2.689   5.940  10.189 -1.7395  2.0656 -1.7979
  151SAPE   O2116711   2.804   5.851  10.028  0.4347 -0.4643  0.4304
  151SAPE   C2116712   2.737   5.737  10.047 -0.7267  0.1653 -0.3555
  151SAPE   O2216713   2.639   5.716  10.115 -0.7624  0.7158 -1.0072
  151SAPE   C2216714   2.796   5.641   9.935 -0.2134  0.1506 -0.0669
  151SAPE   H2R16715   2.780   5.540   9.977 -1.4562  0.4680  0.2647
  151SAPE   H2S16716   2.732   5.657   9.846  1.9281 -0.6556 -1.8586
  151SAPE    C316717   2.696   6.072  10.034 -0.3911  0.0143  0.0286
  151SAPE    HX16718   2.777   6.097   9.963  0.7342 -2.7659  0.2079
  151SAPE    HY16719   2.679   6.160  10.100 -0.6025 -0.2432  0.3205
  151SAPE   O3116720   2.567   6.038   9.977 -0.2642  0.2832  0.6276
  151SAPE   C3116721   2.469   6.042  10.063 -0.0226  0.0225 -0.5950
  151SAPE   O3216722   2.484   6.067  10.178  0.2220 -0.4773  0.2760
  151SAPE   C3216723   2.329   6.020   9.996 -0.7116 -0.9373  0.0491
  151SAPE   H2X16724   2.336   5.972   9.897 -0.0646  0.3490 -0.5587
  151SAPE   H2Y16725   2.289   6.124   9.988  0.3456 -0.5370 -0.2262
  151SAPE   C2316726   2.947   5.663   9.908 -0.1348  0.6910  0.0609
  151SAPE   H3R16727   2.990   5.664  10.010  1.0114  2.5449 -0.3998
  151SAPE   H3S16728   2.959   5.765   9.865  1.7106  0.2262 -0.6253
  151SAPE   C2416729   3.000   5.558   9.805  0.7058 -0.2062  0.1081
  151SAPE   H4R16730   3.104   5.584   9.775  0.1552 -0.9132 -2.7638
  151SAPE   H4S16731   2.942   5.575   9.712 -0.2473 -1.1534  0.5089
  151SAPE   C2516732   3.000   5.414   9.843  0.3439  0.5637 -0.4362
  151SAPE   H5R16733   3.038   5.400   9.945 -0.3075 -2.3853 -0.5241
  151SAPE   C2616734   2.968   5.305   9.768 -0.1864 -0.3480  0.2831
  151SAPE   H6R16735   2.965   5.201   9.804  1.4121 -0.3005  0.6361
  151SAPE   C2716736   2.922   5.316   9.624  0.6621 -0.3783  0.8043
  151SAPE   H7R16737   2.928   5.213   9.583 -0.9698  0.3782 -1.5160
  151SAPE   H7S16738   3.000   5.370   9.565 -0.3264 -0.2998 -0.4636
  151SAPE   C2816739   2.783   5.370   9.601 -0.4315 -0.7095  0.1038
  151SAPE   H8R16740   2.745   5.429   9.686 -0.8285 -0.8905  0.0548
  151SAPE   C2916741   2.714   5.365   9.486 -0.0164  0.8325  0.1515
  151SAPE   H9R16742   2.608   5.391   9.490  0.1773  1.7839 -0.6728
  151SAPE  C21016743   2.754   5.291   9.359 -0.4011 -0.2528 -0.3104
  151SAPE  H10R16744   2.837   5.220   9.377 -0.6199 -1.3231 -3.0814
  151SAPE  H10S16745   2.794   5.366   9.287  3.9418 -1.1923  0.8606
  151SAPE  C21116746   2.646   5.209   9.295  0.6027  0.9771 -0.3724
  151SAPE  H11R16747   2.543   5.229   9.329  0.8691  0.9662  0.4598
  151SAPE  C21216748   2.669   5.127   9.193 -0.1637 -0.5114  0.6763
  151SAPE  H12R16749   2.585   5.072   9.148  0.1561  0.0529 -0.6471
  151SAPE  C21316750   2.804   5.110   9.129  0.9336  0.3484 -0.1941
  151SAPE  H13R16751   2.868   5.201   9.137 -2.2393  2.9256 -1.6633
  151SAPE  H13S16752   2.793   5.116   9.019  0.0889  0.7252 -0.1015
  151SAPE  C21416753   2.876   4.980   9.170 -0.0185 -0.1227  0.2415
  151SAPE  H14R16754   2.906   4.976   9.276 -0.2154 -0.8536  0.2761
  151SAPE  C21516755   2.922   4.877   9.088 -0.5059  0.4327 -0.4020
  151SAPE  H15R16756   2.975   4.792   9.133  1.0960  0.8178 -1.4805
  151SAPE  C21616757   2.911   4.876   8.935  0.4242  0.4588 -0.1802
  151SAPE  H16R16758   2.812   4.918   8.908  0.2656  1.4182  1.7107
  151SAPE  H16S16759   2.903   4.770   8.902  0.7426  0.4322 -0.1732
  151SAPE  C21716760   3.033   4.940   8.862  0.1449  0.1459  0.1910
  151SAPE  H17R16761   3.040   4.886   8.765  0.6216  1.9793 -0.8507
  151SAPE  H17S16762   3.129   4.916   8.913  0.1810 -1.8648 -0.7299
  151SAPE  C21816763   3.015   5.090   8.834  0.1989  0.0150 -0.3898
  151SAPE  H18R16764   3.014   5.141   8.933 -0.0130 -2.1614  0.7877
  151SAPE  H18S16765   2.915   5.104   8.789  0.5055 -0.5144 -1.2550
  151SAPE  C21916766   3.113   5.137   8.726 -0.5803 -0.0302  0.1432
  151SAPE  H19R16767   3.122   5.063   8.644 -0.8375  0.4502 -0.3185
  151SAPE  H19S16768   3.215   5.138   8.771 -1.0385 -0.0856  1.2238
  151SAPE  C22016769   3.078   5.267   8.661  0.3577 -1.1488  0.0796
  151SAPE  H20R16770   3.159   5.316   8.602 -1.3681  0.2895 -1.2173
  151SAPE  H20S16771   3.053   5.348   8.733  0.0457 -1.2131  0.0444
  151SAPE  H20T16772   2.990   5.255   8.594 -0.3847  0.8849  0.6106
  151SAPE   C3316773   2.248   5.919  10.080 -0.8489  0.2097 -0.0136
  151SAPE   H3X16774   2.225   5.963  10.180 -1.1914  0.1127 -0.0486
  151SAPE   H3Y16775   2.314   5.836  10.115 -1.3178  0.6660  2.1229
  151SAPE   C3416776   2.115   5.870  10.023  1.1022 -0.1072 -0.4097
  151SAPE   H4X16777   2.129   5.803   9.936  0.1739 -2.0136  0.8360
  151SAPE   H4Y16778   2.045   5.951   9.993 -1.5334 -1.3802  1.7698
  151SAPE   C3516779   2.032   5.780  10.122 -0.4633  0.4308 -0.0469
  151SAPE   H5X16780   1.983   5.841  10.201  0.6416  1.4249 -0.1049
  151SAPE   H5Y16781   2.107   5.716  10.172  1.8376  0.0975 -3.5880
  151SAPE   C3616782   1.942   5.692  10.035 -0.1944  0.4589 -0.4724
  151SAPE   H6X16783   1.910   5.608  10.100  0.2054 -0.2488 -1.1647
  151SAPE   H6Y16784   2.009   5.637   9.965 -0.3272 -0.9628  0.4727
  151SAPE   C3716785   1.825   5.765   9.969  0.6768  0.0964 -0.2245
  151SAPE   H7X16786   1.855   5.872   9.967 -0.3960  0.4977  1.9696
  151SAPE   H7Y16787   1.730   5.756  10.027  0.8372 -2.4022 -0.2504
  151SAPE   C3816788   1.787   5.727   9.826  0.2108  0.1650 -0.4773
  151SAPE   H8X16789   1.689   5.769   9.795  0.6773  1.2198 -0.5495
  151SAPE   H8Y16790   1.772   5.617   9.829  2.3732 -0.1686 -0.1427
  151SAPE   C3916791   1.902   5.750   9.720  0.3788  0.0689 -0.1747
  151SAPE   H9X16792   2.001   5.725   9.763  0.8273  1.2724 -0.4698
  151SAPE   H9Y16793   1.912   5.858   9.697 -0.6798  0.9210  2.8391
  151SAPE  C31016794   1.895   5.668   9.586  0.3989  0.2698  0.1928
  151SAPE  H10X16795   1.858   5.567   9.615  1.7108 -0.9931 -2.2201
  151SAPE  H10Y16796   1.996   5.648   9.546  1.2607  0.3487  2.2064
  151SAPE  C31116797   1.820   5.742   9.480 -0.2231 -0.6042 -0.0756
  151SAPE  H11X16798   1.862   5.844   9.488 -1.5064 -0.0973  0.4975
  151SAPE  H11Y16799   1.714   5.758   9.508 -0.3297  0.7959 -1.2029
  151SAPE  C31216800   1.836   5.699   9.336  0.4552  0.4075 -0.2800
  151SAPE  H12X16801   1.749   5.633   9.316  0.4065  0.0194  1.0955
  151SAPE  H12Y16802   1.915   5.623   9.318  0.8249  0.0429  2.4776
  151SAPE  C31316803   1.840   5.818   9.237  0.0296 -0.4941 -0.5523
  151SAPE  H13X16804   1.936   5.874   9.250 -0.1599 -0.1046 -0.7903
  151SAPE  H13Y16805   1.749   5.874   9.266  0.1965 -0.6380  0.2759
  151SAPE  C31416806   1.825   5.782   9.090  0.1693 -0.2180  0.3484
  151SAPE  H14X16807   1.729   5.728   9.075 -0.7404  1.5645 -0.6082
  151SAPE  H14Y16808   1.904   5.706   9.068  1.7326  0.8122  2.0729
  151SAPE  C31516809   1.837   5.895   8.987  0.1611  0.1581 -0.1503
  151SAPE  H15X16810   1.763   5.976   9.007  0.3125  0.3847 -0.5064
  151SAPE  H15Y16811   1.821   5.851   8.887  1.5915  1.7250 -1.1200
  151SAPE  C31616812   1.974   5.948   8.964  0.3858  0.0321 -0.0536
  151SAPE  H16X16813   2.033   5.868   8.914 -1.2123 -1.8316  0.9049
  151SAPE  H16Y16814   2.019   5.962   9.064  1.3238 -1.3890 -0.2359
  151SAPE  C31716815   1.978   6.070   8.866 -0.4858  0.0009  0.6300
  151SAPE  H17X16816   2.087   6.069   8.845 -0.2999 -3.2610  1.1952
  151SAPE  H17Y16817   1.960   6.167   8.917  1.2407  1.0032 -0.5677
  151SAPE  C31816818   1.916   6.038   8.726 -0.3028 -0.9628  0.0379
  151SAPE  H18X16819   1.958   5.939   8.697 -0.8880 -0.7929 -1.4422
  151SAPE  H18Y16820   1.942   6.116   8.652  1.3646 -1.5157 -0.0054
  151SAPE  H18Z16821   1.805   6.037   8.721 -0.3670  2.3558 -1.5315
  152SAPE     N16822   5.304   6.011  10.875  0.3055 -0.1491 -0.5990
  152SAPE   HN116823   5.336   6.047  10.783 -0.1156  1.7284 -0.0693
  152SAPE   HN216824   5.346   6.073  10.947 -0.7072 -0.7946  0.5815
  152SAPE   HN316825   5.336   5.913  10.884  3.4014  0.9147  1.8757
  152SAPE   C1216826   5.151   6.026  10.890 -0.0910  0.7159  0.2697
  152SAPE  H12A16827   5.120   6.132  10.908 -0.3796  0.7559 -0.4353
  152SAPE  H12B16828   5.117   5.974  10.982 -1.6137 -0.6610 -1.0111
  152SAPE   C1116829   5.081   5.957  10.774  0.3102 -0.0626 -0.3097
  152SAPE  H11A16830   5.117   6.000  10.679 -2.8455  0.6880 -1.2722
  152SAPE  H11B16831   4.972   5.977  10.775  0.1919 -0.4968 -1.8614
  152SAPE     P16832   5.163   5.738  10.671  0.1122 -0.0927 -0.1213
  152SAPE   O1316833   5.291   5.807  10.634 -0.1632 -0.5247 -0.4531
  152SAPE   O1416834   5.177   5.593  10.704 -0.1645 -0.3078  0.0024
  152SAPE   O1216835   5.098   5.814  10.793 -0.2133  0.0309 -0.1211
  152SAPE   O1116836   5.062   5.763  10.551  0.0295 -0.3062  0.3587
  152SAPE    C116837   4.945   5.692  10.524 -0.0116  0.0197  0.4766
  152SAPE    HA16838   4.917   5.631  10.612  3.5078 -2.7875 -0.1286
  152SAPE    HB16839   4.867   5.759  10.483 -0.7636 -1.6009 -0.8480
  152SAPE    C216840   4.980   5.590  10.412 -0.4729 -0.0100 -0.9054
  152SAPE    HS16841   5.076   5.544  10.444 -0.7652  0.0014  0.0056
  152SAPE   O2116842   5.004   5.663  10.293  0.5900  0.0503  0.0191
  152SAPE   C2116843   5.105   5.637  10.213  0.2794  0.0658 -0.2598
  152SAPE   O2216844   5.180   5.543  10.223  0.2168  0.4215 -0.0256
  152SAPE   C2216845   5.113   5.747  10.101  0.4577  0.6746 -0.1221
  152SAPE   H2R16846   5.013   5.748  10.051  0.9858 -1.7503 -1.3549
  152SAPE   H2S16847   5.123   5.844  10.154 -0.6959  1.4923 -1.3292
  152SAPE    C316848   4.865   5.486  10.396  0.2058 -0.0526 -0.6132
  152SAPE    HX16849   4.769   5.540  10.378 -0.7650 -1.7953 -0.9403
  152SAPE    HY16850   4.868   5.438  10.496  3.4145 -1.0320 -1.0689
  152SAPE   O3116851   4.879   5.398  10.288  0.4060  0.2967 -0.1985
  152SAPE   C3116852   4.961   5.292  10.307  1.2475 -0.3559  0.2643
  152SAPE   O3216853   5.019   5.266  10.409 -0.4345  0.0898  0.5432
  152SAPE   C3216854   4.966   5.220  10.176  0.7008  0.2119 -0.3965
  152SAPE   H2X16855   4.874   5.160  10.166  1.0064 -0.3147 -0.0992
  152SAPE   H2Y16856   5.063   5.166  10.182 -0.6788 -2.2806  1.6733
  152SAPE   C2316857   5.219   5.716   9.995 -0.4515 -0.2999 -0.0136
  152SAPE   H3R16858   5.198   5.618   9.947 -0.0624  0.6434 -2.2243
  152SAPE   H3S16859   5.316   5.720  10.049  0.6063 -0.5226 -1.8229
  152SAPE   C2416860   5.216   5.821   9.880 -0.1157 -0.0381 -0.1012
  152SAPE   H4R16861   5.211   5.922   9.926  0.0903 -0.7347  1.5162
  152SAPE   H4S16862   5.122   5.798   9.826  0.1734 -3.8872  0.7723
  152SAPE   C2516863   5.325   5.802   9.779  0.1352 -0.1199 -0.8271
  152SAPE   H5R16864   5.425   5.795   9.823 -0.7956 -0.0792  1.4526
  152SAPE   C2616865   5.312   5.779   9.646  0.2811  0.5462 -0.1054
  152SAPE   H6R16866   5.401   5.749   9.588  0.7778 -0.2045  1.0110
  152SAPE   C2716867   5.179   5.766   9.565 -0.5143  0.4975  0.4315
  152SAPE   H7R16868   5.156   5.871   9.537 -2.1822 -0.2440 -1.1815
  152SAPE   H7S16869   5.102   5.730   9.636 -1.6169 -0.2602 -1.0818
  152SAPE   C2816870   5.174   5.671   9.446 -0.1205 -0.1679  0.1082
  152SAPE   H8R16871   5.227   5.578   9.475  1.7821  0.5858 -0.7705
  152SAPE   C2916872   5.131   5.690   9.321 -0.3058 -0.1261  0.0487
  152SAPE   H9R16873   5.119   5.603   9.255 -0.9783  0.9284 -1.2702
  152SAPE  C21016874   5.062   5.823   9.276  0.0544  0.0014 -0.5206
  152SAPE  H10R16875   5.141   5.878   9.220  0.9092  0.8131  1.4175
  152SAPE  H10S16876   5.032   5.891   9.359 -0.8920  0.7527 -1.4389
  152SAPE  C21116877   4.940   5.790   9.189  0.5831 -0.8506  0.5855
  152SAPE  H11R16878   4.868   5.717   9.227 -1.3238  0.1413 -0.9413
  152SAPE  C21216879   4.917   5.841   9.064 -0.3778 -0.4640  0.5290
  152SAPE  H12R16880   4.837   5.803   8.998 -1.5112  0.9041  1.0839
  152SAPE  C21316881   4.992   5.946   8.986  0.2508 -0.1048 -0.4202
  152SAPE  H13R16882   5.065   5.899   8.916 -0.3973 -1.0752 -0.4684
  152SAPE  H13S16883   5.061   6.010   9.046  1.4199  1.0493 -2.8745
  152SAPE  C21416884   4.901   6.034   8.906 -0.0461 -0.3609  0.2424
  152SAPE  H14R16885   4.807   6.061   8.956 -1.7224 -1.7693 -1.9739
  152SAPE  C21516886   4.923   6.083   8.781  0.5234 -0.3394  0.7033
  152SAPE  H15R16887   4.840   6.138   8.734  0.2065 -0.9506  0.5306
  152SAPE  C21616888   5.043   6.063   8.695  0.6029 -0.4543  0.6323
  152SAPE  H16R16889   5.132   6.026   8.750  1.7048  0.6080 -0.3672
  152SAPE  H16S16890   5.073   6.160   8.650  0.4399 -1.5544 -2.0530
  152SAPE  C21716891   5.032   5.974   8.569  0.4145 -0.7271  0.0453
  152SAPE  H17R16892   4.948   6.013   8.507  0.4261 -2.2876 -0.9877
  152SAPE  H17S16893   4.998   5.875   8.606  0.7729 -0.0342  2.4258
  152SAPE  C21816894   5.158   5.951   8.481  0.1147 -0.0855 -0.3181
  152SAPE  H18R16895   5.234   5.912   8.551  0.8591 -0.0657 -1.0995
  152SAPE  H18S16896   5.188   6.045   8.431 -0.6249 -0.3409 -1.2848
  152SAPE  C21916897   5.132   5.848   8.377  0.2316 -0.1528 -0.3998
  152SAPE  H19R16898   5.042   5.874   8.319  1.2876  2.1275 -1.1275
  152SAPE  H19S16899   5.136   5.750   8.430 -0.1284  0.6033  1.0836
  152SAPE  C22016900   5.246   5.855   8.278  0.9819 -0.1985 -0.2354
  152SAPE  H20R16901   5.229   5.929   8.197  3.2756  2.5714  1.5996
  152SAPE  H20S16902   5.271   5.758   8.231  1.4274 -0.0217 -0.3713
  152SAPE  H20T16903   5.344   5.879   8.325  1.2123  0.5448 -1.0748
  152SAPE   C3316904   4.985   5.324  10.059 -0.1945 -0.2273 -0.6141
  152SAPE   H3X16905   5.078   5.383  10.073 -0.5294  0.0810  0.3803
  152SAPE   H3Y16906   4.896   5.389  10.047 -0.5902 -1.0467 -2.4029
  152SAPE   C3416907   5.028   5.247   9.931  0.8990 -0.2296  0.1159
  152SAPE   H4X16908   4.944   5.187   9.890  0.0870 -0.4187  1.9442
  152SAPE   H4Y16909   5.107   5.172   9.952  1.8683  0.4205 -1.0908
  152SAPE   C3516910   5.084   5.345   9.822  0.9633 -0.0556 -0.0505
  152SAPE   H5X16911   5.165   5.407   9.865 -0.4829  2.8950 -1.2475
  152SAPE   H5Y16912   5.009   5.420   9.791 -0.0376 -1.3074 -0.7504
  152SAPE   C3616913   5.128   5.269   9.692  0.2138 -0.0334 -0.9773
  152SAPE   H6X16914   5.208   5.197   9.717 -0.0811  0.1206  0.4942
  152SAPE   H6Y16915   5.161   5.341   9.615 -0.8746  0.3077 -1.1494
  152SAPE   C3716916   5.019   5.193   9.616 -0.0677  1.0960 -0.6677
  152SAPE   H7X16917   4.922   5.243   9.638 -0.2237 -0.5513  3.1300
  152SAPE   H7Y16918   5.007   5.093   9.663  1.6307  0.8550 -0.6821
  152SAPE   C3816919   5.051   5.180   9.466  0.0696  0.0568  0.0545
  152SAPE   H8X16920   5.069   5.283   9.428 -0.2971 -0.4864 -1.6403
  152SAPE   H8Y16921   4.966   5.136   9.410 -0.5295 -0.1199  1.0743
  152SAPE   C3916922   5.177   5.098   9.435  0.2524 -0.0709 -0.4219
  152SAPE   H9X16923   5.161   4.994   9.473 -1.6114 -0.4601 -2.1019
  152SAPE   H9Y16924   5.264   5.143   9.488 -1.1391 -0.4123  2.3780
  152SAPE  C31016925   5.202   5.097   9.284  0.1531  0.0687 -0.2399
  152SAPE  H10X16926   5.227   5.198   9.244 -2.1243  0.1392 -1.6829
  152SAPE  H10Y16927   5.113   5.061   9.227 -1.8003  1.6759  1.6147
  152SAPE  C31116928   5.320   5.012   9.250 -0.7859  0.3190  0.8762
  152SAPE  H11X16929   5.304   4.909   9.288 -0.7924  0.5114  1.4028
  152SAPE  H11Y16930   5.408   5.057   9.299 -0.4948  1.5504 -0.7006
  152SAPE  C31216931   5.336   5.003   9.100  0.1808 -0.7162  0.2886
  152SAPE  H12X16932   5.348   5.106   9.059 -2.0233 -1.0276 -1.3298
  152SAPE  H12Y16933   5.241   4.965   9.056  0.4274 -1.0386  0.0303
  152SAPE  C31316934   5.443   4.909   9.043  0.3297  0.4850 -0.2846
  152SAPE  H13X16935   5.432   4.804   9.079 -0.7561  0.2384 -1.2417
  152SAPE  H13Y16936   5.545   4.941   9.072  1.2516 -1.7171 -0.8732
  152SAPE  C31416937   5.449   4.892   8.892  0.5400 -0.2550  0.6649
  152SAPE  H14X16938   5.343   4.900   8.860  0.5557 -0.4212  0.5753
  152SAPE  H14Y16939   5.509   4.803   8.864  0.1802 -0.3914  0.3269
  152SAPE  C31516940   5.512   5.011   8.818 -0.4168 -0.2213 -0.0307
  152SAPE  H15X16941   5.615   5.026   8.857  0.0582 -1.0390 -0.8997
  152SAPE  H15Y16942   5.454   5.105   8.820  0.1326  0.1222  0.0464
  152SAPE  C31616943   5.531   4.977   8.665  0.2470  0.0741  0.2599
  152SAPE  H16X16944   5.443   5.015   8.609  1.6479 -0.4635 -2.5076
  152SAPE  H16Y16945   5.524   4.866   8.658 -0.5574  0.1309  0.0580
  152SAPE  C31716946   5.663   5.025   8.606  0.1530 -0.2843 -0.0669
  152SAPE  H17X16947   5.679   4.985   8.503 -1.1714  1.0453 -0.8170
  152SAPE  H17Y16948   5.749   4.986   8.665  1.6054 -0.4156 -2.1635
  152SAPE  C31816949   5.676   5.178   8.599  0.0798 -0.2361 -0.3409
  152SAPE  H18X16950   5.589   5.215   8.541 -0.3943 -1.0132 -0.1356
  152SAPE  H18Y16951   5.775   5.204   8.557 -0.3854  1.6030 -0.3920
  152SAPE  H18Z16952   5.673   5.226   8.700 -1.6653 -2.2757  0.6542
  153SAPE     N16953   4.731   4.752  10.639  0.5303 -0.1361  0.2283
  153SAPE   HN116954   4.669   4.804  10.574  0.0864  0.8309  1.3882
  153SAPE   HN216955   4.821   4.804  10.641 -0.1103  0.9900  0.5173
  153SAPE   HN316956   4.742   4.652  10.614  0.2358 -0.0953 -0.0744
  153SAPE   C1216957   4.657   4.753  10.771 -0.0564  0.0531 -1.1979
  153SAPE  H12A16958   4.731   4.722  10.848 -1.8567 -1.0088  0.1699
  153SAPE  H12B16959   4.570   4.685  10.756  0.5110 -1.2592  1.0071
  153SAPE   C1116960   4.624   4.896  10.813  0.4324 -0.2237  0.6495
  153SAPE  H11A16961   4.719   4.953  10.812  1.0557 -0.9489 -3.9273
  153SAPE  H11B16962   4.590   4.913  10.917 -0.7942  0.0959  0.2162
  153SAPE     P16963   4.425   5.066  10.771  0.2371 -0.2613  0.2342
  153SAPE   O1316964   4.399   5.038  10.913  0.1342 -0.5052  0.2217
  153SAPE   O1416965   4.475   5.201  10.733  0.0074  0.4176 -0.1673
  153SAPE   O1216966   4.527   4.960  10.720 -0.4564 -0.2820 -0.0680
  153SAPE   O1116967   4.297   5.024  10.685 -0.2865 -0.1686  0.0380
  153SAPE    C116968   4.261   4.890  10.675  0.3405 -0.5041 -0.7254
  153SAPE    HA16969   4.307   4.824  10.752 -1.0049 -2.7647 -1.7504
  153SAPE    HB16970   4.152   4.889  10.698  0.7896  1.3263  1.9657
  153SAPE    C216971   4.281   4.821  10.539  0.0497  0.6810 -0.5336
  153SAPE    HS16972   4.391   4.821  10.528  0.0778 -1.3950 -0.6830
  153SAPE   O2116973   4.205   4.879  10.431 -0.2951 -0.0538  0.2287
  153SAPE   C2116974   4.268   4.888  10.319 -0.5198 -0.0510  0.9422
  153SAPE   O2216975   4.388   4.869  10.297  0.0248  0.6802 -0.1649
  153SAPE   C2216976   4.168   4.950  10.218  0.1492  0.0933 -0.2163
  153SAPE   H2R16977   4.095   4.871  10.190 -0.0513  0.2401 -0.1056
  153SAPE   H2S16978   4.117   5.030  10.277  1.2419  0.0670  0.8133
  153SAPE    C316979   4.235   4.673  10.549 -0.6983  0.5216  0.4410
  153SAPE    HX16980   4.124   4.673  10.553 -0.6839  1.5834  2.9571
  153SAPE    HY16981   4.252   4.630  10.650  2.0823  0.4387  0.0272
  153SAPE   O3116982   4.293   4.590  10.445 -0.3999  0.2529  0.0865
  153SAPE   C3116983   4.426   4.559  10.454  0.6580 -0.2778 -0.2285
  153SAPE   O3216984   4.508   4.616  10.521  0.0925  0.0519 -0.0211
  153SAPE   C3216985   4.457   4.455  10.348  0.3341  0.4019 -0.1617
  153SAPE   H2X16986   4.413   4.486  10.251  1.5320 -1.2578 -1.2703
  153SAPE   H2Y16987   4.414   4.358  10.379  1.3033 -0.6729 -2.0207
  153SAPE   C2316988   4.237   5.002  10.089  0.1506  0.4758  0.5557
  153SAPE   H3R16989   4.334   5.051  10.112  0.2842  0.0930  0.8155
  153SAPE   H3S16990   4.161   5.071  10.047 -1.1256 -0.8829  0.5452
  153SAPE   C2416991   4.247   4.893   9.978 -0.5125 -0.1245 -0.2030
  153SAPE   H4R16992   4.267   4.950   9.885  1.0594  1.4782  1.0383
  153SAPE   H4S16993   4.154   4.836   9.958 -0.3377 -0.4844  0.0007
  153SAPE   C2516994   4.360   4.794   9.991 -0.5416 -0.1065 -0.1714
  153SAPE   H5R16995   4.437   4.814  10.066 -0.0313 -1.8851 -0.1798
  153SAPE   C2616996   4.371   4.689   9.908  0.2677 -0.5247  0.0225
  153SAPE   H6R16997   4.449   4.613   9.921 -1.0595 -2.0293 -0.5533
  153SAPE   C2716998   4.272   4.647   9.800  0.3496  0.4641 -0.7324
  153SAPE   H7R16999   4.167   4.666   9.830  0.4913  1.1494 -0.6596
  153SAPE   H7S17000   4.281   4.538   9.780  0.6029  0.7609 -2.4059
  153SAPE   C2817001   4.314   4.729   9.681 -0.4088  0.3329  0.8090
  153SAPE   H8R17002   4.310   4.837   9.700 -0.3119  0.4463  0.2023
  153SAPE   C2917003   4.338   4.689   9.555  0.2998 -0.2877  0.2683
  153SAPE   H9R17004   4.381   4.767   9.490  1.6843 -0.4109  0.9977
  153SAPE  C21017005   4.328   4.540   9.504  0.4976 -0.0751  0.1813
  153SAPE  H10R17006   4.353   4.469   9.585 -1.3616  0.8166  1.6035
  153SAPE  H10S17007   4.405   4.517   9.427  2.8271  1.5252  1.9195
  153SAPE  C21117008   4.186   4.502   9.467 -0.4012 -0.2402 -0.0378
  153SAPE  H11R17009   4.105   4.500   9.541 -0.9052  0.3134 -0.5710
  153SAPE  C21217010   4.145   4.463   9.345 -0.0094 -0.2400 -0.5440
  153SAPE  H12R17011   4.038   4.439   9.332 -0.2215 -0.9245  1.9642
  153SAPE  C21317012   4.235   4.457   9.224 -0.1301  0.1038 -0.0694
  153SAPE  H13R17013   4.263   4.352   9.201 -0.1443  0.2931 -0.9881
  153SAPE  H13S17014   4.333   4.508   9.235  1.0463 -1.6121 -1.9144
  153SAPE  C21417015   4.164   4.524   9.104 -0.5062 -0.2583  0.0257
  153SAPE  H14R17016   4.153   4.633   9.117 -2.6573 -0.5641  1.1171
  153SAPE  C21517017   4.102   4.469   8.996 -1.2272 -0.3593 -0.2602
  153SAPE  H15R17018   4.043   4.534   8.930 -0.2808 -0.9795 -1.7744
  153SAPE  C21617019   4.096   4.318   8.965 -0.5532 -0.2185 -0.1509
  153SAPE  H16R17020   3.996   4.288   8.926  0.0669 -2.8192  0.0707
  153SAPE  H16S17021   4.102   4.261   9.060 -1.1512  1.1256  0.7157
  153SAPE  C21717022   4.200   4.265   8.863  0.5455 -0.3380 -0.4016
  153SAPE  H17R17023   4.300   4.307   8.887  1.4003 -1.3765 -1.9657
  153SAPE  H17S17024   4.173   4.317   8.769 -3.7159  0.8965  1.2512
  153SAPE  C21817025   4.209   4.115   8.850 -0.3260 -0.3629  0.0242
  153SAPE  H18R17026   4.107   4.079   8.823 -1.7241  1.6855  2.2312
  153SAPE  H18S17027   4.240   4.062   8.942 -0.2954 -2.5563 -1.1669
  153SAPE  C21917028   4.307   4.061   8.736 -0.6522 -0.6676  0.4907
  153SAPE  H19R17029   4.298   3.951   8.741 -0.1665 -0.6866  1.0520
  153SAPE  H19S17030   4.413   4.091   8.748 -0.7539 -0.7647  1.7786
  153SAPE  C22017031   4.264   4.105   8.597  0.1328 -0.1724  0.3596
  153SAPE  H20R17032   4.295   4.207   8.569  1.3926 -1.1692 -2.1606
  153SAPE  H20S17033   4.153   4.112   8.592  0.2828  3.8689 -0.0089
  153SAPE  H20T17034   4.315   4.040   8.523 -0.1735  0.1571 -0.1503
  153SAPE   C3317035   4.611   4.429  10.334  0.8016 -0.1215  0.1872
  153SAPE   H3X17036   4.638   4.399  10.438 -1.4042  1.7080  1.3790
  153SAPE   H3Y17037   4.659   4.527  10.314 -0.4129  0.3530 -0.5427
  153SAPE   C3417038   4.646   4.329  10.227  0.0668 -0.0598  0.3679
  153SAPE   H4X17039   4.595   4.230  10.236  0.1771 -0.1986 -0.4465
  153SAPE   H4Y17040   4.754   4.310  10.243  0.5957  0.7955 -1.8461
  153SAPE   C3517041   4.621   4.383  10.088  0.3344  0.1829  0.0815
  153SAPE   H5X17042   4.679   4.476  10.067 -2.4010  1.5570 -1.9980
  153SAPE   H5Y17043   4.514   4.411  10.087 -0.1354 -1.2763  2.5958
  153SAPE   C3617044   4.645   4.278   9.980  0.5821  0.1637 -0.3018
  153SAPE   H6X17045   4.582   4.186   9.986  0.0532  0.5256 -0.2869
  153SAPE   H6Y17046   4.750   4.242   9.983  0.8570  0.8949 -1.0713
  153SAPE   C3717047   4.639   4.348   9.842  0.6545  0.5331 -0.1677
  153SAPE   H7X17048   4.719   4.425   9.841 -0.3299  1.5759  0.1574
  153SAPE   H7Y17049   4.539   4.392   9.821  1.2384  2.0852  0.1763
  153SAPE   C3817050   4.665   4.242   9.743  0.0750  0.1440 -0.5208
  153SAPE   H8X17051   4.585   4.165   9.751 -1.3160  1.6646  0.8921
  153SAPE   H8Y17052   4.760   4.190   9.766 -0.6837 -1.3029 -0.5171
  153SAPE   C3917053   4.663   4.281   9.591 -0.0660 -0.2333  0.1975
  153SAPE   H9X17054   4.755   4.332   9.557  0.0284 -0.2380  0.4433
  153SAPE   H9Y17055   4.595   4.368   9.584 -0.9321 -0.9350 -0.3584
  153SAPE  C31017056   4.611   4.173   9.500  0.7476  0.4147 -0.3460
  153SAPE  H10X17057   4.505   4.158   9.529  1.2646 -2.9507  0.2936
  153SAPE  H10Y17058   4.668   4.079   9.519 -0.2385 -0.5623 -2.0391
  153SAPE  C31117059   4.617   4.200   9.345 -0.0336  0.0401  0.3130
  153SAPE  H11X17060   4.723   4.228   9.327  0.1958 -1.0275 -0.0349
  153SAPE  H11Y17061   4.541   4.275   9.313 -0.7890 -1.2908 -1.1228
  153SAPE  C31217062   4.589   4.070   9.263  0.6376  0.4659  0.4055
  153SAPE  H12X17063   4.503   4.020   9.311  0.4575  0.0208 -0.3704
  153SAPE  H12Y17064   4.683   4.012   9.279 -0.8884 -2.3908 -0.3493
  153SAPE  C31317065   4.559   4.089   9.105  0.1118 -1.1137 -0.5215
  153SAPE  H13X17066   4.469   4.153   9.090 -0.9071 -2.4115 -0.1519
  153SAPE  H13Y17067   4.541   3.994   9.052  1.5238  0.7201 -4.6936
  153SAPE  C31417068   4.679   4.137   9.027 -0.4179 -0.1570  0.1252
  153SAPE  H14X17069   4.753   4.055   9.036 -0.2243  0.0812  0.7761
  153SAPE  H14Y17070   4.722   4.226   9.079  1.0672 -1.6835  1.6112
  153SAPE  C31517071   4.651   4.161   8.876 -0.6430  0.0179  0.0248
  153SAPE  H15X17072   4.592   4.255   8.862  0.3279  0.5911 -0.3328
  153SAPE  H15Y17073   4.602   4.069   8.837  0.6056 -1.0912  1.0014
  153SAPE  C31617074   4.778   4.185   8.798 -0.0963 -0.7837 -0.3476
  153SAPE  H16X17075   4.861   4.123   8.838  0.1292  1.5791  3.3220
  153SAPE  H16Y17076   4.825   4.285   8.806 -0.2246 -0.5345 -2.2843
  153SAPE  C31717077   4.766   4.154   8.653 -0.0078 -0.2872  0.6202
  153SAPE  H17X17078   4.674   4.207   8.621  0.3426 -0.5663 -0.9453
  153SAPE  H17Y17079   4.753   4.044   8.648 -1.5950 -0.1937  1.9501
  153SAPE  C31817080   4.882   4.186   8.562  0.0183  0.5990 -0.7097
  153SAPE  H18X17081   4.925   4.286   8.584  2.1642 -0.6479  1.2276
  153SAPE  H18Y17082   4.853   4.180   8.455 -0.1626  0.6504 -0.6643
  153SAPE  H18Z17083   4.969   4.119   8.577 -1.0754 -0.5340  0.8260
  154SAPE     N17084   5.729   0.578  10.640 -0.1837  0.1155  0.5058
  154SAPE   HN117085   5.727   0.607  10.540  0.0840 -1.5929 -0.0354
  154SAPE   HN217086   5.805   0.509  10.657  0.1950  0.1622 -0.8859
  154SAPE   HN317087   5.649   0.515  10.659  0.8697 -0.8473  1.9469
  154SAPE   C1217088   5.747   0.697  10.726 -0.2363 -0.4157 -0.0035
  154SAPE  H12A17089   5.720   0.672  10.831  1.3645 -2.0257  0.0768
  154SAPE  H12B17090   5.671   0.771  10.694  0.4369  0.0047 -0.6651
  154SAPE   C1117091   5.891   0.744  10.703  0.0501 -0.2674 -0.5584
  154SAPE  H11A17092   5.907   0.831  10.771 -1.1333  0.0337 -0.6498
  154SAPE  H11B17093   5.905   0.784  10.601  1.1683 -1.2650 -0.8216
  154SAPE     P17094   6.126   0.637  10.695 -0.1777  0.0741  0.2234
  154SAPE   O1317095   6.195   0.750  10.761  0.4688 -0.3492  0.2496
  154SAPE   O1417096   6.183   0.502  10.713 -0.0213 -0.0066  0.0862
  154SAPE   O1217097   5.979   0.635  10.731 -0.4870 -0.2229  0.1440
  154SAPE   O1117098   6.118   0.653  10.538 -0.3892 -0.0372 -0.2230
  154SAPE    C117099   6.057   0.550  10.465 -0.0654 -0.2330 -0.6203
  154SAPE    HA17100   6.125   0.463  10.453  0.4939  0.2666 -1.1162
  154SAPE    HB17101   5.968   0.518  10.524 -0.4727 -0.4750 -1.3482
  154SAPE    C217102   6.016   0.606  10.326 -0.1857 -0.4442  0.0194
  154SAPE    HS17103   5.955   0.698  10.337 -0.2365 -0.7350  3.0266
  154SAPE   O2117104   5.930   0.514  10.254 -0.5045  0.0188 -0.0551
  154SAPE   C2117105   5.804   0.500  10.296 -0.4136  0.9554 -0.2869
  154SAPE   O2217106   5.748   0.568  10.378  0.3493  0.1385  0.2977
  154SAPE   C2217107   5.746   0.377  10.233  0.9481  0.3947  0.2298
  154SAPE   H2R17108   5.825   0.310  10.194  2.9242  4.1129 -2.9315
  154SAPE   H2S17109   5.683   0.324  10.307  0.7845 -0.4363 -0.4876
  154SAPE    C317110   6.142   0.654  10.242 -0.3615 -0.0697 -0.5036
  154SAPE    HX17111   6.203   0.562  10.227  0.3865  0.6120 -1.8719
  154SAPE    HY17112   6.218   0.717  10.291 -1.3050  1.3558 -0.8259
  154SAPE   O3117113   6.107   0.689  10.105 -0.4101 -0.1498  0.3489
  154SAPE   C3117114   6.043   0.805  10.096 -0.0529  0.4335  0.0711
  154SAPE   O3217115   6.043   0.888  10.178  0.3246 -0.2320 -0.0231
  154SAPE   C3217116   5.968   0.820   9.959 -0.6624  0.2873 -0.3740
  154SAPE   H2X17117   5.859   0.808   9.977 -0.2439 -1.5978  1.2403
  154SAPE   H2Y17118   6.010   0.739   9.895  1.6181  0.6170  0.6010
  154SAPE   C2317119   5.657   0.423  10.110  0.1708 -0.1896 -0.2668
  154SAPE   H3R17120   5.583   0.497  10.146 -0.1178 -0.0320 -1.1744
  154SAPE   H3S17121   5.610   0.331  10.070  0.6258 -1.3317  1.6708
  154SAPE   C2417122   5.748   0.491  10.002 -0.2844  0.5217  0.4011
  154SAPE   H4R17123   5.836   0.427   9.981 -0.4289 -0.1038  1.5861
  154SAPE   H4S17124   5.778   0.589  10.044 -0.4574 -0.4172  2.9258
  154SAPE   C2517125   5.672   0.530   9.883  0.4192  0.3652  0.2572
  154SAPE   H5R17126   5.589   0.597   9.908  2.3290  3.0233 -0.0884
  154SAPE   C2617127   5.694   0.501   9.751 -0.6807 -0.0330  0.4760
  154SAPE   H6R17128   5.623   0.536   9.674  0.7230 -0.7185 -1.2085
  154SAPE   C2717129   5.811   0.425   9.683  0.1256  0.5694 -0.4960
  154SAPE   H7R17130   5.899   0.414   9.750 -0.0988  0.9254 -0.1388
  154SAPE   H7S17131   5.845   0.482   9.595  1.3542 -0.5363 -0.7707
  154SAPE   C2817132   5.769   0.285   9.647  0.0793  0.7597 -0.0016
  154SAPE   H8R17133   5.763   0.220   9.736  0.7160  0.2610 -0.3157
  154SAPE   C2917134   5.739   0.230   9.533  0.4491  0.2922  0.2740
  154SAPE   H9R17135   5.700   0.127   9.542  2.2117 -0.3305  1.2149
  154SAPE  C21017136   5.737   0.293   9.394  0.3505  0.0274  0.1790
  154SAPE  H10R17137   5.782   0.215   9.329 -1.3571 -0.7577 -0.1350
  154SAPE  H10S17138   5.807   0.378   9.397 -0.0803  0.5684 -2.3419
  154SAPE  C21117139   5.599   0.329   9.346 -0.3922 -1.0017  0.6795
  154SAPE  H11R17140   5.520   0.344   9.422  1.0634  0.1393  2.0342
  154SAPE  C21217141   5.567   0.336   9.215  0.5254  0.3127 -0.8508
  154SAPE  H12R17142   5.463   0.361   9.188 -0.7152 -0.3932  2.7279
  154SAPE  C21317143   5.658   0.309   9.102 -0.3533  0.3374  0.3288
  154SAPE  H13R17144   5.600   0.303   9.007  0.4678 -1.1262 -0.1016
  154SAPE  H13S17145   5.706   0.210   9.117  2.8363  1.9357  1.5446
  154SAPE  C21417146   5.773   0.407   9.091  0.3420 -0.4146 -0.0380
  154SAPE  H14R17147   5.770   0.498   9.152  2.1810 -0.7258  0.6049
  154SAPE  C21517148   5.883   0.392   9.019  0.1713 -0.0697  0.4587
  154SAPE  H15R17149   5.946   0.481   9.009 -1.5250  1.0752 -0.5176
  154SAPE  C21617150   5.910   0.268   8.935 -0.1574 -0.2523 -0.2240
  154SAPE  H16R17151   5.809   0.227   8.912 -0.2831  0.7554 -1.6006
  154SAPE  H16S17152   5.978   0.196   8.985 -0.8343 -1.2131 -0.6497
  154SAPE  C21717153   5.983   0.289   8.804  0.4717 -0.5806  0.8995
  154SAPE  H17R17154   6.003   0.195   8.748 -3.0403 -1.5795  1.0596
  154SAPE  H17S17155   6.076   0.347   8.819 -1.3530  2.5850  0.8288
  154SAPE  C21817156   5.898   0.381   8.709 -0.3389 -0.1422  0.0325
  154SAPE  H18R17157   5.944   0.476   8.674 -2.0358  0.7658  0.1369
  154SAPE  H18S17158   5.810   0.419   8.764 -1.1352  0.3161 -1.5045
  154SAPE  C21917159   5.832   0.307   8.589  0.1767  0.0981  0.3585
  154SAPE  H19R17160   5.739   0.354   8.550  0.2943 -0.9373 -1.2740
  154SAPE  H19S17161   5.788   0.218   8.640  1.7157 -0.1784  1.2642
  154SAPE  C22017162   5.923   0.258   8.479  0.1224 -0.3212 -0.0745
  154SAPE  H20R17163   6.015   0.320   8.481 -0.8732  1.2107  0.0315
  154SAPE  H20S17164   5.866   0.273   8.385 -2.5938  0.4105  1.5665
  154SAPE  H20T17165   5.954   0.152   8.489 -0.4901 -0.4383  0.7373
  154SAPE   C3317166   5.994   0.944   9.877 -0.3544  0.2630  0.2017
  154SAPE   H3X17167   6.103   0.965   9.879 -0.4383  0.7056  0.3229
  154SAPE   H3Y17168   5.945   1.023   9.938 -1.4911  0.2470 -0.6677
  154SAPE   C3417169   5.932   0.948   9.736  0.2657  0.1250 -0.0262
  154SAPE   H4X17170   5.976   0.867   9.675  1.9916 -0.1176  1.4361
  154SAPE   H4Y17171   5.955   1.046   9.689 -1.0273  0.4549 -0.0181
  154SAPE   C3517172   5.779   0.923   9.761  0.2102 -0.4357  0.0017
  154SAPE   H5X17173   5.738   0.976   9.850 -0.2593 -1.4040  0.3808
  154SAPE   H5Y17174   5.757   0.815   9.774 -2.8295  0.2468  1.5505
  154SAPE   C3617175   5.699   0.972   9.639 -0.1313  0.4190 -1.1644
  154SAPE   H6X17176   5.697   1.082   9.650 -1.1574  0.2343  0.9474
  154SAPE   H6Y17177   5.594   0.938   9.648 -0.5150  1.6579 -0.7710
  154SAPE   C3717178   5.754   0.930   9.504  0.2389 -0.2070  0.3940
  154SAPE   H7X17179   5.857   0.971   9.497  0.9870 -2.2809 -2.1993
  154SAPE   H7Y17180   5.689   0.971   9.424  2.1520 -2.4447 -2.5328
  154SAPE   C3817181   5.756   0.781   9.490 -0.1563  0.5721 -0.3907
  154SAPE   H8X17182   5.649   0.753   9.501 -0.2278  0.3636 -1.4946
  154SAPE   H8Y17183   5.813   0.733   9.572 -3.0589  1.0843  2.1040
  154SAPE   C3917184   5.802   0.737   9.348 -0.2830  0.3170 -0.2082
  154SAPE   H9X17185   5.721   0.775   9.283 -0.5505 -0.0223 -0.0791
  154SAPE   H9Y17186   5.802   0.626   9.347  2.8110  0.2029  0.3506
  154SAPE  C31017187   5.940   0.786   9.314  0.5932 -0.7832  0.7629
  154SAPE  H10X17188   6.014   0.750   9.388  0.6187 -3.5243 -0.4539
  154SAPE  H10Y17189   5.946   0.896   9.296 -1.1329 -1.0004 -1.6324
  154SAPE  C31117190   5.994   0.718   9.176  0.1889  0.0532 -0.1338
  154SAPE  H11X17191   5.928   0.762   9.098  1.3023  1.1194 -0.5057
  154SAPE  H11Y17192   5.982   0.607   9.178  1.6519 -0.1476 -0.7080
  154SAPE  C31217193   6.138   0.758   9.139 -0.0236  0.0834  0.0047
  154SAPE  H12X17194   6.202   0.700   9.210  0.5581 -0.8658 -1.2505
  154SAPE  H12Y17195   6.153   0.867   9.149  1.0249 -0.1101  0.7965
  154SAPE  C31317196   6.192   0.704   9.007 -0.4958 -0.3605 -0.0984
  154SAPE  H13X17197   6.204   0.593   9.008 -0.7133 -0.3970  1.3106
  154SAPE  H13Y17198   6.285   0.760   8.981 -1.5101  1.8519  0.7707
  154SAPE  C31417199   6.099   0.722   8.887 -0.3013 -0.0600 -0.4653
  154SAPE  H14X17200   6.073   0.828   8.869 -0.0706 -0.2366 -2.0477
  154SAPE  H14Y17201   6.007   0.660   8.887  0.1707 -0.9104  2.4695
  154SAPE  C31517202   6.182   0.683   8.760 -0.9098  0.1272  0.0473
  154SAPE  H15X17203   6.175   0.575   8.732 -2.2967  0.6438 -1.8192
  154SAPE  H15Y17204   6.291   0.706   8.757 -0.9127  0.1818 -3.1002
  154SAPE  C31617205   6.116   0.752   8.644 -0.4804 -1.0016 -0.4126
  154SAPE  H16X17206   6.008   0.768   8.668 -0.3000  1.3823 -0.9819
  154SAPE  H16Y17207   6.112   0.695   8.548  0.1518 -1.4686 -0.1702
  154SAPE  C31717208   6.183   0.888   8.607 -0.2770  0.0104  0.4328
  154SAPE  H17X17209   6.188   0.963   8.688 -1.3197  1.0582 -0.4350
  154SAPE  H17Y17210   6.115   0.932   8.530 -0.5793 -1.5506 -0.2356
  154SAPE  C31817211   6.317   0.869   8.532 -0.2383 -0.3565 -0.8218
  154SAPE  H18X17212   6.375   0.963   8.526  0.6988 -0.9989 -2.5406
  154SAPE  H18Y17213   6.300   0.818   8.434 -1.9682  0.4141 -0.9591
  154SAPE  H18Z17214   6.390   0.797   8.574 -0.9636 -0.6383 -0.0047
  155SAPE     N17215   6.625   0.994  10.842 -0.0935  0.4354  0.2569
  155SAPE   HN117216   6.527   0.958  10.834 -0.1874  0.5599  0.7770
  155SAPE   HN217217   6.649   1.044  10.754  0.6102  0.1702  0.2929
  155SAPE   HN317218   6.691   0.913  10.848  1.7033  1.6984 -1.3727
  155SAPE   C1217219   6.653   1.091  10.949  0.0787  0.2100 -0.0942
  155SAPE  H12A17220   6.758   1.126  10.942 -0.1687  1.1320  0.6447
  155SAPE  H12B17221   6.645   1.036  11.045  0.6233 -2.1010 -1.2871
  155SAPE   C1117222   6.549   1.204  10.958 -0.8017 -0.4300  0.1411
  155SAPE  H11A17223   6.584   1.273  11.037  1.8416 -0.2166 -1.1057
  155SAPE  H11B17224   6.451   1.159  10.984 -0.8409 -1.7522 -2.0317
  155SAPE     P17225   6.433   1.359  10.778  0.1311 -0.5424 -0.4023
  155SAPE   O1317226   6.315   1.271  10.801 -0.2398  0.2694  0.2347
  155SAPE   O1417227   6.433   1.490  10.841 -0.0330  0.0347  0.3884
  155SAPE   O1217228   6.557   1.277  10.833 -0.5112  0.0198  0.2831
  155SAPE   O1117229   6.462   1.391  10.623 -0.1079  0.0089 -0.2876
  155SAPE    C117230   6.353   1.405  10.535 -0.3337  0.5891  0.5808
  155SAPE    HA17231   6.268   1.458  10.582 -2.1387 -1.9608  0.4378
  155SAPE    HB17232   6.383   1.468  10.449 -2.3224  1.0987  0.2178
  155SAPE    C217233   6.306   1.276  10.466  0.0943  0.1160 -0.5853
  155SAPE    HS17234   6.285   1.197  10.542  0.5082 -0.6451 -1.2534
  155SAPE   O2117235   6.413   1.238  10.372  0.5815  0.2604 -0.3519
  155SAPE   C2117236   6.403   1.124  10.308  0.1607 -0.2809 -0.9975
  155SAPE   O2217237   6.302   1.056  10.294  0.4645 -0.0464 -0.2476
  155SAPE   C2217238   6.531   1.095  10.218 -1.0461 -0.0262  0.1184
  155SAPE   H2R17239   6.610   1.143  10.279  1.6792 -0.5163 -2.7469
  155SAPE   H2S17240   6.548   0.985  10.212 -1.5794 -0.1932  1.4360
  155SAPE    C317241   6.177   1.309  10.389 -0.0268  0.2336 -0.4706
  155SAPE    HX17242   6.104   1.349  10.462 -0.7406 -0.4956 -0.7666
  155SAPE    HY17243   6.132   1.212  10.358  0.0668  0.3154 -0.8705
  155SAPE   O3117244   6.188   1.406  10.282 -0.3743 -0.3040 -0.3584
  155SAPE   C3117245   6.071   1.454  10.232 -0.2591  0.2460 -0.2144
  155SAPE   O3217246   5.962   1.439  10.284  0.0628 -0.7707 -0.7037
  155SAPE   C3217247   6.092   1.516  10.100 -0.1602 -0.3550 -0.0155
  155SAPE   H2X17248   6.188   1.571  10.095 -1.0954  1.3307 -0.0037
  155SAPE   H2Y17249   6.012   1.591  10.083 -0.0685  0.1046  1.4531
  155SAPE   C2317250   6.524   1.153  10.073  0.3484  0.5811  0.0852
  155SAPE   H3R17251   6.623   1.127  10.029  1.1801  2.9340  0.4367
  155SAPE   H3S17252   6.512   1.263  10.082 -0.8637  0.4989 -0.3326
  155SAPE   C2417253   6.417   1.081   9.989 -0.2410 -0.4584 -0.4059
  155SAPE   H4R17254   6.323   1.111  10.040 -0.4658  0.6811 -1.4411
  155SAPE   H4S17255   6.417   0.970   9.986 -0.6168 -0.4658 -0.2334
  155SAPE   C2517256   6.407   1.143   9.850  0.1090  0.1787 -0.2249
  155SAPE   H5R17257   6.419   1.253   9.847 -0.7446  0.2896  0.2217
  155SAPE   C2617258   6.390   1.088   9.724 -0.5306  0.6409 -0.2185
  155SAPE   H6R17259   6.388   1.155   9.636  1.2174  0.5570 -0.3611
  155SAPE   C2717260   6.362   0.948   9.683  0.5461 -0.4361  0.5800
  155SAPE   H7R17261   6.336   0.880   9.766  0.0839  0.8624  1.5374
  155SAPE   H7S17262   6.455   0.910   9.635 -0.3568 -1.2631 -0.5870
  155SAPE   C2817263   6.252   0.953   9.573  0.5002 -0.0980  0.0607
  155SAPE   H8R17264   6.153   0.975   9.617 -0.1159 -1.7826 -0.3895
  155SAPE   C2917265   6.269   0.934   9.440  0.3618 -0.1139 -0.8100
  155SAPE   H9R17266   6.173   0.942   9.388 -1.6572 -3.8791  1.8625
  155SAPE  C21017267   6.395   0.910   9.362  0.4255  0.1894  0.5209
  155SAPE  H10R17268   6.360   0.864   9.267  0.1517 -0.3116  0.8646
  155SAPE  H10S17269   6.458   0.827   9.400  1.1747  0.0568 -0.9322
  155SAPE  C21117270   6.488   1.024   9.334  0.1464 -0.0093  0.8665
  155SAPE  H11R17271   6.554   1.048   9.419  0.9557  1.0151 -0.0269
  155SAPE  C21217272   6.491   1.094   9.217 -0.7770  0.1948  0.8343
  155SAPE  H12R17273   6.554   1.184   9.208 -1.7921  0.7419 -1.9183
  155SAPE  C21317274   6.407   1.068   9.097  0.0660  0.2208  1.3205
  155SAPE  H13R17275   6.371   1.165   9.056 -0.5907  0.2011  1.8223
  155SAPE  H13S17276   6.319   1.003   9.115  0.6542 -0.2951  2.4210
  155SAPE  C21417277   6.491   0.999   8.995 -0.2835 -0.4700 -0.4309
  155SAPE  H14R17278   6.505   0.893   9.024 -2.3161 -0.3201  1.3917
  155SAPE  C21517279   6.535   1.050   8.874  0.1967 -0.5457 -0.0129
  155SAPE  H15R17280   6.607   0.987   8.821  1.2076  1.0056 -0.5395
  155SAPE  C21617281   6.526   1.192   8.816 -0.1353 -0.3027  0.0218
  155SAPE  H16R17282   6.629   1.232   8.810 -0.9698  2.2087  1.1036
  155SAPE  H16S17283   6.484   1.269   8.885  1.2123 -0.1861  0.7454
  155SAPE  C21717284   6.464   1.193   8.686 -0.2185  0.3316  0.1438
  155SAPE  H17R17285   6.358   1.161   8.681  0.5943 -2.4071 -1.1331
  155SAPE  H17S17286   6.504   1.115   8.618 -0.0853  0.3835  0.1619
  155SAPE  C21817287   6.490   1.322   8.613  0.6096 -0.0172  0.6683
  155SAPE  H18R17288   6.493   1.299   8.505 -1.1620 -1.1942  0.8338
  155SAPE  H18S17289   6.589   1.370   8.630 -0.2374  1.6651  1.0275
  155SAPE  C21917290   6.397   1.438   8.658 -0.7716 -0.2479 -0.5373
  155SAPE  H19R17291   6.435   1.474   8.756  2.1809  0.3901 -1.7990
  155SAPE  H19S17292   6.291   1.405   8.670 -0.5621 -0.6567  0.2586
  155SAPE  C22017293   6.398   1.555   8.563 -0.1719 -0.0309 -0.2310
  155SAPE  H20R17294   6.345   1.527   8.469  1.3288  0.1723 -1.1850
  155SAPE  H20S17295   6.496   1.596   8.530  0.0460 -0.6437 -0.3544
  155SAPE  H20T17296   6.351   1.649   8.599  1.4592  0.4852  0.6291
  155SAPE   C3317297   6.081   1.408   9.988 -0.3540 -0.0552  0.0680
  155SAPE   H3X17298   5.998   1.336  10.006  0.6743 -1.0550  0.9763
  155SAPE   H3Y17299   6.178   1.354   9.994  0.0086  0.4436 -1.0001
  155SAPE   C3417300   6.076   1.455   9.836  0.8607  0.8120  0.2917
  155SAPE   H4X17301   6.163   1.523   9.829  0.6602  1.0326 -0.0800
  155SAPE   H4Y17302   5.983   1.515   9.826  1.5186  2.0867  1.5921
  155SAPE   C3517303   6.084   1.342   9.737 -0.4487 -0.2421  0.1118
  155SAPE   H5X17304   5.995   1.276   9.749  1.5591 -3.2510 -0.2309
  155SAPE   H5Y17305   6.172   1.277   9.760 -0.4918 -0.1477  0.5518
  155SAPE   C3617306   6.104   1.400   9.594  0.1827  0.3299  0.0824
  155SAPE   H6X17307   6.204   1.445   9.574  0.1879  0.6069  0.7284
  155SAPE   H6Y17308   6.031   1.478   9.565  1.8876  1.4183 -1.5096
  155SAPE   C3717309   6.086   1.283   9.494  0.7291  0.1337  0.2984
  155SAPE   H7X17310   5.988   1.233   9.498  0.5174  0.4054 -1.1086
  155SAPE   H7Y17311   6.167   1.215   9.529  0.0667 -0.8299  0.0074
  155SAPE   C3817312   6.132   1.325   9.351 -0.4607 -0.1959 -0.3273
  155SAPE   H8X17313   6.238   1.356   9.361 -0.4343 -0.3358 -0.1612
  155SAPE   H8Y17314   6.073   1.415   9.324  0.3813  1.7071  3.4206
  155SAPE   C3917315   6.111   1.222   9.242  0.4048  0.1668 -0.2800
  155SAPE   H9X17316   6.159   1.124   9.260  0.8398 -0.1549 -2.8626
  155SAPE   H9Y17317   6.166   1.257   9.153 -1.3443 -1.5709 -2.1651
  155SAPE  C31017318   5.965   1.206   9.191  1.0856  0.9745  0.1278
  155SAPE  H10X17319   5.930   1.307   9.164  0.8509  0.7170 -0.5573
  155SAPE  H10Y17320   5.895   1.156   9.262  3.0366 -1.8394  0.2753
  155SAPE  C31117321   5.950   1.126   9.059 -0.3141 -0.0370  0.3890
  155SAPE  H11X17322   5.976   1.021   9.082 -0.4861 -0.2912 -0.5245
  155SAPE  H11Y17323   6.027   1.159   8.986  0.0252  0.2522  0.8712
  155SAPE  C31217324   5.815   1.140   8.991 -0.3926 -0.4766 -0.7482
  155SAPE  H12X17325   5.826   1.235   8.934  1.2389 -1.2783 -1.8531
  155SAPE  H12Y17326   5.734   1.159   9.064  0.7599  0.1985  0.3912
  155SAPE  C31317327   5.786   1.026   8.893  0.2097  0.0982 -0.3736
  155SAPE  H13X17328   5.809   0.934   8.950 -0.2193 -0.5086 -1.1555
  155SAPE  H13Y17329   5.854   1.038   8.806 -0.3834 -1.4799 -1.0914
  155SAPE  C31417330   5.648   1.037   8.826 -0.2913 -0.3985 -0.3004
  155SAPE  H14X17331   5.632   1.137   8.780 -1.2444  0.5241  1.8920
  155SAPE  H14Y17332   5.582   1.016   8.913  3.0192 -3.6600  1.7406
  155SAPE  C31517333   5.608   0.925   8.726 -0.7770 -0.1008 -0.8079
  155SAPE  H15X17334   5.499   0.940   8.711 -0.6867  1.3551 -0.1859
  155SAPE  H15Y17335   5.642   0.832   8.774 -0.3252 -0.2731 -1.4439
  155SAPE  C31617336   5.682   0.950   8.597 -0.0702 -0.0744  0.2524
  155SAPE  H16X17337   5.788   0.978   8.614 -0.0918  0.5374 -0.5309
  155SAPE  H16Y17338   5.633   1.033   8.541 -0.3721 -0.2684  0.2265
  155SAPE  C31717339   5.663   0.830   8.506  0.0966 -0.0792  0.4024
  155SAPE  H17X17340   5.655   0.859   8.399 -1.8773 -4.5457 -0.9353
  155SAPE  H17Y17341   5.569   0.772   8.517  0.1031  0.1023  1.4943
  155SAPE  C31817342   5.780   0.726   8.501  0.2273  0.0230  0.6981
  155SAPE  H18X17343   5.796   0.672   8.597  0.9642 -1.1641 -0.0592
  155SAPE  H18Y17344   5.878   0.776   8.483 -0.4572  1.2939  0.3914
  155SAPE  H18Z17345   5.767   0.656   8.416  2.8093  0.9031 -0.5194
  156SAPE     N17346   2.953   0.002  10.492 -0.5974 -0.7641 -0.3475
  156SAPE   HN117347   2.936   0.049  10.401 -0.9025  0.6376  0.4060
  156SAPE   HN217348   2.981  -0.096  10.473  1.7039 -0.2123 -0.0804
  156SAPE   HN317349   2.871   0.005  10.556  0.7296  3.5364  1.5417
  156SAPE   C1217350   3.071   0.064  10.561  0.3221  0.6804 -0.0796
  156SAPE  H12A17351   3.075   0.014  10.660 -0.0567 -0.9476 -0.8454
  156SAPE  H12B17352   3.053   0.172  10.582  1.1632  0.5583  1.4528
  156SAPE   C1117353   3.198   0.023  10.495  0.0376  0.7758  0.0218
  156SAPE  H11A17354   3.285   0.074  10.543  1.7410 -1.5088 -0.4498
  156SAPE  H11B17355   3.203   0.042  10.385 -0.5591 -0.8769 -0.3116
  156SAPE     P17356   3.318  -0.196  10.426  0.0244 -0.1011  0.0788
  156SAPE   O1317357   3.420  -0.257  10.517 -0.2245 -0.2213  0.2509
  156SAPE   O1417358   3.241  -0.294  10.349 -0.8162 -0.3852  0.5275
  156SAPE   O1217359   3.217  -0.116  10.518  0.0692  0.1926 -1.1366
  156SAPE   O1117360   3.386  -0.088  10.329  0.2726  0.2064 -0.5069
  156SAPE    C117361   3.521  -0.047  10.346  0.4752  0.2022 -0.2200
  156SAPE    HA17362   3.520   0.060  10.317  0.7574  0.0615 -0.7631
  156SAPE    HB17363   3.554  -0.062  10.452 -1.0854 -1.8314  0.0373
  156SAPE    C217364   3.631  -0.109  10.259  0.5961 -0.1707 -0.0937
  156SAPE    HS17365   3.717  -0.038  10.259  0.9877 -0.6346  0.2788
  156SAPE   O2117366   3.586  -0.142  10.126 -0.5670 -0.6295  0.4772
  156SAPE   C2117367   3.593  -0.039  10.044  0.3660 -0.4088 -0.4555
  156SAPE   O2217368   3.622   0.074  10.075  0.6147 -0.0322 -0.1571
  156SAPE   C2217369   3.525  -0.086   9.910 -0.9020  0.0405  0.0926
  156SAPE   H2R17370   3.415  -0.077   9.924 -0.8990 -1.0478  0.9389
  156SAPE   H2S17371   3.564  -0.016   9.833  2.1566  0.1339  1.5807
  156SAPE    C317372   3.691  -0.234  10.328  0.6710 -0.0941  0.3169
  156SAPE    HX17373   3.608  -0.306  10.342 -0.7286  1.4065 -0.0314
  156SAPE    HY17374   3.731  -0.207  10.428  1.2642 -1.0149  0.3432
  156SAPE   O3117375   3.797  -0.298  10.251  0.4374  0.5303  0.4774
  156SAPE   C3117376   3.811  -0.425  10.287  0.0402 -0.9204  0.9954
  156SAPE   O3217377   3.760  -0.480  10.381 -0.2777  0.6430 -0.9036
  156SAPE   C3217378   3.872  -0.498  10.169 -0.8576 -0.0318  0.0292
  156SAPE   H2X17379   3.982  -0.491  10.179 -0.7921 -0.3707 -0.4241
  156SAPE   H2Y17380   3.851  -0.456  10.068  1.2399 -0.6390 -0.7068
  156SAPE   C2317381   3.562  -0.233   9.870 -0.3458  0.0030  0.1255
  156SAPE   H3R17382   3.500  -0.269   9.786 -0.6984 -0.0979  0.4273
  156SAPE   H3S17383   3.541  -0.304   9.953 -1.2940  1.5602  1.2652
  156SAPE   C2417384   3.706  -0.228   9.825 -0.3414  0.0128 -0.9809
  156SAPE   H4R17385   3.769  -0.217   9.916  0.4295  0.5807 -1.5592
  156SAPE   H4S17386   3.730  -0.141   9.760 -0.5958  0.1565 -0.8792
  156SAPE   C2517387   3.744  -0.355   9.765 -0.4388 -0.4126 -0.4483
  156SAPE   H5R17388   3.760  -0.437   9.837  2.7075  0.5346  0.0879
  156SAPE   C2617389   3.767  -0.376   9.636 -0.4784  0.1731  0.3110
  156SAPE   H6R17390   3.783  -0.481   9.607  2.5545  1.2331 -2.5097
  156SAPE   C2717391   3.773  -0.277   9.519 -0.5175  0.0007  0.3300
  156SAPE   H7R17392   3.862  -0.294   9.456 -1.0496 -0.7327 -0.2361
  156SAPE   H7S17393   3.771  -0.169   9.546 -0.1581 -0.1185  0.8507
  156SAPE   C2817394   3.651  -0.304   9.431  0.9590 -0.0013  0.2818
  156SAPE   H8R17395   3.559  -0.336   9.481 -0.1377 -1.8357 -2.6321
  156SAPE   C2917396   3.643  -0.323   9.298 -0.1362 -0.8215  0.2811
  156SAPE   H9R17397   3.547  -0.335   9.245 -0.7446  1.0001  0.9246
  156SAPE  C21017398   3.747  -0.310   9.189  0.2106 -1.1275 -0.5660
  156SAPE  H10R17399   3.694  -0.349   9.099  1.5849  0.5377 -2.1622
  156SAPE  H10S17400   3.825  -0.387   9.206  3.8007  1.7710 -2.4915
  156SAPE  C21117401   3.817  -0.179   9.156 -0.8589  0.4910  0.2548
  156SAPE  H11R17402   3.843  -0.117   9.243  0.0201  1.6131 -0.7765
  156SAPE  C21217403   3.828  -0.126   9.035 -0.3585 -0.2555  0.0915
  156SAPE  H12R17404   3.882  -0.030   9.025 -0.2020 -0.4047 -0.5709
  156SAPE  C21317405   3.774  -0.186   8.906 -0.2432  0.5817 -0.7876
  156SAPE  H13R17406   3.698  -0.266   8.919  0.6634 -0.1921 -0.1065
  156SAPE  H13S17407   3.861  -0.236   8.858  0.8334  1.9950 -0.4112
  156SAPE  C21417408   3.716  -0.096   8.806  0.3245  0.0445  0.4228
  156SAPE  H14R17409   3.648  -0.017   8.842  0.1187 -1.4147  3.6401
  156SAPE  C21517410   3.737  -0.098   8.673 -0.2669  0.4540 -0.0305
  156SAPE  H15R17411   3.686  -0.025   8.609 -0.1876 -0.8834 -1.6924
  156SAPE  C21617412   3.829  -0.191   8.591  0.2317 -0.1401  0.5794
  156SAPE  H16R17413   3.890  -0.248   8.664 -0.1699 -1.6522 -0.2263
  156SAPE  H16S17414   3.890  -0.132   8.520 -2.9164  1.7475 -0.7628
  156SAPE  C21717415   3.742  -0.291   8.510 -0.3915  0.2292  0.0064
  156SAPE  H17R17416   3.666  -0.242   8.446 -1.2794 -2.3553 -1.0500
  156SAPE  H17S17417   3.684  -0.339   8.592 -0.2107  0.3100  0.1800
  156SAPE  C21817418   3.835  -0.391   8.431  1.1351  0.6990 -0.9202
  156SAPE  H18R17419   3.928  -0.407   8.489 -0.8607  1.3064  2.7230
  156SAPE  H18S17420   3.878  -0.336   8.344 -1.0910  2.2854 -1.0985
  156SAPE  C21917421   3.777  -0.530   8.378 -0.3698 -0.4132  0.1312
  156SAPE  H19R17422   3.741  -0.590   8.464 -1.2283  2.4674  1.9395
  156SAPE  H19S17423   3.852  -0.592   8.325  0.5993 -0.6535  1.7596
  156SAPE  C22017424   3.656  -0.525   8.290 -0.5713  0.7145 -0.4954
  156SAPE  H20R17425   3.643  -0.625   8.243 -1.1793  1.6647 -2.4595
  156SAPE  H20S17426   3.677  -0.441   8.220  1.8476  1.5562  1.1186
  156SAPE  H20T17427   3.562  -0.491   8.339 -1.3584 -1.4962 -0.3518
  156SAPE   C3317428   3.842  -0.650  10.187  0.2854 -0.0284  0.4721
  156SAPE   H3X17429   3.736  -0.645  10.220  0.4241  0.9659  0.8075
  156SAPE   H3Y17430   3.904  -0.689  10.271  0.3169  1.6084  1.2535
  156SAPE   C3417431   3.856  -0.731  10.064 -0.2092  0.4730  0.2075
  156SAPE   H4X17432   3.960  -0.721  10.026 -0.5150  0.2324 -0.7172
  156SAPE   H4Y17433   3.801  -0.689   9.978  2.7485 -0.8607 -2.5244
  156SAPE   C3517434   3.829  -0.879  10.096  0.1399  0.1250 -0.8521
  156SAPE   H5X17435   3.726  -0.881  10.136  1.2096  1.0152  2.1949
  156SAPE   H5Y17436   3.891  -0.903  10.185 -1.7295  0.4384  0.5900
  156SAPE   C3617437   3.855  -0.984   9.990  0.3719  0.0584 -0.0815
  156SAPE   H6X17438   3.842  -1.087  10.029  1.9397 -0.2065 -0.2158
  156SAPE   H6Y17439   3.962  -0.962   9.976  0.4576  0.4379  1.0872
  156SAPE   C3717440   3.778  -0.960   9.859 -0.2108 -0.8416 -0.1833
  156SAPE   H7X17441   3.800  -0.858   9.821 -3.0614  0.5439  1.5749
  156SAPE   H7Y17442   3.669  -0.961   9.882  0.4102 -0.8792  3.2327
  156SAPE   C3817443   3.793  -1.066   9.752  0.0723  0.3257  0.4128
  156SAPE   H8X17444   3.717  -1.052   9.671 -1.1590  2.6567  1.8541
  156SAPE   H8Y17445   3.758  -1.162   9.795  0.9331 -0.7038 -1.0701
  156SAPE   C3917446   3.936  -1.086   9.690 -0.0932 -0.0738  0.2906
  156SAPE   H9X17447   3.929  -1.167   9.613 -1.6063  2.6064 -2.6338
  156SAPE   H9Y17448   3.999  -1.111   9.777 -1.6348  0.5043  1.6154
  156SAPE  C31017449   3.995  -0.954   9.629  0.5378 -0.5940 -0.7786
  156SAPE  H10X17450   4.030  -0.889   9.712  1.4836 -3.9976  1.7056
  156SAPE  H10Y17451   3.905  -0.915   9.576 -0.1452 -0.2184  0.6145
  156SAPE  C31117452   4.109  -0.981   9.534  0.1348 -0.0423 -0.1614
  156SAPE  H11X17453   4.184  -1.044   9.587 -0.9004  1.1527  2.9814
  156SAPE  H11Y17454   4.153  -0.881   9.515  0.1392 -0.0974 -0.4362
  156SAPE  C31217455   4.059  -1.043   9.402 -0.1279  0.1776  0.6386
  156SAPE  H12X17456   3.977  -0.977   9.368 -0.9588 -0.0706  2.0762
  156SAPE  H12Y17457   4.021  -1.146   9.416 -0.0523  0.0600 -0.0121
  156SAPE  C31317458   4.166  -1.052   9.294 -0.0452  0.5794  0.3651
  156SAPE  H13X17459   4.248  -1.123   9.318 -1.3638 -0.9527  0.5054
  156SAPE  H13Y17460   4.219  -0.955   9.293  0.3955  0.3512  0.7867
  156SAPE  C31417461   4.106  -1.063   9.149 -0.6964  0.4460 -0.1827
  156SAPE  H14X17462   4.040  -0.974   9.144 -1.4474  0.0421  1.7458
  156SAPE  H14Y17463   4.058  -1.161   9.131  1.8356 -0.8230 -0.4032
  156SAPE  C31517464   4.217  -1.037   9.044  0.3923 -0.3277  0.2926
  156SAPE  H15X17465   4.290  -1.120   9.047  0.0011 -0.8178 -1.7819
  156SAPE  H15Y17466   4.268  -0.940   9.065 -0.2991  0.5647 -1.8581
  156SAPE  C31617467   4.165  -1.030   8.896 -0.5533  0.1251  0.4831
  156SAPE  H16X17468   4.252  -1.009   8.830 -0.7327 -0.6879 -0.0227
  156SAPE  H16Y17469   4.091  -0.947   8.892 -0.7180 -0.0517 -0.2027
  156SAPE  C31717470   4.115  -1.171   8.843 -0.0161  0.6156  0.4174
  156SAPE  H17X17471   4.038  -1.145   8.767 -1.1409 -0.8141  1.0273
  156SAPE  H17Y17472   4.063  -1.222   8.926  1.7817 -0.0736  1.1889
  156SAPE  C31817473   4.227  -1.253   8.778  0.0675 -0.0859 -0.0737
  156SAPE  H18X17474   4.256  -1.219   8.676 -3.6867 -0.5236 -1.4542
  156SAPE  H18Y17475   4.195  -1.358   8.767 -1.8770  0.5125 -0.5474
  156SAPE  H18Z17476   4.316  -1.251   8.845 -1.2306 -1.2456  1.7625
  157SAPE     N17477   2.943   4.821  10.847 -0.6127 -0.5065  0.4845
  157SAPE   HN117478   3.030   4.838  10.901  0.6873  0.0556 -1.7047
  157SAPE   HN217479   2.874   4.889  10.886  2.0097  2.7867 -0.1518
  157SAPE   HN317480   2.911   4.723  10.860  0.0805 -0.6810  0.9151
  157SAPE   C1217481   2.956   4.853  10.702  0.0636 -0.4454 -0.5641
  157SAPE  H12A17482   2.992   4.762  10.651  1.5892 -0.9830  1.3728
  157SAPE  H12B17483   3.035   4.931  10.697 -0.6452  0.2299 -1.9664
  157SAPE   C1117484   2.818   4.911  10.652 -0.4091 -0.1619 -1.1994
  157SAPE  H11A17485   2.739   4.832  10.653  0.9215 -1.6050  1.8043
  157SAPE  H11B17486   2.828   4.944  10.546 -0.7339  0.8637 -0.9157
  157SAPE     P17487   2.847   5.163  10.715  0.0193 -0.3052 -0.4415
  157SAPE   O1317488   2.755   5.278  10.740  0.2031  0.2593 -0.0225
  157SAPE   O1417489   2.970   5.158  10.798  0.1812 -0.5571  0.2617
  157SAPE   O1217490   2.768   5.026  10.733 -0.3174 -0.2022  0.8914
  157SAPE   O1117491   2.884   5.175  10.557 -0.0619 -0.0723  0.2984
  157SAPE    C117492   2.778   5.225  10.475  0.0116  0.0050 -0.0012
  157SAPE    HA17493   2.676   5.210  10.517  0.1465  0.3118  0.4328
  157SAPE    HB17494   2.796   5.334  10.463  0.5602  0.0420  1.0842
  157SAPE    C217495   2.799   5.163  10.334  0.2829 -0.7093 -0.1251
  157SAPE    HS17496   2.749   5.228  10.259  1.0406 -1.0203 -0.9245
  157SAPE   O2117497   2.752   5.030  10.339  0.3790 -0.1804  0.1385
  157SAPE   C2117498   2.618   5.017  10.321 -0.9897  0.3421  0.1910
  157SAPE   O2217499   2.540   5.106  10.306 -0.2873 -0.1710  0.0164
  157SAPE   C2217500   2.576   4.874  10.329  0.7705  0.5790 -0.1391
  157SAPE   H2R17501   2.668   4.814  10.349 -0.1750 -0.3843  1.5712
  157SAPE   H2S17502   2.506   4.864  10.415 -2.3659  1.0350 -2.4742
  157SAPE    C317503   2.946   5.165  10.276 -0.7184  0.2672  0.4311
  157SAPE    HX17504   3.012   5.124  10.355  0.1183 -0.7551 -0.7765
  157SAPE    HY17505   2.972   5.273  10.269  0.8471 -0.1145  0.1913
  157SAPE   O3117506   2.959   5.107  10.147 -0.6354 -0.1283 -0.1266
  157SAPE   C3117507   3.014   4.987  10.134 -0.0339  0.0205 -0.0735
  157SAPE   O3217508   3.037   4.911  10.225  0.2357  0.1608 -0.2181
  157SAPE   C3217509   3.053   4.966   9.988 -0.4291  0.0510 -0.3128
  157SAPE   H2X17510   3.135   5.037   9.964 -1.8054  1.7275 -0.1867
  157SAPE   H2Y17511   2.972   4.993   9.918 -0.0292  1.2735 -0.3179
  157SAPE   C2317512   2.510   4.832  10.201 -0.0349 -0.6600  0.6246
  157SAPE   H3R17513   2.435   4.907  10.167 -1.0717 -0.5361  3.0047
  157SAPE   H3S17514   2.461   4.734  10.218 -0.6011 -0.1758  1.9036
  157SAPE   C2417515   2.620   4.808  10.097  0.6659  0.1231 -0.1935
  157SAPE   H4R17516   2.692   4.728  10.124 -0.5146 -1.6062 -1.9093
  157SAPE   H4S17517   2.674   4.904  10.080  1.1915 -0.0023  0.7044
  157SAPE   C2517518   2.579   4.778   9.956  0.1937  0.2907  0.7192
  157SAPE   H5R17519   2.524   4.860   9.909 -0.0974  0.2725  1.0260
  157SAPE   C2617520   2.616   4.667   9.889 -0.3847  0.1039  0.0099
  157SAPE   H6R17521   2.572   4.650   9.790  0.9011 -2.3459 -0.2025
  157SAPE   C2717522   2.699   4.551   9.945 -0.1430  0.8404 -0.2871
  157SAPE   H7R17523   2.643   4.457   9.926 -0.8566  1.1704  0.1631
  157SAPE   H7S17524   2.690   4.545  10.056 -3.1911  0.6687 -0.4772
  157SAPE   C2817525   2.842   4.538   9.900  0.2190  0.0986 -0.3373
  157SAPE   H8R17526   2.919   4.559   9.976  1.4579  0.6610 -1.7014
  157SAPE   C2917527   2.885   4.499   9.777  0.6583 -0.3568 -0.3266
  157SAPE   H9R17528   2.993   4.488   9.758  1.2929  0.5328  2.3235
  157SAPE  C21017529   2.800   4.455   9.656 -0.1620 -0.4874 -0.1972
  157SAPE  H10R17530   2.708   4.517   9.647  1.0697  1.3886 -0.4447
  157SAPE  H10S17531   2.759   4.354   9.678 -0.6753  0.2658  2.7100
  157SAPE  C21117532   2.863   4.449   9.522  0.3527  1.0472 -0.3056
  157SAPE  H11R17533   2.890   4.351   9.480  0.1360  0.0699  1.7210
  157SAPE  C21217534   2.874   4.553   9.439 -0.5332  0.6302 -0.5123
  157SAPE  H12R17535   2.921   4.532   9.342 -1.3399  0.1117 -0.8049
  157SAPE  C21317536   2.823   4.695   9.465 -0.2130 -0.7956  0.1922
  157SAPE  H13R17537   2.902   4.765   9.431  1.4643 -1.5549  2.2902
  157SAPE  H13S17538   2.819   4.716   9.574  0.2715 -2.6815  0.6003
  157SAPE  C21417539   2.695   4.733   9.396  0.2549 -0.1314 -0.2449
  157SAPE  H14R17540   2.683   4.702   9.291 -0.5321 -0.7589  0.0171
  157SAPE  C21517541   2.591   4.800   9.443 -1.0176  0.2355 -0.5190
  157SAPE  H15R17542   2.502   4.816   9.380 -1.3538  1.3534  0.2125
  157SAPE  C21617543   2.571   4.865   9.582  0.3809 -0.0233  0.4005
  157SAPE  H16R17544   2.664   4.863   9.643  0.1994  0.4129  0.6896
  157SAPE  H16S17545   2.490   4.813   9.637 -0.7667  1.2290 -0.0530
  157SAPE  C21717546   2.519   5.014   9.581  0.2584 -0.8522 -0.0115
  157SAPE  H17R17547   2.425   5.018   9.522  0.2768  1.3918  0.0358
  157SAPE  H17S17548   2.600   5.072   9.531  2.3745 -1.8921  2.0142
  157SAPE  C21817549   2.497   5.078   9.723 -0.0608 -0.6689 -0.1752
  157SAPE  H18R17550   2.423   5.023   9.784  1.1525  0.4757  2.5260
  157SAPE  H18S17551   2.436   5.169   9.705 -0.5965 -1.4250 -2.4188
  157SAPE  C21917552   2.623   5.100   9.805 -0.0066 -0.1926  0.5553
  157SAPE  H19R17553   2.696   5.151   9.737  0.3215 -0.4827  0.6858
  157SAPE  H19S17554   2.667   4.999   9.817  0.7041 -0.0441 -0.6162
  157SAPE  C22017555   2.609   5.167   9.935  0.4682 -0.5264 -0.0093
  157SAPE  H20R17556   2.566   5.269   9.921  0.7430 -0.3042  0.7334
  157SAPE  H20S17557   2.710   5.168   9.981  0.8768 -0.0925 -0.8982
  157SAPE  H20T17558   2.546   5.117  10.012  0.4068  1.3009  1.1791
  157SAPE   C3317559   3.096   4.817   9.977  0.1389  0.5857 -0.2876
  157SAPE   H3X17560   3.003   4.758   9.996  1.3735 -2.5743 -3.1066
  157SAPE   H3Y17561   3.175   4.790  10.050 -1.4996 -0.0468  1.3311
  157SAPE   C3417562   3.140   4.797   9.830 -0.1061 -0.2856  0.1721
  157SAPE   H4X17563   3.052   4.832   9.771 -0.0958 -0.4899  0.0381
  157SAPE   H4Y17564   3.139   4.688   9.809  0.1669 -0.0149 -1.3646
  157SAPE   C3517565   3.274   4.863   9.792 -0.1907 -0.4268  0.2944
  157SAPE   H5X17566   3.358   4.829   9.857  0.1637 -2.2123 -1.0240
  157SAPE   H5Y17567   3.252   4.972   9.794 -0.1480 -0.3773 -0.8951
  157SAPE   C3617568   3.321   4.829   9.651  0.5594 -0.5048 -0.2205
  157SAPE   H6X17569   3.299   4.722   9.632 -3.7153  0.1424 -0.0607
  157SAPE   H6Y17570   3.430   4.839   9.637  0.6749 -0.8838  0.3853
  157SAPE   C3717571   3.255   4.911   9.543 -0.5008 -0.8549  0.8099
  157SAPE   H7X17572   3.275   5.020   9.552 -3.1793 -0.0817 -1.4298
  157SAPE   H7Y17573   3.147   4.890   9.554 -0.7759  0.2264  0.3245
  157SAPE   C3817574   3.309   4.867   9.411 -0.6877  0.3579  0.4208
  157SAPE   H8X17575   3.419   4.855   9.398 -0.7503  1.5899 -1.5452
  157SAPE   H8Y17576   3.275   4.938   9.333 -2.9682 -2.6581 -1.5357
  157SAPE   C3917577   3.232   4.742   9.360 -0.8397  0.1682  0.4079
  157SAPE   H9X17578   3.122   4.759   9.362 -1.3402 -1.1403 -4.4117
  157SAPE   H9Y17579   3.247   4.659   9.433 -0.9410  1.3636  1.8455
  157SAPE  C31017580   3.273   4.685   9.220 -0.5328 -0.6424 -0.7360
  157SAPE  H10X17581   3.383   4.670   9.217 -0.1124  1.5860  0.8092
  157SAPE  H10Y17582   3.255   4.772   9.153 -1.0960 -1.2106 -1.3214
  157SAPE  C31117583   3.182   4.567   9.174 -0.2622  0.0684  0.3328
  157SAPE  H11X17584   3.078   4.580   9.213 -0.4605 -0.1111 -0.1243
  157SAPE  H11Y17585   3.224   4.470   9.206  2.4326  1.2872  0.7682
  157SAPE  C31217586   3.181   4.554   9.018  0.3075  0.1373 -0.8557
  157SAPE  H12X17587   3.138   4.647   8.974  0.3076  0.9913  0.8394
  157SAPE  H12Y17588   3.116   4.468   8.990  1.0139 -1.3172  1.6433
  157SAPE  C31317589   3.317   4.532   8.958 -0.4612  0.3219  0.8721
  157SAPE  H13X17590   3.366   4.451   9.015  1.5058  0.3519 -0.6548
  157SAPE  H13Y17591   3.377   4.623   8.977 -0.1684  0.2940  0.1155
  157SAPE  C31417592   3.325   4.512   8.801  0.5805  0.2694 -0.5244
  157SAPE  H14X17593   3.287   4.410   8.778  2.5637 -0.5604 -0.3796
  157SAPE  H14Y17594   3.425   4.527   8.755  0.6598 -0.9707 -0.8037
  157SAPE  C31517595   3.230   4.601   8.722  0.0667  0.2754 -0.2799
  157SAPE  H15X17596   3.251   4.710   8.724 -0.5245  0.4457 -1.9628
  157SAPE  H15Y17597   3.129   4.594   8.768  0.4101 -0.2951  0.4192
  157SAPE  C31617598   3.212   4.567   8.572  0.0545 -0.4878  0.0864
  157SAPE  H16X17599   3.136   4.625   8.517 -0.9592 -0.2961  1.6346
  157SAPE  H16Y17600   3.177   4.462   8.568 -0.5369 -0.2814 -0.2825
  157SAPE  C31717601   3.342   4.595   8.489 -0.3391  0.2981 -0.6970
  157SAPE  H17X17602   3.313   4.597   8.382  0.4632 -0.8297 -0.9490
  157SAPE  H17Y17603   3.411   4.514   8.519  3.0054  2.4973 -1.8917
  157SAPE  C31817604   3.412   4.733   8.511 -0.2015  0.2023  0.5500
  157SAPE  H18X17605   3.476   4.773   8.429 -1.7149  1.5018 -0.0471
  157SAPE  H18Y17606   3.482   4.736   8.597 -0.9552  2.2911  1.1353
  157SAPE  H18Z17607   3.329   4.806   8.521  1.1041  2.9432 -4.6464
  158SAPE     N17608   3.730   6.129  10.633 -0.4398  0.2886 -0.5735
  158SAPE   HN117609   3.668   6.209  10.612 -1.3096  0.0095  0.7883
  158SAPE   HN217610   3.693   6.082  10.718  1.9065 -1.4942 -0.4084
  158SAPE   HN317611   3.822   6.168  10.661 -0.6097 -0.3354  0.9158
  158SAPE   C1217612   3.754   6.013  10.537  0.9892 -0.5713 -0.5696
  158SAPE  H12A17613   3.801   5.937  10.603  0.5616  0.4574  0.9663
  158SAPE  H12B17614   3.823   6.048  10.457 -1.0077  2.0713 -1.2693
  158SAPE   C1117615   3.621   5.952  10.475 -1.0091 -0.1632  0.0913
  158SAPE  H11A17616   3.645   5.868  10.407  1.9853  0.3633  0.3851
  158SAPE  H11B17617   3.571   6.030  10.414  1.3674  0.3301 -1.3619
  158SAPE     P17618   3.417   5.811  10.572 -0.1957 -0.4265 -0.2298
  158SAPE   O1317619   3.395   5.740  10.700 -0.4802  0.0883  0.0379
  158SAPE   O1417620   3.299   5.880  10.520  0.0585 -0.1350  0.1729
  158SAPE   O1217621   3.544   5.909  10.583 -0.0915  0.5523 -0.5144
  158SAPE   O1117622   3.467   5.703  10.472 -0.1515  0.1083 -0.6220
  158SAPE    C117623   3.404   5.575  10.459 -0.0861 -0.6001 -0.3730
  158SAPE    HA17624   3.426   5.510  10.547 -1.6557 -1.5350 -0.6436
  158SAPE    HB17625   3.293   5.581  10.455 -0.0565 -0.3904 -0.9245
  158SAPE    C217626   3.441   5.503  10.324 -0.0641  0.2780  0.4717
  158SAPE    HS17627   3.353   5.439  10.304 -0.5041  1.0657 -0.1531
  158SAPE   O2117628   3.565   5.425  10.336  0.0217 -0.4752  0.2698
  158SAPE   C2117629   3.542   5.297  10.375 -0.1736 -0.0967 -0.1308
  158SAPE   O2217630   3.437   5.254  10.414  0.2223  0.4973  0.0141
  158SAPE   C2217631   3.673   5.213  10.342  0.2581  0.1313  0.2021
  158SAPE   H2R17632   3.765   5.249  10.392  0.1017  1.5824 -0.4886
  158SAPE   H2S17633   3.652   5.111  10.379 -1.2516  0.5726  0.6546
  158SAPE    C317634   3.440   5.596  10.206 -1.3127 -0.0481  0.6739
  158SAPE    HX17635   3.497   5.688  10.233 -2.1899  0.9737 -0.7714
  158SAPE    HY17636   3.341   5.643  10.183  0.3369  2.5176 -2.0023
  158SAPE   O3117637   3.507   5.541  10.092  0.4639 -0.6974  0.4198
  158SAPE   C3117638   3.429   5.483  10.010 -1.1324 -0.9194 -1.0762
  158SAPE   O3217639   3.309   5.467  10.029  0.4676  0.2691 -0.0665
  158SAPE   C3217640   3.520   5.441   9.894  0.7038  0.0653  0.1155
  158SAPE   H2X17641   3.621   5.409   9.927  0.7108  0.0937  0.1222
  158SAPE   H2Y17642   3.526   5.533   9.833 -3.8006  0.6574  0.2404
  158SAPE   C2317643   3.705   5.215  10.190  0.4713  0.0811 -0.1308
  158SAPE   H3R17644   3.791   5.148  10.170 -0.7441 -1.4787 -0.3453
  158SAPE   H3S17645   3.726   5.318  10.154 -3.7439  1.2945  0.2874
  158SAPE   C2417646   3.588   5.158  10.103  1.0063  0.6324  0.2339
  158SAPE   H4R17647   3.614   5.172   9.996 -1.1365  1.4632 -0.2279
  158SAPE   H4S17648   3.500   5.226  10.099 -0.0982 -0.7176  1.0466
  158SAPE   C2517649   3.542   5.021  10.148 -0.0732  0.0898 -0.9318
  158SAPE   H5R17650   3.466   5.025  10.228  1.5111 -1.9298  0.7910
  158SAPE   C2617651   3.586   4.899  10.114 -0.3780 -0.2138 -0.5279
  158SAPE   H6R17652   3.538   4.810  10.159 -1.2996  0.8358  0.6386
  158SAPE   C2717653   3.702   4.861  10.023 -0.1600  0.2523 -0.1272
  158SAPE   H7R17654   3.788   4.817  10.076 -0.1820 -1.9622 -1.7739
  158SAPE   H7S17655   3.742   4.953   9.974 -0.0681  1.7488  2.5938
  158SAPE   C2817656   3.667   4.758   9.912  0.1130 -0.4868  0.1478
  158SAPE   H8R17657   3.589   4.683   9.931 -0.8560  0.2445 -0.8350
  158SAPE   C2917658   3.738   4.760   9.795  0.3347  0.7315  0.1357
  158SAPE   H9R17659   3.696   4.693   9.718 -0.0556 -1.5296  2.1829
  158SAPE  C21017660   3.846   4.861   9.769 -0.0894  0.1482 -0.4235
  158SAPE  H10R17661   3.904   4.898   9.856 -1.5166  0.8601  0.2677
  158SAPE  H10S17662   3.780   4.942   9.730 -2.1836 -1.9742 -1.5811
  158SAPE  C21117663   3.952   4.824   9.664  0.5144 -0.0287  0.1282
  158SAPE  H11R17664   4.047   4.776   9.693  0.8138 -0.7308 -1.8572
  158SAPE  C21217665   3.939   4.837   9.529  0.5519 -0.2508  0.1282
  158SAPE  H12R17666   4.022   4.805   9.465  0.8204 -0.7807  0.7327
  158SAPE  C21317667   3.823   4.903   9.454  0.7418  0.2028 -0.3259
  158SAPE  H13R17668   3.856   4.953   9.361 -3.0813 -0.4737 -2.2455
  158SAPE  H13S17669   3.783   4.981   9.523 -2.4625 -1.4406 -0.1306
  158SAPE  C21417670   3.712   4.799   9.426 -0.1604 -0.1394 -0.7216
  158SAPE  H14R17671   3.643   4.785   9.511  1.1007 -1.0009  0.2060
  158SAPE  C21517672   3.696   4.724   9.310 -0.1128 -0.3721 -0.7199
  158SAPE  H15R17673   3.607   4.660   9.303 -0.5294 -0.0415  1.0208
  158SAPE  C21617674   3.775   4.744   9.182 -0.1131  0.0475  0.2276
  158SAPE  H16R17675   3.854   4.668   9.168 -0.3119 -0.0889 -0.1678
  158SAPE  H16S17676   3.829   4.841   9.187  4.0918 -1.9472 -1.6184
  158SAPE  C21717677   3.694   4.725   9.048  0.0191 -0.7141 -0.0274
  158SAPE  H17R17678   3.631   4.634   9.040 -1.3213 -0.0587  2.1844
  158SAPE  H17S17679   3.775   4.721   8.971 -3.3825 -0.2329 -3.9903
  158SAPE  C21817680   3.614   4.850   9.004 -0.4699 -0.3269 -0.6746
  158SAPE  H18R17681   3.675   4.937   9.035  1.3459 -1.3770 -1.1542
  158SAPE  H18S17682   3.527   4.863   9.071  0.4529 -0.9568  0.6887
  158SAPE  C21917683   3.573   4.852   8.857  0.7593 -0.6713 -0.5538
  158SAPE  H19R17684   3.526   4.752   8.844  3.2352 -2.2818  1.7294
  158SAPE  H19S17685   3.666   4.858   8.796  0.6481  1.2225 -0.5910
  158SAPE  C22017686   3.485   4.970   8.810  0.5600  0.7970  0.4693
  158SAPE  H20R17687   3.451   4.967   8.704  0.3005 -1.9101  0.5519
  158SAPE  H20S17688   3.524   5.069   8.841 -2.9805  1.9876  1.6477
  158SAPE  H20T17689   3.391   4.965   8.870  0.5057  1.6933  0.4757
  158SAPE   C3317690   3.454   5.337   9.799  0.7600 -0.3835 -0.5765
  158SAPE   H3X17691   3.343   5.347   9.792  0.7426  0.1127  0.2794
  158SAPE   H3Y17692   3.479   5.232   9.828  0.1087 -0.6163 -0.8307
  158SAPE   C3417693   3.517   5.347   9.657 -0.2478 -0.2648 -0.2514
  158SAPE   H4X17694   3.626   5.363   9.665  0.1359 -2.7505  0.2451
  158SAPE   H4Y17695   3.471   5.436   9.607 -0.4037 -0.2053 -0.0016
  158SAPE   C3517696   3.483   5.232   9.562 -0.4741  0.1947 -0.4161
  158SAPE   H5X17697   3.375   5.209   9.557 -0.6711  1.0175 -0.1449
  158SAPE   H5Y17698   3.533   5.143   9.606  0.4642  2.2965  3.2392
  158SAPE   C3617699   3.532   5.253   9.421  0.5159 -0.2103 -0.4403
  158SAPE   H6X17700   3.643   5.262   9.422  0.4518  0.8441 -0.7757
  158SAPE   H6Y17701   3.492   5.347   9.376  0.2269 -0.0919  0.0494
  158SAPE   C3717702   3.483   5.148   9.328  0.3699  0.0569  0.6097
  158SAPE   H7X17703   3.375   5.126   9.340 -0.2589  2.6918  0.4442
  158SAPE   H7Y17704   3.543   5.057   9.348  2.1972  0.2650 -3.0027
  158SAPE   C3817705   3.515   5.174   9.181 -0.3227 -0.9804  0.0990
  158SAPE   H8X17706   3.509   5.076   9.130  1.6120 -0.3153 -1.5478
  158SAPE   H8Y17707   3.621   5.202   9.167 -0.9329  1.1298 -0.7793
  158SAPE   C3917708   3.422   5.272   9.103 -0.0072 -0.1142  0.3105
  158SAPE   H9X17709   3.447   5.273   8.994 -0.7707 -0.1362  0.1285
  158SAPE   H9Y17710   3.436   5.376   9.138 -0.4288 -0.9296  3.1144
  158SAPE  C31017711   3.268   5.254   9.112 -0.3325 -0.6517 -0.0593
  158SAPE  H10X17712   3.257   5.144   9.122  2.3665 -0.8262  2.2263
  158SAPE  H10Y17713   3.228   5.296   9.017  2.4221  2.4645 -0.0433
  158SAPE  C31117714   3.207   5.339   9.226 -0.3068 -0.3671 -0.3536
  158SAPE  H11X17715   3.265   5.337   9.320 -1.3908 -0.1906  0.3335
  158SAPE  H11Y17716   3.118   5.280   9.257  0.5802 -1.1532  0.7792
  158SAPE  C31217717   3.184   5.482   9.178 -0.1244  0.4801 -0.4682
  158SAPE  H12X17718   3.139   5.483   9.076 -0.0322  1.5472 -0.5132
  158SAPE  H12Y17719   3.284   5.526   9.156  0.5923 -1.7251 -1.9428
  158SAPE  C31317720   3.108   5.576   9.275  0.1212 -0.0108 -0.0023
  158SAPE  H13X17721   3.161   5.607   9.367  0.2377  0.6161 -0.2766
  158SAPE  H13Y17722   3.031   5.509   9.318  1.5684 -1.4348  0.4557
  158SAPE  C31417723   3.046   5.694   9.202 -0.7023  0.0556 -0.2987
  158SAPE  H14X17724   2.980   5.653   9.122 -1.3591 -0.9363  0.7201
  158SAPE  H14Y17725   3.111   5.750   9.132  0.3341 -0.3998  0.2784
  158SAPE  C31517726   2.977   5.791   9.297 -0.4244 -0.2108 -0.5618
  158SAPE  H15X17727   2.990   5.890   9.248 -0.4358 -0.1703 -0.4831
  158SAPE  H15Y17728   3.023   5.825   9.393  0.3829 -0.4155 -0.8665
  158SAPE  C31617729   2.830   5.775   9.318  0.5189 -0.3261 -0.5487
  158SAPE  H16X17730   2.814   5.670   9.349  0.6096 -0.4505 -0.9199
  158SAPE  H16Y17731   2.793   5.795   9.215  1.7449 -1.0014 -1.1279
  158SAPE  C31717732   2.756   5.876   9.404  0.1406  0.3333  0.7236
  158SAPE  H17X17733   2.646   5.865   9.415  0.4210 -1.3636  2.2960
  158SAPE  H17Y17734   2.768   5.972   9.349  2.7974 -0.1853  0.2414
  158SAPE  C31817735   2.794   5.881   9.549 -0.4125  0.6342  0.0381
  158SAPE  H18X17736   2.779   5.976   9.603  0.1643 -0.0187  1.4141
  158SAPE  H18Y17737   2.899   5.847   9.564 -0.2728  1.1977  0.3806
  158SAPE  H18Z17738   2.739   5.797   9.597  0.0284 -0.3992 -1.1928
  159SAPE     N17739   1.853   4.304   6.288 -0.7019 -0.6587  0.0381
  159SAPE   HN117740   1.852   4.407   6.292 -0.7293 -0.6682  0.2490
  159SAPE   HN217741   1.946   4.272   6.323 -0.2519 -0.0202 -0.5557
  159SAPE   HN317742   1.846   4.263   6.192 -1.6134 -0.1422 -0.1314
  159SAPE   C1217743   1.748   4.248   6.375 -0.2655 -0.2105 -0.7366
  159SAPE  H12A17744   1.647   4.273   6.337 -0.1224  0.4481 -0.7010
  159SAPE  H12B17745   1.769   4.301   6.470 -1.1729 -1.2820  0.0858
  159SAPE   C1117746   1.761   4.095   6.391 -0.0093  0.2416 -0.6004
  159SAPE  H11A17747   1.846   4.079   6.461 -0.1722  2.3982  0.1528
  159SAPE  H11B17748   1.790   4.030   6.306 -0.2188  0.3880 -0.7843
  159SAPE     P17749   1.509   4.011   6.379  0.3131  0.1682 -0.3896
  159SAPE   O1317750   1.399   4.105   6.407 -0.0915 -0.6219  0.2117
  159SAPE   O1417751   1.531   4.000   6.239 -0.2635 -0.4419  0.2802
  159SAPE   O1217752   1.646   4.047   6.450  0.0568 -0.3476 -0.0919
  159SAPE   O1117753   1.469   3.873   6.440 -0.1014 -0.0701  0.1265
  159SAPE    C117754   1.551   3.773   6.507  0.1249 -0.6710 -0.3759
  159SAPE    HA17755   1.508   3.676   6.474  0.4290 -1.1517  0.6038
  159SAPE    HB17756   1.658   3.767   6.478  0.3700 -0.4160  0.4587
  159SAPE    C217757   1.557   3.777   6.666  0.0667 -0.2470 -0.6522
  159SAPE    HS17758   1.606   3.690   6.714  0.5372  1.1227  1.4341
  159SAPE   O2117759   1.428   3.808   6.721 -0.3912  0.3771  0.0945
  159SAPE   C2117760   1.325   3.753   6.691  0.0959  0.5768 -0.3867
  159SAPE   O2217761   1.309   3.657   6.609 -0.4542  0.4073 -0.0945
  159SAPE   C2217762   1.212   3.807   6.763 -0.2798 -0.6992 -0.7395
  159SAPE   H2R17763   1.249   3.891   6.826 -1.8282 -0.8385  0.4145
  159SAPE   H2S17764   1.140   3.853   6.692  0.2807 -0.2368 -1.0158
  159SAPE    C317765   1.651   3.887   6.720 -0.5046 -0.0926 -0.7091
  159SAPE    HX17766   1.632   3.992   6.690  0.7144  0.6392  0.9094
  159SAPE    HY17767   1.755   3.862   6.688  0.1785  1.6565  0.0259
  159SAPE   O3117768   1.641   3.899   6.863 -0.0187  0.5043 -0.1531
  159SAPE   C3117769   1.695   3.806   6.943  0.3653 -0.0698  0.3266
  159SAPE   O3217770   1.760   3.713   6.901  0.7772  0.5956  0.5333
  159SAPE   C3217771   1.667   3.842   7.090 -0.4461 -0.1545  0.7885
  159SAPE   H2X17772   1.559   3.868   7.087  0.1541  2.5066 -0.2217
  159SAPE   H2Y17773   1.723   3.936   7.108 -0.1875  0.1754 -1.4550
  159SAPE   C2317774   1.137   3.705   6.847 -0.2316  0.4947 -0.3806
  159SAPE   H3R17775   1.096   3.619   6.790  1.0204 -0.1543 -0.3257
  159SAPE   H3S17776   1.040   3.750   6.878  0.5996  0.6528  2.2258
  159SAPE   C2417777   1.210   3.660   6.975 -0.4361  0.0948 -0.6705
  159SAPE   H4R17778   1.234   3.747   7.040 -0.6623 -2.1352  2.5842
  159SAPE   H4S17779   1.313   3.628   6.947  0.1439  2.2024 -1.1278
  159SAPE   C2517780   1.152   3.541   7.038  0.0439 -0.2093 -0.1491
  159SAPE   H5R17781   1.168   3.446   6.985  0.1271 -0.6341  0.6290
  159SAPE   C2617782   1.084   3.539   7.159 -0.5011  0.3580  0.0819
  159SAPE   H6R17783   1.049   3.438   7.185  1.0775 -0.6656 -1.5465
  159SAPE   C2717784   1.039   3.649   7.251 -0.4577  0.1674  0.2939
  159SAPE   H7R17785   0.933   3.632   7.283 -0.6333  0.8888  0.1245
  159SAPE   H7S17786   1.029   3.747   7.198 -2.4774  0.5026  1.1725
  159SAPE   C2817787   1.125   3.672   7.377  0.3382  0.4141 -0.0732
  159SAPE   H8R17788   1.212   3.738   7.368 -0.2125  0.9901 -1.3374
  159SAPE   C2917789   1.106   3.632   7.501 -0.0158 -0.0698  0.4199
  159SAPE   H9R17790   1.188   3.653   7.571  1.3974  0.0738 -1.2252
  159SAPE  C21017791   0.989   3.549   7.556 -0.1519 -0.1829  0.7724
  159SAPE  H10R17792   1.023   3.463   7.618 -0.1336 -1.1944 -0.5953
  159SAPE  H10S17793   0.944   3.491   7.472 -1.8679 -0.8290  2.0685
  159SAPE  C21117794   0.885   3.636   7.622  0.3883 -0.4941 -0.0491
  159SAPE  H11R17795   0.821   3.700   7.561  2.0195  4.0559  2.4724
  159SAPE  C21217796   0.875   3.651   7.760  0.7144 -0.5792 -0.2025
  159SAPE  H12R17797   0.795   3.716   7.800  0.1096 -2.4579  1.8244
  159SAPE  C21317798   0.960   3.586   7.865 -0.1860 -0.0544  0.2141
  159SAPE  H13R17799   0.959   3.477   7.848  2.3418  0.0185 -0.9818
  159SAPE  H13S17800   0.909   3.606   7.961  1.5254 -0.6421  1.2967
  159SAPE  C21417801   1.103   3.623   7.878 -0.5152 -0.1240  0.0370
  159SAPE  H14R17802   1.124   3.703   7.805 -2.2381 -0.7239 -1.1877
  159SAPE  C21517803   1.195   3.575   7.960 -0.4654  0.0694  0.0334
  159SAPE  H15R17804   1.300   3.607   7.957  0.2049 -1.9696  0.0700
  159SAPE  C21617805   1.174   3.482   8.076 -0.0306 -1.0272 -0.5713
  159SAPE  H16R17806   1.229   3.386   8.066 -0.0668 -0.9046 -2.2101
  159SAPE  H16S17807   1.068   3.456   8.098  0.3203 -1.3037  0.9311
  159SAPE  C21717808   1.225   3.551   8.210 -0.5211  0.1365  0.1843
  159SAPE  H17R17809   1.187   3.655   8.208 -2.0886 -0.4058 -1.6631
  159SAPE  H17S17810   1.335   3.547   8.202 -0.4482  2.5242 -0.7628
  159SAPE  C21817811   1.171   3.490   8.330 -0.1632 -0.1801 -0.0364
  159SAPE  H18R17812   1.238   3.534   8.406 -1.1206  2.6644 -0.7206
  159SAPE  H18S17813   1.179   3.379   8.331  1.5369 -0.1020 -0.7868
  159SAPE  C21917814   1.027   3.532   8.362 -0.0096  0.5025  0.1833
  159SAPE  H19R17815   0.954   3.491   8.289  0.7091  0.2529 -0.4134
  159SAPE  H19S17816   1.025   3.643   8.370 -0.9773  0.4160  1.3841
  159SAPE  C22017817   0.983   3.493   8.504 -0.5193 -0.4071 -0.7655
  159SAPE  H20R17818   0.973   3.383   8.497  0.6804 -0.5828  0.0232
  159SAPE  H20S17819   0.899   3.559   8.535  0.8084  1.6832 -1.4320
  159SAPE  H20T17820   1.061   3.522   8.577 -1.4731 -1.2069  0.6313
  159SAPE   C3317821   1.712   3.740   7.191  0.8481 -0.2265 -0.0964
  159SAPE   H3X17822   1.816   3.699   7.192  1.1443  0.4492  2.2936
  159SAPE   H3Y17823   1.643   3.655   7.173 -0.5835  0.1675  2.9214
  159SAPE   C3417824   1.661   3.766   7.331 -0.7196 -0.0225  0.0672
  159SAPE   H4X17825   1.554   3.797   7.324 -0.4957  0.5777 -1.1387
  159SAPE   H4Y17826   1.738   3.835   7.370  1.6694 -0.0681 -3.9714
  159SAPE   C3517827   1.670   3.636   7.416  0.7476 -0.3172 -0.2796
  159SAPE   H5X17828   1.764   3.578   7.403  0.7326 -1.3031  3.0312
  159SAPE   H5Y17829   1.584   3.567   7.400  0.5659 -0.8913  2.6122
  159SAPE   C3617830   1.675   3.681   7.565 -0.7316 -0.2333  0.4321
  159SAPE   H6X17831   1.588   3.748   7.581 -1.6657 -1.1403 -0.5964
  159SAPE   H6Y17832   1.765   3.746   7.559 -0.6408 -0.3793  0.1753
  159SAPE   C3717833   1.694   3.562   7.658  0.3590 -0.0920  0.1239
  159SAPE   H7X17834   1.763   3.487   7.616  0.6879  1.6775 -2.7832
  159SAPE   H7Y17835   1.597   3.507   7.659  0.7619 -0.8202  0.9575
  159SAPE   C3817836   1.742   3.594   7.802 -0.4510  0.2335 -0.8924
  159SAPE   H8X17837   1.844   3.637   7.809 -1.2800  2.5441 -2.0479
  159SAPE   H8Y17838   1.742   3.497   7.857  1.0391  1.0567  0.6227
  159SAPE   C3917839   1.650   3.688   7.885 -0.3186 -1.1548 -0.1368
  159SAPE   H9X17840   1.543   3.663   7.873 -0.8661  0.2927  1.3595
  159SAPE   H9Y17841   1.655   3.794   7.851  0.3477 -0.7319  1.2342
  159SAPE  C31017842   1.690   3.683   8.031 -0.3775  0.6948 -0.3091
  159SAPE  H10X17843   1.652   3.769   8.090  0.1298  1.1986 -0.7066
  159SAPE  H10Y17844   1.799   3.693   8.052 -0.6239  2.2281  0.3708
  159SAPE  C31117845   1.626   3.561   8.110 -0.7198  0.0979  0.2284
  159SAPE  H11X17846   1.648   3.464   8.062 -2.2788 -0.0214 -0.3052
  159SAPE  H11Y17847   1.515   3.569   8.108 -0.7718 -0.6575 -1.2048
  159SAPE  C31217848   1.695   3.549   8.246 -0.8558 -0.4717 -0.9605
  159SAPE  H12X17849   1.803   3.526   8.254 -0.6158  0.7472 -0.5042
  159SAPE  H12Y17850   1.641   3.463   8.293  0.7628 -1.7511 -1.3598
  159SAPE  C31317851   1.666   3.672   8.334 -0.1896 -0.9070 -0.0096
  159SAPE  H13X17852   1.575   3.726   8.300  1.4323  1.4013 -0.9613
  159SAPE  H13Y17853   1.743   3.750   8.317 -0.5811 -0.3244  0.7970
  159SAPE  C31417854   1.672   3.640   8.479  0.5174  0.2531 -1.0153
  159SAPE  H14X17855   1.767   3.596   8.515 -0.2341 -1.0720 -0.5975
  159SAPE  H14Y17856   1.590   3.570   8.506 -0.5984  2.1979  0.8795
  159SAPE  C31517857   1.641   3.764   8.558 -0.8166  0.3598  0.2834
  159SAPE  H15X17858   1.692   3.854   8.517 -0.3614  0.9199  1.9590
  159SAPE  H15Y17859   1.678   3.743   8.661 -0.2262  1.3972  0.2976
  159SAPE  C31617860   1.494   3.804   8.573  0.2601  0.1747  0.2818
  159SAPE  H16X17861   1.430   3.730   8.625  0.6036 -1.3392 -1.3801
  159SAPE  H16Y17862   1.452   3.833   8.475 -0.6274  1.1662  0.9274
  159SAPE  C31717863   1.481   3.941   8.651  0.7446  0.2546  0.3210
  159SAPE  H17X17864   1.373   3.966   8.660  0.6014 -0.0617 -0.4523
  159SAPE  H17Y17865   1.527   4.028   8.600 -0.4911  0.6217 -0.2026
  159SAPE  C31817866   1.521   3.928   8.794  0.4914 -0.6860  0.1751
  159SAPE  H18X17867   1.520   4.027   8.845 -2.2603 -0.7217  0.3423
  159SAPE  H18Y17868   1.628   3.899   8.795  0.3004 -1.5169 -1.3411
  159SAPE  H18Z17869   1.463   3.853   8.851  1.9525 -1.2038  1.0292
  160SAPE     N17870   2.002   6.104   6.570  0.4846 -0.6853 -0.3974
  160SAPE   HN117871   1.976   6.006   6.593  0.7543 -0.9477 -1.1704
  160SAPE   HN217872   1.920   6.161   6.541  0.7266 -0.6900 -1.1158
  160SAPE   HN317873   2.066   6.092   6.489 -0.1387  1.9516 -1.3709
  160SAPE   C1217874   2.085   6.178   6.677  0.1003 -0.0547 -0.1433
  160SAPE  H12A17875   2.188   6.139   6.665  0.1485  0.1414 -0.3644
  160SAPE  H12B17876   2.048   6.140   6.774  4.8544  0.0617  2.0024
  160SAPE   C1117877   2.091   6.332   6.654 -0.6520 -0.0016  0.0495
  160SAPE  H11A17878   2.140   6.372   6.745 -1.6664  0.2592  0.4972
  160SAPE  H11B17879   1.985   6.365   6.658 -0.8042 -0.4541 -0.1495
  160SAPE     P17880   2.262   6.469   6.509  0.0751  0.0839 -0.1612
  160SAPE   O1317881   2.390   6.420   6.565  0.6801 -0.5898  0.1170
  160SAPE   O1417882   2.260   6.526   6.366  0.6478 -0.4980  0.2238
  160SAPE   O1217883   2.150   6.356   6.520  0.2317  0.2408  0.0120
  160SAPE   O1117884   2.202   6.575   6.619  0.0451 -0.4181  0.2957
  160SAPE    C117885   2.079   6.641   6.598  0.0391 -0.2059 -0.7092
  160SAPE    HA17886   2.058   6.642   6.489  0.7186  0.2690 -0.8422
  160SAPE    HB17887   1.995   6.588   6.648 -0.5331  0.4368 -0.9589
  160SAPE    C217888   2.085   6.791   6.652  0.5863  0.0229  0.0089
  160SAPE    HS17889   2.167   6.845   6.600 -0.7243  2.0771 -0.0365
  160SAPE   O2117890   2.104   6.790   6.792 -0.9458 -0.3859 -0.0505
  160SAPE   C2117891   2.125   6.898   6.861 -0.4574  0.2003  0.0988
  160SAPE   O2217892   2.157   7.007   6.817  0.5117  0.2831 -0.4693
  160SAPE   C2217893   2.083   6.871   7.008  0.0274 -0.3675  1.2789
  160SAPE   H2R17894   1.980   6.829   7.010  0.1003 -0.5588  1.0582
  160SAPE   H2S17895   2.137   6.784   7.051  0.8777 -0.5638 -0.1311
  160SAPE    C317896   1.956   6.870   6.619 -0.3346  0.8416  0.7272
  160SAPE    HX17897   1.935   6.862   6.510 -3.1251  0.4615  1.2182
  160SAPE    HY17898   1.959   6.976   6.651 -1.3974  0.5115  1.9613
  160SAPE   O3117899   1.842   6.804   6.677  0.0030  0.3173  0.7249
  160SAPE   C3117900   1.732   6.872   6.645 -0.3913  0.1281 -0.1662
  160SAPE   O3217901   1.725   6.980   6.587  0.9122  0.3565  0.6088
  160SAPE   C3217902   1.618   6.798   6.716 -0.4259  0.0131 -0.2774
  160SAPE   H2X17903   1.597   6.703   6.662 -0.9893 -0.2175  0.3371
  160SAPE   H2Y17904   1.522   6.855   6.710 -0.2717  0.3345  0.2606
  160SAPE   C2317905   2.097   6.998   7.092  0.6780  0.1199 -0.1790
  160SAPE   H3R17906   2.046   7.084   7.044 -2.3302 -1.0436  0.7081
  160SAPE   H3S17907   2.206   7.018   7.101  0.6726  0.5420 -1.0162
  160SAPE   C2417908   2.031   6.984   7.226 -0.0652 -0.3231 -0.4199
  160SAPE   H4R17909   1.966   6.895   7.216 -1.0977  0.4844 -1.0798
  160SAPE   H4S17910   1.967   7.072   7.248  1.2683  0.3267  1.0923
  160SAPE   C2517911   2.121   6.954   7.342 -0.2198  0.5061 -0.2950
  160SAPE   H5R17912   2.171   6.859   7.318  0.8222  1.3860 -1.7672
  160SAPE   C2617913   2.144   7.026   7.448 -0.2259  0.1599 -0.0705
  160SAPE   H6R17914   2.225   6.993   7.515  1.7940  1.2832 -1.8220
  160SAPE   C2717915   2.082   7.156   7.496  0.2947 -0.5238 -0.1467
  160SAPE   H7R17916   1.995   7.120   7.555  0.1782 -0.2170 -0.1272
  160SAPE   H7S17917   2.054   7.230   7.418  1.3682 -0.2705 -0.3136
  160SAPE   C2817918   2.177   7.233   7.583  0.0615  0.1575  0.7393
  160SAPE   H8R17919   2.265   7.273   7.531 -0.5803 -0.3247 -0.7731
  160SAPE   C2917920   2.172   7.254   7.714 -0.5288  0.5582 -0.0507
  160SAPE   H9R17921   2.248   7.319   7.758  0.0871 -0.4948  0.4779
  160SAPE  C21017922   2.059   7.197   7.798 -0.2898  0.0308  0.6448
  160SAPE  H10R17923   1.961   7.212   7.747 -1.0286 -0.8037  1.7738
  160SAPE  H10S17924   2.041   7.270   7.880  0.3398  3.3970 -1.9599
  160SAPE  C21117925   2.085   7.051   7.838  0.5580 -0.5751  0.1185
  160SAPE  H11R17926   2.086   6.982   7.753  0.1228 -0.1034 -0.2696
  160SAPE  C21217927   2.090   7.015   7.964 -1.0176 -0.2585 -0.3776
  160SAPE  H12R17928   2.122   6.912   7.987  2.8588  0.8308 -0.1931
  160SAPE  C21317929   2.071   7.112   8.074  0.0727 -0.7514 -0.2373
  160SAPE  H13R17930   1.974   7.164   8.059  0.0649 -0.2669  1.2440
  160SAPE  H13S17931   2.147   7.193   8.061 -1.9822  1.1497 -1.1541
  160SAPE  C21417932   2.068   7.057   8.213  0.0438  0.6019 -0.9517
  160SAPE  H14R17933   2.039   6.952   8.226  0.9068  0.4097 -0.4803
  160SAPE  C21517934   2.107   7.123   8.325  0.3020  0.0144 -0.0903
  160SAPE  H15R17935   2.119   7.086   8.428 -0.2334  2.8536  1.0717
  160SAPE  C21617936   2.157   7.265   8.333 -0.0917 -1.1896  0.0564
  160SAPE  H16R17937   2.155   7.310   8.231  2.2428 -1.7325 -0.2902
  160SAPE  H16S17938   2.264   7.269   8.363 -0.2043  2.3831  0.3743
  160SAPE  C21717939   2.078   7.369   8.421 -0.1348  0.5326 -0.3414
  160SAPE  H17R17940   2.072   7.316   8.519 -0.2844 -3.9298 -2.5091
  160SAPE  H17S17941   1.979   7.379   8.373 -0.2771  1.8990  0.2030
  160SAPE  C21817942   2.130   7.518   8.424 -0.4031  0.2993 -0.1549
  160SAPE  H18R17943   2.161   7.553   8.323 -1.8037 -2.0206 -1.4806
  160SAPE  H18S17944   2.227   7.515   8.479  0.0258 -1.8866 -0.9311
  160SAPE  C21917945   2.035   7.610   8.508 -0.5481  0.2874  0.2481
  160SAPE  H19R17946   1.952   7.622   8.435  0.4788  0.5315 -0.9162
  160SAPE  H19S17947   2.085   7.709   8.507  0.1114 -0.0192 -1.3690
  160SAPE  C22017948   2.002   7.575   8.656  0.5657 -0.1778  0.1259
  160SAPE  H20R17949   2.100   7.588   8.706 -0.4446 -0.4866  2.2964
  160SAPE  H20S17950   1.967   7.471   8.669  2.2062 -0.8378 -0.4199
  160SAPE  H20T17951   1.935   7.649   8.704  1.8141  2.4692 -1.9217
  160SAPE   C3317952   1.653   6.772   6.865 -0.3435  0.2834 -0.6357
  160SAPE   H3X17953   1.747   6.713   6.879 -1.5258 -1.7780 -1.0106
  160SAPE   H3Y17954   1.569   6.707   6.894  0.7417 -0.1482  1.8394
  160SAPE   C3417955   1.640   6.899   6.949  0.3042 -0.0358  0.2571
  160SAPE   H4X17956   1.543   6.952   6.934  0.4368  0.0148 -0.4446
  160SAPE   H4Y17957   1.721   6.974   6.936  1.6472 -1.6974 -1.5863
  160SAPE   C3517958   1.641   6.862   7.099  0.4072  0.3318 -0.3185
  160SAPE   H5X17959   1.729   6.797   7.121 -0.1400 -0.4133 -0.2710
  160SAPE   H5Y17960   1.555   6.798   7.126  1.2508 -0.4455  0.6480
  160SAPE   C3617961   1.635   6.984   7.185  0.3769 -0.2681 -0.4143
  160SAPE   H6X17962   1.557   7.049   7.140 -2.4472 -1.9177  1.8123
  160SAPE   H6Y17963   1.729   7.040   7.167 -0.6979  1.4742 -0.8429
  160SAPE   C3717964   1.624   6.955   7.337 -0.6488  0.4340  0.2283
  160SAPE   H7X17965   1.693   6.870   7.358  0.4623  1.2888  0.1423
  160SAPE   H7Y17966   1.522   6.918   7.358 -1.1327  0.6727 -1.5355
  160SAPE   C3817967   1.653   7.071   7.432 -0.1212  0.3165 -0.8259
  160SAPE   H8X17968   1.580   7.154   7.417 -0.8163 -0.6127 -2.8822
  160SAPE   H8Y17969   1.759   7.099   7.414  0.1549 -0.2409 -0.1147
  160SAPE   C3917970   1.636   7.027   7.582  0.1559  0.3942 -0.9036
  160SAPE   H9X17971   1.709   6.944   7.591  1.4481  1.1438 -3.5840
  160SAPE   H9Y17972   1.534   6.985   7.592  0.4633 -0.4286 -1.1492
  160SAPE  C31017973   1.662   7.142   7.684 -0.5063  0.1055  0.0835
  160SAPE  H10X17974   1.581   7.218   7.677  0.9496  1.8396  1.3413
  160SAPE  H10Y17975   1.760   7.187   7.659 -1.6654  2.5062 -0.4556
  160SAPE  C31117976   1.652   7.088   7.821  0.1091 -0.6335 -0.7295
  160SAPE  H11X17977   1.730   7.012   7.840 -0.5319 -1.3257 -0.8387
  160SAPE  H11Y17978   1.552   7.043   7.840 -0.2388  0.5863  0.4872
  160SAPE  C31217979   1.658   7.199   7.934  1.0014  0.1578  1.0525
  160SAPE  H12X17980   1.581   7.271   7.899  1.4001 -0.9236 -2.4998
  160SAPE  H12Y17981   1.758   7.249   7.939  0.1509  2.4877 -1.9048
  160SAPE  C31317982   1.638   7.147   8.071  0.3009  0.3278 -0.1686
  160SAPE  H13X17983   1.719   7.076   8.099 -0.2945  0.2791  1.5195
  160SAPE  H13Y17984   1.541   7.093   8.074  0.7191 -0.4151  0.4328
  160SAPE  C31417985   1.634   7.261   8.180 -0.2405 -0.6075 -0.3893
  160SAPE  H14X17986   1.559   7.342   8.166  1.0929  0.7308 -0.0280
  160SAPE  H14Y17987   1.732   7.314   8.178  1.1725 -3.0960 -1.2479
  160SAPE  C31517988   1.603   7.209   8.319 -0.0358  0.0372 -0.8683
  160SAPE  H15X17989   1.496   7.182   8.332 -0.5280  1.3639 -1.9612
  160SAPE  H15Y17990   1.616   7.295   8.388  0.9638 -0.0418 -0.9463
  160SAPE  C31617991   1.692   7.093   8.377  0.1486  0.3044  0.1442
  160SAPE  H16X17992   1.793   7.138   8.388 -0.9019  2.2576  3.3320
  160SAPE  H16Y17993   1.715   7.014   8.303  1.2629  1.0068 -0.2698
  160SAPE  C31717994   1.651   7.033   8.519  0.3081 -0.5565 -0.7695
  160SAPE  H17X17995   1.542   7.010   8.515 -0.2211  1.4542  0.6070
  160SAPE  H17Y17996   1.667   7.119   8.587  0.4909 -0.6446 -0.7012
  160SAPE  C31817997   1.734   6.909   8.539 -0.4768  0.4581 -0.7855
  160SAPE  H18X17998   1.839   6.931   8.567 -0.2542 -0.8970 -0.4905
  160SAPE  H18Y17999   1.737   6.842   8.450  0.6835  2.2332 -2.1663
  160SAPE  H18Z18000   1.686   6.853   8.622  1.1093  0.9017  0.4900
  161SAPE     N18001   2.467   5.083   6.368 -0.2343  0.4377 -0.2218
  161SAPE   HN118002   2.384   5.121   6.318 -0.6982 -0.6418 -0.3053
  161SAPE   HN218003   2.550   5.139   6.342  2.6549 -1.1832  4.2283
  161SAPE   HN318004   2.485   4.985   6.339 -0.0105  1.0940 -2.4305
  161SAPE   C1218005   2.454   5.104   6.525 -0.3552  0.7552  0.2417
  161SAPE  H12A18006   2.544   5.052   6.565  0.8614  0.9526 -2.0475
  161SAPE  H12B18007   2.363   5.049   6.556 -0.5981 -0.5122 -2.4255
  161SAPE   C1118008   2.445   5.248   6.584 -0.6305 -0.2570  0.3891
  161SAPE  H11A18009   2.445   5.255   6.695  2.6218 -0.2237  0.4757
  161SAPE  H11B18010   2.351   5.296   6.546 -0.1297 -1.2897 -2.4224
  161SAPE     P18011   2.564   5.405   6.404  0.2489  0.0796  0.2123
  161SAPE   O1318012   2.615   5.314   6.302  0.5730  0.0597 -0.0447
  161SAPE   O1418013   2.434   5.467   6.375  0.1483  0.2137  0.1378
  161SAPE   O1218014   2.556   5.322   6.535 -0.4493  0.9393 -0.0919
  161SAPE   O1118015   2.672   5.515   6.442  0.3154  0.2522 -0.3420
  161SAPE    C118016   2.633   5.633   6.519  0.3921  0.8507  0.5202
  161SAPE    HA18017   2.655   5.720   6.454 -0.9412  0.2130 -0.8395
  161SAPE    HB18018   2.526   5.655   6.541  0.1930  0.5030 -0.0751
  161SAPE    C218019   2.708   5.634   6.655 -0.0599  0.1457 -0.5740
  161SAPE    HS18020   2.799   5.572   6.649 -0.3910 -0.8572  2.7018
  161SAPE   O2118021   2.625   5.573   6.754  0.0437  0.0007  0.1159
  161SAPE   C2118022   2.668   5.464   6.813  0.0245 -0.1939 -0.4304
  161SAPE   O2218023   2.772   5.400   6.797 -0.1708  0.0081 -0.1659
  161SAPE   C2218024   2.561   5.434   6.916 -0.6502  0.0686 -0.0586
  161SAPE   H2R18025   2.557   5.524   6.982 -1.9935  0.8846 -1.2084
  161SAPE   H2S18026   2.470   5.419   6.854  1.5360 -2.1974 -3.0424
  161SAPE    C318027   2.744   5.781   6.692 -0.0555 -0.6647  0.3252
  161SAPE    HX18028   2.663   5.853   6.669  0.9235 -0.0269 -1.3106
  161SAPE    HY18029   2.821   5.826   6.625  1.4566  0.7498  2.8527
  161SAPE   O3118030   2.792   5.809   6.821 -0.0578  0.0800 -0.5485
  161SAPE   C3118031   2.922   5.781   6.851 -0.0906 -0.5930 -0.2434
  161SAPE   O3218032   3.000   5.738   6.772  0.0470 -0.3192  0.5331
  161SAPE   C3218033   2.951   5.815   6.996  0.6617 -0.0678  0.3095
  161SAPE   H2X18034   2.937   5.925   6.997 -3.5536 -0.4417  0.2598
  161SAPE   H2Y18035   3.055   5.776   7.004  0.4187 -0.5366  1.4964
  161SAPE   C2318036   2.603   5.310   7.001 -0.1258 -1.0629 -0.2186
  161SAPE   H3R18037   2.696   5.349   7.047 -0.6469  0.7906 -0.6539
  161SAPE   H3S18038   2.622   5.227   6.928  0.4764  2.0764 -3.9623
  161SAPE   C2418039   2.501   5.269   7.114 -0.5374  0.2630 -0.5753
  161SAPE   H4R18040   2.532   5.180   7.172 -1.4462  0.6767  0.5851
  161SAPE   H4S18041   2.410   5.229   7.065 -1.6279 -1.4243  2.5255
  161SAPE   C2518042   2.462   5.386   7.208 -0.3674 -0.1398 -0.6881
  161SAPE   H5R18043   2.402   5.464   7.158  0.6517  0.3058 -1.2416
  161SAPE   C2618044   2.497   5.394   7.339 -0.0122 -0.1498  0.2362
  161SAPE   H6R18045   2.452   5.469   7.406  0.6062  1.6178 -1.2456
  161SAPE   C2718046   2.584   5.296   7.420  0.3451 -0.0231  0.2451
  161SAPE   H7R18047   2.677   5.275   7.362  0.7960 -1.6426  1.5004
  161SAPE   H7S18048   2.524   5.203   7.417  1.5182 -0.7883 -1.5422
  161SAPE   C2818049   2.599   5.337   7.569  0.0524 -0.5023  0.2284
  161SAPE   H8R18050   2.705   5.352   7.590  0.1514  1.0924 -1.1738
  161SAPE   C2918051   2.511   5.378   7.663  0.6998  0.3097  0.3982
  161SAPE   H9R18052   2.549   5.434   7.750 -2.1563  3.4889 -0.2092
  161SAPE  C21018053   2.364   5.385   7.660 -0.5958 -0.2708  0.1840
  161SAPE  H10R18054   2.337   5.410   7.555  0.4144  1.6705  0.3387
  161SAPE  H10S18055   2.323   5.461   7.729  0.4687 -1.1819  1.8867
  161SAPE  C21118056   2.296   5.256   7.703  0.0057  0.0783 -0.0089
  161SAPE  H11R18057   2.264   5.185   7.625 -3.0759  2.3848 -1.0612
  161SAPE  C21218058   2.266   5.215   7.828 -0.1219  1.0755  0.7351
  161SAPE  H12R18059   2.220   5.115   7.835 -2.1067  1.6958 -1.8457
  161SAPE  C21318060   2.288   5.290   7.960  0.4315  0.3431 -0.4896
  161SAPE  H13R18061   2.187   5.302   8.005  0.7159 -1.4901  0.7277
  161SAPE  H13S18062   2.327   5.391   7.935 -1.0693  1.0433 -0.1135
  161SAPE  C21418063   2.390   5.218   8.047 -0.2262  0.5981  0.0411
  161SAPE  H14R18064   2.468   5.166   7.989  1.9303  0.7631  2.6175
  161SAPE  C21518065   2.395   5.219   8.185 -0.1183  0.4907  0.5470
  161SAPE  H15R18066   2.482   5.170   8.231  0.2079 -0.9922 -1.5597
  161SAPE  C21618067   2.295   5.290   8.270  0.2255 -0.1386  0.0921
  161SAPE  H16R18068   2.273   5.388   8.222  2.4125  0.3803  0.0554
  161SAPE  H16S18069   2.341   5.318   8.368 -0.3815  0.7114  0.1497
  161SAPE  C21718070   2.167   5.206   8.285  0.2319 -0.6968  0.2144
  161SAPE  H17R18071   2.131   5.178   8.184 -2.7564  1.7618  0.4645
  161SAPE  H17S18072   2.087   5.274   8.321 -0.0186  0.1043 -1.7096
  161SAPE  C21818073   2.179   5.081   8.377 -0.4439 -0.3427  0.5531
  161SAPE  H18R18074   2.212   5.115   8.478 -3.9280  2.6932  0.8890
  161SAPE  H18S18075   2.259   5.013   8.341 -1.3624 -0.6322 -0.9757
  161SAPE  C21918076   2.053   5.000   8.387  0.4352  0.6034  0.8300
  161SAPE  H19R18077   2.020   4.956   8.291  0.3343  1.5978  0.3976
  161SAPE  H19S18078   1.963   5.057   8.418  1.0621  2.3685 -0.4112
  161SAPE  C22018079   2.077   4.881   8.483  0.0841 -0.1681 -1.4560
  161SAPE  H20R18080   2.158   4.819   8.440 -0.7494 -2.3302 -0.0855
  161SAPE  H20S18081   1.982   4.826   8.500 -1.4936  2.3597 -1.5700
  161SAPE  H20T18082   2.113   4.921   8.580 -1.1520  0.4516 -1.2294
  161SAPE   C3318083   2.848   5.755   7.095 -0.2644 -0.2000  0.2258
  161SAPE   H3X18084   2.849   5.644   7.094 -0.1100 -0.2291  1.4986
  161SAPE   H3Y18085   2.743   5.781   7.068 -0.0507 -2.6798 -3.8427
  161SAPE   C3418086   2.875   5.811   7.239 -0.3510 -0.2338  0.4461
  161SAPE   H4X18087   2.776   5.802   7.289 -0.9092 -1.3207 -0.7967
  161SAPE   H4Y18088   2.890   5.921   7.245 -0.0929 -0.3402  1.9969
  161SAPE   C3518089   2.989   5.747   7.315  0.3364  0.1477  0.4418
  161SAPE   H5X18090   3.079   5.810   7.305  0.7411 -0.3853  0.6934
  161SAPE   H5Y18091   3.003   5.644   7.275  1.2725  0.1477  0.7551
  161SAPE   C3618092   2.957   5.740   7.463 -0.4611  0.0592 -0.7272
  161SAPE   H6X18093   2.931   5.842   7.496  1.5463  0.3087  0.2715
  161SAPE   H6Y18094   3.050   5.714   7.519  0.4665  1.0024 -1.7918
  161SAPE   C3718095   2.862   5.640   7.515  0.1985 -0.6625  0.3464
  161SAPE   H7X18096   2.907   5.542   7.489 -0.2490  0.0298 -3.7571
  161SAPE   H7Y18097   2.763   5.652   7.467 -0.4710  0.8395  1.9830
  161SAPE   C3818098   2.867   5.634   7.669 -0.3081  0.0780 -0.2053
  161SAPE   H8X18099   2.974   5.621   7.695  0.2712 -3.9637 -3.7046
  161SAPE   H8Y18100   2.818   5.539   7.701 -2.9206  1.0651 -0.9816
  161SAPE   C3918101   2.791   5.745   7.738  0.5113  0.2719  0.2042
  161SAPE   H9X18102   2.682   5.729   7.730  0.3323  0.8739  1.2883
  161SAPE   H9Y18103   2.819   5.843   7.694  0.4471  0.3423  0.3222
  161SAPE  C31018104   2.822   5.752   7.889 -0.1942  0.0402 -0.3451
  161SAPE  H10X18105   2.759   5.839   7.915  0.2329 -0.0924  1.2685
  161SAPE  H10Y18106   2.927   5.783   7.910 -0.7949  0.3947  2.6458
  161SAPE  C31118107   2.789   5.622   7.963 -0.0830  0.7265 -0.0609
  161SAPE  H11X18108   2.846   5.602   8.056 -2.2773 -1.3813  0.9409
  161SAPE  H11Y18109   2.812   5.532   7.901 -0.4142  0.9151 -0.4643
  161SAPE  C31218110   2.641   5.615   8.008 -0.0289 -0.8045  0.0962
  161SAPE  H12X18111   2.620   5.510   8.038  0.3488 -0.6503  0.9383
  161SAPE  H12Y18112   2.582   5.646   7.919  0.4729  0.2573  0.1231
  161SAPE  C31318113   2.598   5.713   8.123 -1.1349 -0.0487  0.9843
  161SAPE  H13X18114   2.595   5.818   8.086  2.4783 -1.0926 -3.1118
  161SAPE  H13Y18115   2.688   5.716   8.188 -0.9099 -0.4962  0.6969
  161SAPE  C31418116   2.487   5.656   8.213 -1.1090  0.0216 -0.2157
  161SAPE  H14X18117   2.528   5.562   8.257 -1.1508 -0.4025 -1.0730
  161SAPE  H14Y18118   2.396   5.637   8.153 -0.8634 -1.2081 -0.2322
  161SAPE  C31518119   2.462   5.742   8.337  0.6040 -0.3965  0.2334
  161SAPE  H15X18120   2.457   5.847   8.301  0.7398  0.1434  1.7228
  161SAPE  H15Y18121   2.551   5.740   8.404 -0.7322 -1.0963  2.0892
  161SAPE  C31618122   2.342   5.684   8.412 -0.1356 -0.3100 -0.1340
  161SAPE  H16X18123   2.352   5.575   8.436 -0.0603 -0.6796 -1.7509
  161SAPE  H16Y18124   2.255   5.694   8.344  1.1091 -0.3837 -1.8023
  161SAPE  C31718125   2.317   5.758   8.539 -0.5402  0.9638 -0.6672
  161SAPE  H17X18126   2.303   5.866   8.520 -1.4045  1.3340  1.7210
  161SAPE  H17Y18127   2.404   5.744   8.606 -0.8083  1.9091 -0.1162
  161SAPE  C31818128   2.205   5.705   8.623  0.6885  0.3759  0.2703
  161SAPE  H18X18129   2.226   5.597   8.643  0.4512  0.5947  1.8380
  161SAPE  H18Y18130   2.108   5.725   8.574  0.1555 -0.6869  0.8458
  161SAPE  H18Z18131   2.197   5.746   8.726 -2.2734 -1.1068  0.7570
  162SAPE     N18132   3.134   0.774   6.078 -0.0517 -0.5542  0.4126
  162SAPE   HN118133   3.172   0.703   6.012  0.4742 -0.8706  1.0549
  162SAPE   HN218134   3.212   0.802   6.140 -0.5577 -0.1225  0.8554
  162SAPE   HN318135   3.053   0.723   6.119 -0.6803 -1.5368 -1.8991
  162SAPE   C1218136   3.076   0.891   6.010 -0.6795 -0.1367  0.7501
  162SAPE  H12A18137   3.006   0.940   6.081  0.4311  0.6784  1.3103
  162SAPE  H12B18138   3.017   0.843   5.929  1.9543  0.3342 -1.6029
  162SAPE   C1118139   3.183   0.986   5.967 -0.8827  0.6273 -0.1071
  162SAPE  H11A18140   3.143   1.054   5.890 -0.4287 -0.1149 -1.0236
  162SAPE  H11B18141   3.259   0.928   5.910 -1.4596  0.4182 -0.6760
  162SAPE     P18142   3.196   1.178   6.149  0.2390  0.6157 -0.0395
  162SAPE   O1318143   3.317   1.232   6.221 -0.4934  0.3628 -0.1702
  162SAPE   O1418144   3.131   1.269   6.057 -0.2663 -0.6928 -0.0767
  162SAPE   O1218145   3.244   1.042   6.076 -0.1540  0.5667 -0.0125
  162SAPE   O1118146   3.098   1.117   6.253  0.3737 -0.4235  0.3390
  162SAPE    C118147   2.988   1.189   6.306 -0.2304  0.1697  0.3192
  162SAPE    HA18148   2.971   1.286   6.254 -1.4808 -1.1226 -1.8036
  162SAPE    HB18149   2.895   1.130   6.295 -0.0849 -0.0245  0.1386
  162SAPE    C218150   3.007   1.234   6.452  1.0681  0.2794  0.7241
  162SAPE    HS18151   3.087   1.311   6.450 -0.3600  1.8333 -2.4477
  162SAPE   O2118152   3.033   1.126   6.539  0.1072 -0.1934 -0.6110
  162SAPE   C2118153   3.121   1.157   6.635 -0.4258 -0.1350 -1.2064
  162SAPE   O2218154   3.193   1.256   6.634  0.7942  0.6208 -0.5550
  162SAPE   C2218155   3.121   1.039   6.737  0.1193  0.8317 -0.0511
  162SAPE   H2R18156   3.030   1.046   6.801  2.2081  0.7359  3.1570
  162SAPE   H2S18157   3.119   0.948   6.673 -0.0521  1.3953 -0.8712
  162SAPE    C318158   2.882   1.307   6.504 -0.2412  0.5169  0.2412
  162SAPE    HX18159   2.817   1.217   6.498  0.7533 -0.1488 -3.4162
  162SAPE    HY18160   2.854   1.385   6.430  1.1052 -1.2017 -2.2547
  162SAPE   O3118161   2.892   1.360   6.639  0.3875  0.3829  0.4962
  162SAPE   C3118162   2.958   1.483   6.648 -0.2084  0.7479 -0.3114
  162SAPE   O3218163   3.011   1.542   6.554 -0.1863 -0.2387  0.3127
  162SAPE   C3218164   2.946   1.537   6.789  0.1799 -0.4568  0.0082
  162SAPE   H2X18165   2.837   1.547   6.803 -0.0991 -2.0195 -0.8377
  162SAPE   H2Y18166   2.994   1.636   6.781 -1.1781  0.1430 -1.0674
  162SAPE   C2318167   3.240   1.059   6.839  0.4528 -0.4640  1.0650
  162SAPE   H3R18168   3.210   1.141   6.907 -1.4252 -0.7257  0.6164
  162SAPE   H3S18169   3.324   1.100   6.778 -1.9812  1.0461 -1.5295
  162SAPE   C2418170   3.277   0.928   6.910  0.0418  0.0612  0.3983
  162SAPE   H4R18171   3.354   0.951   6.986 -0.9173  0.4988  1.2616
  162SAPE   H4S18172   3.324   0.858   6.839 -1.7442  0.9779 -1.8241
  162SAPE   C2518173   3.159   0.853   6.960  0.2134 -0.1934 -0.1569
  162SAPE   H5R18174   3.092   0.819   6.880 -2.0199  1.7912  0.7647
  162SAPE   C2618175   3.125   0.830   7.082 -0.5254 -0.8871 -0.0907
  162SAPE   H6R18176   3.029   0.777   7.091 -1.7978  0.8369 -2.2821
  162SAPE   C2718177   3.201   0.866   7.209  0.4536 -0.5359 -0.5212
  162SAPE   H7R18178   3.309   0.882   7.188  0.9048 -1.3850  0.9835
  162SAPE   H7S18179   3.195   0.775   7.273  1.7861  1.5946  2.9089
  162SAPE   C2818180   3.137   0.983   7.281 -0.0143 -0.0832  0.0132
  162SAPE   H8R18181   3.071   1.047   7.220 -0.6206  0.9667  1.7094
  162SAPE   C2918182   3.161   1.019   7.408  0.0180  0.3861 -0.3316
  162SAPE   H9R18183   3.114   1.108   7.454 -1.3965 -0.5701  0.1540
  162SAPE  C21018184   3.255   0.936   7.494 -0.8013  0.6013  0.1806
  162SAPE  H10R18185   3.296   1.018   7.557 -1.2365  2.1720 -1.4807
  162SAPE  H10S18186   3.338   0.883   7.443  0.0156  1.0613  0.9854
  162SAPE  C21118187   3.193   0.828   7.572  1.0031  0.8017 -0.4928
  162SAPE  H11R18188   3.130   0.756   7.517  1.5299 -2.3731  2.7195
  162SAPE  C21218189   3.201   0.811   7.706  0.2230  0.0298  0.1223
  162SAPE  H12R18190   3.145   0.723   7.742 -2.4074  1.6911  0.3640
  162SAPE  C21318191   3.276   0.901   7.803  0.0866 -0.7482 -0.1185
  162SAPE  H13R18192   3.208   0.981   7.837 -1.3203 -1.8955 -0.1416
  162SAPE  H13S18193   3.355   0.963   7.755 -1.3075  0.3683 -1.0302
  162SAPE  C21418194   3.322   0.822   7.923  0.7697  0.5690 -0.2684
  162SAPE  H14R18195   3.247   0.775   7.989  2.0712 -0.9064  0.2392
  162SAPE  C21518196   3.447   0.791   7.959 -0.2922 -0.5446 -0.0297
  162SAPE  H15R18197   3.465   0.736   8.052 -4.6593  1.1141  2.0670
  162SAPE  C21618198   3.568   0.839   7.884  0.3050 -0.2489  0.2876
  162SAPE  H16R18199   3.654   0.857   7.952  1.7074  0.3011 -1.5464
  162SAPE  H16S18200   3.549   0.935   7.831  0.9334  0.2205  0.8802
  162SAPE  C21718201   3.620   0.737   7.785  0.8046 -0.0976 -0.2647
  162SAPE  H17R18202   3.565   0.727   7.689 -1.3019 -1.6054  1.0185
  162SAPE  H17S18203   3.622   0.639   7.836  0.0346  0.9324  1.8725
  162SAPE  C21818204   3.760   0.775   7.738  0.8084  0.6524  0.4538
  162SAPE  H18R18205   3.820   0.804   7.827  3.9222  1.2099 -1.6387
  162SAPE  H18S18206   3.755   0.864   7.671 -1.7506  0.5200  0.3727
  162SAPE  C21918207   3.839   0.672   7.669 -1.1754  0.3383 -0.3582
  162SAPE  H19R18208   3.810   0.569   7.697 -0.7933 -0.0301 -1.2917
  162SAPE  H19S18209   3.939   0.696   7.712 -0.8472  0.1887 -1.0335
  162SAPE  C22018210   3.827   0.670   7.514  0.1280 -0.3029 -0.2237
  162SAPE  H20R18211   3.892   0.590   7.472 -0.1981 -1.0520  0.6742
  162SAPE  H20S18212   3.837   0.769   7.463  1.5008  0.4781  1.4463
  162SAPE  H20T18213   3.720   0.645   7.500 -0.1195  1.4255 -1.9302
  162SAPE   C3318214   3.005   1.447   6.897 -0.2573 -1.2347  0.1264
  162SAPE   H3X18215   3.105   1.492   6.914 -1.9451  2.4596  1.2044
  162SAPE   H3Y18216   3.027   1.343   6.863  1.5149 -1.3717  1.5396
  162SAPE   C3418217   2.926   1.454   7.026  0.0950 -0.7938 -0.6130
  162SAPE   H4X18218   2.863   1.363   7.019  1.5785 -1.9006 -0.1911
  162SAPE   H4Y18219   2.863   1.543   7.044  1.7538 -0.1067  2.6493
  162SAPE   C3518220   3.022   1.457   7.156  0.3882  1.0413  0.6659
  162SAPE   H5X18221   3.064   1.559   7.167 -0.5611  1.4217  0.8214
  162SAPE   H5Y18222   3.105   1.385   7.137 -0.6766  0.0942 -0.5733
  162SAPE   C3618223   2.944   1.403   7.274 -0.2906 -0.4330  0.0051
  162SAPE   H6X18224   2.912   1.300   7.248 -1.6602  0.0031 -0.1046
  162SAPE   H6Y18225   2.858   1.470   7.294 -0.7921 -0.3505 -2.1736
  162SAPE   C3718226   3.037   1.397   7.400  0.6926 -1.1267  0.1376
  162SAPE   H7X18227   3.085   1.497   7.408 -0.9601  0.4168 -4.9025
  162SAPE   H7Y18228   3.117   1.324   7.378  0.2336 -1.7352  0.4454
  162SAPE   C3818229   2.960   1.359   7.528  0.0450  1.1123  0.7394
  162SAPE   H8X18230   2.927   1.254   7.533 -1.2417  1.4978  0.7028
  162SAPE   H8Y18231   2.865   1.414   7.514 -0.3035 -0.1889 -3.3394
  162SAPE   C3918232   3.040   1.383   7.654  0.0147 -0.5806  0.0366
  162SAPE   H9X18233   2.974   1.392   7.743 -0.0875 -0.3084 -0.0659
  162SAPE   H9Y18234   3.089   1.482   7.646  1.7620 -1.4939 -1.1634
  162SAPE  C31018235   3.146   1.270   7.684  0.1524 -0.0306  0.6670
  162SAPE  H10X18236   3.208   1.251   7.594  1.1057  0.2844  1.2453
  162SAPE  H10Y18237   3.090   1.175   7.702 -1.7259  1.0546  0.7527
  162SAPE  C31118238   3.236   1.289   7.808  0.5331 -0.2292 -0.4240
  162SAPE  H11X18239   3.295   1.196   7.825  1.1255  0.0945 -0.6668
  162SAPE  H11Y18240   3.172   1.300   7.898  2.4729 -0.1461  1.0065
  162SAPE  C31218241   3.319   1.424   7.815  0.0540 -0.8035 -0.0767
  162SAPE  H12X18242   3.241   1.501   7.835 -0.7069 -1.7767  0.8217
  162SAPE  H12Y18243   3.375   1.445   7.721 -1.7663  0.1610 -1.0106
  162SAPE  C31318244   3.408   1.409   7.936 -0.4149 -0.2386  1.1312
  162SAPE  H13X18245   3.485   1.335   7.907  0.2056  1.4185 -1.9198
  162SAPE  H13Y18246   3.350   1.376   8.025  1.5454 -0.2067  2.4908
  162SAPE  C31418247   3.475   1.538   7.986  0.8384 -0.4947  0.3599
  162SAPE  H14X18248   3.396   1.614   8.003  0.0822 -0.7686 -1.6761
  162SAPE  H14Y18249   3.541   1.561   7.899 -0.1522  2.2248  0.2377
  162SAPE  C31518250   3.576   1.530   8.103  0.0513  0.4500  0.4242
  162SAPE  H15X18251   3.651   1.612   8.098  1.0355 -0.5029 -1.5823
  162SAPE  H15Y18252   3.630   1.433   8.093  1.4797  1.3295 -0.7619
  162SAPE  C31618253   3.506   1.534   8.239 -0.3219 -0.0763  0.4656
  162SAPE  H16X18254   3.454   1.435   8.245  1.4882 -1.1018 -0.1416
  162SAPE  H16Y18255   3.421   1.606   8.232 -2.5508 -2.5561  0.2252
  162SAPE  C31718256   3.588   1.546   8.373 -1.0217  0.3454  0.5672
  162SAPE  H17X18257   3.529   1.597   8.452 -2.7267 -2.7034  1.4142
  162SAPE  H17Y18258   3.666   1.620   8.344 -0.7168 -0.3707 -0.4957
  162SAPE  C31818259   3.654   1.413   8.413  0.1048 -0.2952  0.0001
  162SAPE  H18X18260   3.571   1.350   8.451  1.6226 -2.8268 -0.6272
  162SAPE  H18Y18261   3.722   1.441   8.497  0.3045 -1.4903  0.2527
  162SAPE  H18Z18262   3.725   1.368   8.341  2.5443  0.5362  1.7591
  163SAPE     N18263   1.304   6.266   6.705 -0.0652 -0.4906  0.2722
  163SAPE   HN118264   1.361   6.329   6.765  0.5738 -0.4404 -0.3753
  163SAPE   HN218265   1.204   6.293   6.717  0.6003  1.4286  2.0149
  163SAPE   HN318266   1.324   6.168   6.734  2.0811 -0.3784 -0.6510
  163SAPE   C1218267   1.334   6.281   6.558  0.2740 -0.0686  0.5455
  163SAPE  H12A18268   1.360   6.387   6.533 -2.4193  0.9068  1.4937
  163SAPE  H12B18269   1.247   6.251   6.497  0.6374  2.1251 -1.2063
  163SAPE   C1118270   1.457   6.192   6.514 -0.2060 -0.5077 -0.0297
  163SAPE  H11A18271   1.478   6.217   6.407  1.7710  1.6799  0.7836
  163SAPE  H11B18272   1.424   6.087   6.503  0.1411 -0.7004  0.7748
  163SAPE     P18273   1.673   6.323   6.599  0.1916  0.0529  0.3688
  163SAPE   O1318274   1.797   6.274   6.538 -1.0653  0.1992  0.0188
  163SAPE   O1418275   1.600   6.440   6.547  0.1383 -0.1480  0.1884
  163SAPE   O1218276   1.575   6.204   6.604 -0.4355  0.2181 -0.4834
  163SAPE   O1118277   1.690   6.332   6.763  0.1449 -0.5097  0.5580
  163SAPE    C118278   1.735   6.223   6.830 -1.0423 -0.1529  0.4345
  163SAPE    HA18279   1.660   6.141   6.830  0.8691 -1.9936 -0.5984
  163SAPE    HB18280   1.831   6.183   6.790 -1.6374  0.8834 -2.2518
  163SAPE    C218281   1.767   6.266   6.981  0.1798  0.4680  0.0820
  163SAPE    HS18282   1.852   6.336   6.969 -0.4313  0.7581 -3.9034
  163SAPE   O2118283   1.786   6.151   7.061 -0.3970  0.0770  0.1776
  163SAPE   C2118284   1.913   6.125   7.085  0.7409  0.1805 -0.1585
  163SAPE   O2218285   2.008   6.192   7.050 -0.0293 -0.3339  0.6002
  163SAPE   C2218286   1.923   5.995   7.164 -0.0425  0.9406 -0.3330
  163SAPE   H2R18287   1.940   5.914   7.089  0.6228  2.1514 -1.5371
  163SAPE   H2S18288   2.024   6.009   7.208  0.5979  1.4772 -1.8931
  163SAPE    C318289   1.648   6.348   7.037  0.2459 -0.2408  0.2287
  163SAPE    HX18290   1.554   6.293   7.014 -1.4833  3.5927 -2.9633
  163SAPE    HY18291   1.639   6.443   6.980  0.7861 -0.6405 -0.5520
  163SAPE   O3118292   1.665   6.363   7.175 -0.5951  0.0880  0.3395
  163SAPE   C3118293   1.577   6.439   7.238 -0.0400  0.9822 -0.0166
  163SAPE   O3218294   1.473   6.482   7.188 -0.1277  1.0428  0.1195
  163SAPE   C3218295   1.633   6.456   7.374  0.3209 -0.2113  0.5061
  163SAPE   H2X18296   1.742   6.479   7.378  0.2456  0.2249  0.1910
  163SAPE   H2Y18297   1.610   6.369   7.438  0.4584 -0.2685  0.4784
  163SAPE   C2318298   1.806   5.967   7.265 -0.0620  1.0424  0.3804
  163SAPE   H3R18299   1.831   5.861   7.291 -3.7950 -0.5042 -1.5989
  163SAPE   H3S18300   1.714   5.959   7.204 -0.7084  1.6336  1.2561
  163SAPE   C2418301   1.789   6.066   7.378  0.0744 -0.7397 -0.3193
  163SAPE   H4R18302   1.690   6.048   7.426 -0.1701  1.9272  0.3485
  163SAPE   H4S18303   1.775   6.167   7.334 -1.2851 -1.2311 -1.0723
  163SAPE   C2518304   1.903   6.077   7.471 -0.1919 -0.0908  0.3098
  163SAPE   H5R18305   2.001   6.063   7.424 -0.1108  1.5865 -0.1067
  163SAPE   C2618306   1.900   6.092   7.606 -0.4556  0.4964  0.5793
  163SAPE   H6R18307   1.993   6.099   7.664 -0.1441 -3.0844  0.7070
  163SAPE   C2718308   1.776   6.099   7.687 -0.1359  0.0005 -0.2594
  163SAPE   H7R18309   1.727   6.000   7.695 -1.6307  0.8415  1.6546
  163SAPE   H7S18310   1.701   6.161   7.633 -0.7307 -0.0367  0.5135
  163SAPE   C2818311   1.800   6.128   7.832  0.7293  0.3354  0.8729
  163SAPE   H8R18312   1.902   6.101   7.862  0.4893 -2.8587 -0.8090
  163SAPE   C2918313   1.710   6.166   7.919  0.5752  0.3441 -0.0391
  163SAPE   H9R18314   1.743   6.182   8.023  0.3954 -1.2708  0.2922
  163SAPE  C21018315   1.558   6.182   7.891  0.2763 -0.9037  0.0398
  163SAPE  H10R18316   1.541   6.086   7.837  0.3495 -1.5397  1.1199
  163SAPE  H10S18317   1.515   6.260   7.824 -0.7063  2.1986  3.9051
  163SAPE  C21118318   1.466   6.178   8.010 -0.1687  0.0556 -0.0637
  163SAPE  H11R18319   1.389   6.256   8.000 -0.4132 -0.2724 -0.8592
  163SAPE  C21218320   1.449   6.092   8.109 -0.4665 -0.8696 -0.4120
  163SAPE  H12R18321   1.370   6.114   8.182 -0.6920  0.1165 -0.9246
  163SAPE  C21318322   1.532   5.965   8.127  0.6154  0.3124 -0.0208
  163SAPE  H13R18323   1.587   5.975   8.222  0.2586  1.0918  0.1072
  163SAPE  H13S18324   1.612   5.971   8.050  0.8068  0.6051  0.2024
  163SAPE  C21418325   1.434   5.848   8.109 -0.1431 -0.0372 -0.7948
  163SAPE  H14R18326   1.413   5.827   8.004  2.4994  0.2915 -1.4597
  163SAPE  C21518327   1.378   5.772   8.204 -0.7644 -0.6054 -0.0859
  163SAPE  H15R18328   1.308   5.694   8.172  1.2510 -2.5462 -0.0594
  163SAPE  C21618329   1.395   5.789   8.356  0.4991  0.4645  0.3318
  163SAPE  H16R18330   1.427   5.890   8.388  0.5570 -0.5510  3.9289
  163SAPE  H16S18331   1.461   5.714   8.404 -0.5663 -1.2519 -0.7600
  163SAPE  C21718332   1.259   5.748   8.423  1.0585 -0.1140  0.2256
  163SAPE  H17R18333   1.277   5.748   8.532 -0.3277  1.1040  0.4914
  163SAPE  H17S18334   1.225   5.646   8.395  0.2688  0.4683 -1.0316
  163SAPE  C21818335   1.148   5.849   8.400 -0.7171  0.3478  0.3819
  163SAPE  H18R18336   1.121   5.861   8.293  1.0530 -0.8180 -0.2508
  163SAPE  H18S18337   1.191   5.945   8.434 -0.4022 -0.1989  1.5720
  163SAPE  C21918338   1.021   5.830   8.487 -0.2803  0.5171  0.3669
  163SAPE  H19R18339   0.952   5.905   8.443  0.8625 -0.0774 -2.6625
  163SAPE  H19S18340   1.045   5.854   8.593 -2.3863  0.1623  0.9527
  163SAPE  C22018341   0.945   5.699   8.450  0.1877 -0.3357 -0.2051
  163SAPE  H20R18342   0.840   5.703   8.488  0.1337 -1.0317 -0.2624
  163SAPE  H20S18343   0.992   5.606   8.488  1.3573  0.8604  1.4225
  163SAPE  H20T18344   0.931   5.705   8.340 -1.4406  0.3687  0.0041
  163SAPE   C3318345   1.548   6.571   7.438 -1.0388  0.1742  0.9714
  163SAPE   H3X18346   1.441   6.544   7.429 -0.8661 -0.4257  0.6727
  163SAPE   H3Y18347   1.549   6.671   7.390 -2.3576 -0.3578 -0.2526
  163SAPE   C3418348   1.580   6.577   7.590  0.5042 -0.3297 -0.7126
  163SAPE   H4X18349   1.550   6.479   7.631 -0.8790 -0.9881 -3.0930
  163SAPE   H4Y18350   1.515   6.656   7.634  0.1708 -0.6452 -0.6371
  163SAPE   C3518351   1.724   6.607   7.626 -0.2751  0.1550 -0.5994
  163SAPE   H5X18352   1.750   6.684   7.550 -3.8030  1.1202 -0.9928
  163SAPE   H5Y18353   1.779   6.511   7.615  1.1404  0.5498  2.0901
  163SAPE   C3618354   1.743   6.672   7.762  1.1821  0.5799  0.0796
  163SAPE   H6X18355   1.718   6.780   7.764  1.3019  0.6189 -0.4780
  163SAPE   H6Y18356   1.851   6.679   7.786  1.1254  1.3945  0.1152
  163SAPE   C3718357   1.679   6.587   7.875  0.3434 -0.2999  0.0981
  163SAPE   H7X18358   1.724   6.487   7.895  1.6925 -0.3158 -2.5378
  163SAPE   H7Y18359   1.572   6.564   7.852  0.3342 -1.1147  0.8844
  163SAPE   C3818360   1.663   6.670   8.007  0.7172  0.5944  0.2443
  163SAPE   H8X18361   1.633   6.774   7.985 -0.6467  0.0155 -0.7534
  163SAPE   H8Y18362   1.767   6.665   8.048  0.5902 -1.1608  0.4143
  163SAPE   C3918363   1.553   6.600   8.093  0.6789 -0.1020  0.8947
  163SAPE   H9X18364   1.584   6.494   8.104  1.2585 -0.2125 -1.3897
  163SAPE   H9Y18365   1.458   6.611   8.036  1.7514 -0.3051 -1.0273
  163SAPE  C31018366   1.545   6.660   8.231  0.2035 -1.2374  0.1806
  163SAPE  H10X18367   1.521   6.767   8.216 -1.0392 -1.3098  1.4798
  163SAPE  H10Y18368   1.638   6.642   8.290 -0.5180 -0.5645  1.5728
  163SAPE  C31118369   1.427   6.596   8.311 -0.2935 -0.3776  0.1282
  163SAPE  H11X18370   1.442   6.486   8.308 -1.2442 -0.5122 -2.0593
  163SAPE  H11Y18371   1.335   6.629   8.256  0.6112  3.4456  0.5910
  163SAPE  C31218372   1.421   6.639   8.455 -0.3383  0.0028  0.1764
  163SAPE  H12X18373   1.377   6.741   8.463  1.4850  0.9291 -0.9738
  163SAPE  H12Y18374   1.525   6.651   8.493  0.9649  0.4217 -3.2188
  163SAPE  C31318375   1.322   6.548   8.524  0.1332  0.2012  0.9368
  163SAPE  H13X18376   1.349   6.445   8.491  1.7238 -0.0267  2.7531
  163SAPE  H13Y18377   1.221   6.564   8.480  0.6034 -0.3259 -0.4035
  163SAPE  C31418378   1.326   6.573   8.671  0.3623 -0.1970 -0.0442
  163SAPE  H14X18379   1.263   6.661   8.694  0.2272 -0.5072  0.8050
  163SAPE  H14Y18380   1.427   6.598   8.709  0.0746 -0.7348  1.1153
  163SAPE  C31518381   1.276   6.454   8.755 -0.3408  0.0256 -0.8582
  163SAPE  H15X18382   1.346   6.373   8.725  1.3363  1.0325  0.1431
  163SAPE  H15Y18383   1.177   6.425   8.714 -0.8241 -0.8865  0.8805
  163SAPE  C31618384   1.265   6.481   8.903  1.1832  0.4635 -0.4177
  163SAPE  H16X18385   1.205   6.575   8.906  0.0593 -0.2123 -0.8755
  163SAPE  H16Y18386   1.363   6.500   8.950  1.3289  0.2252 -0.6258
  163SAPE  C31718387   1.194   6.374   8.983  0.2355 -0.0316 -0.4536
  163SAPE  H17X18388   1.084   6.389   8.978  0.1657  0.6752  2.0458
  163SAPE  H17Y18389   1.229   6.396   9.086  0.9444  0.5088 -0.8002
  163SAPE  C31818390   1.217   6.232   8.938  0.6821  0.2058  0.2557
  163SAPE  H18X18391   1.324   6.201   8.931 -0.0743 -3.1032  1.7150
  163SAPE  H18Y18392   1.162   6.208   8.845 -1.6733  0.7000  1.4421
  163SAPE  H18Z18393   1.182   6.151   9.005 -2.1378  1.6439  0.6369
  164SAPE     N18394   5.519   0.042   6.046  0.0891  0.8068 -0.0192
  164SAPE   HN118395   5.537  -0.003   5.954  1.2884  0.1935  0.4996
  164SAPE   HN218396   5.416   0.046   6.062  0.4106  1.2844  2.2704
  164SAPE   HN318397   5.554   0.139   6.036  0.6940  0.5544 -0.3981
  164SAPE   C1218398   5.575  -0.034   6.166 -0.2211 -0.1417  0.4179
  164SAPE  H12A18399   5.599   0.041   6.244 -1.3898  1.9546 -1.1365
  164SAPE  H12B18400   5.673  -0.080   6.145  0.4343  0.7933  1.3483
  164SAPE   C1118401   5.487  -0.150   6.223  1.2149  0.4248 -0.4617
  164SAPE  H11A18402   5.525  -0.190   6.320 -1.6775 -3.1461 -0.5915
  164SAPE  H11B18403   5.493  -0.237   6.154 -0.0118 -0.1662  0.1436
  164SAPE     P18404   5.231  -0.178   6.248  0.1031 -0.0183  0.0024
  164SAPE   O1318405   5.123  -0.081   6.263 -0.3531 -0.2000 -0.4188
  164SAPE   O1418406   5.206  -0.281   6.141 -0.1904 -0.3134 -0.1655
  164SAPE   O1218407   5.357  -0.092   6.218  0.1038 -0.3535  0.0137
  164SAPE   O1118408   5.278  -0.230   6.387 -0.5449 -0.1886  0.1564
  164SAPE    C118409   5.199  -0.262   6.502 -0.1149 -0.5042 -0.8122
  164SAPE    HA18410   5.091  -0.265   6.477  0.3116 -1.8611 -2.6860
  164SAPE    HB18411   5.231  -0.360   6.545 -1.1161  0.0052  1.2378
  164SAPE    C218412   5.207  -0.148   6.604 -0.0551 -0.5299 -0.6252
  164SAPE    HS18413   5.173  -0.053   6.557  1.6100 -0.0973 -1.0253
  164SAPE   O2118414   5.344  -0.152   6.637 -0.8241 -0.1627  0.0233
  164SAPE   C2118415   5.407  -0.043   6.604  0.0648 -0.1724  0.2260
  164SAPE   O2218416   5.355   0.061   6.567 -0.6784  0.3584 -0.1661
  164SAPE   C2218417   5.553  -0.056   6.634 -0.0824  0.8344  0.3411
  164SAPE   H2R18418   5.564  -0.145   6.701 -1.4670  1.3605  1.3175
  164SAPE   H2S18419   5.607  -0.071   6.539  0.8237  0.4084  0.9049
  164SAPE    C318420   5.118  -0.181   6.725 -0.0831 -0.0123 -1.4348
  164SAPE    HX18421   5.148  -0.285   6.751  1.5979  0.5790 -0.8561
  164SAPE    HY18422   5.009  -0.193   6.705 -0.1471 -1.9657 -0.2086
  164SAPE   O3118423   5.140  -0.103   6.846  0.1368  0.4535 -0.7277
  164SAPE   C3118424   5.101   0.025   6.839  0.1056  0.3656  0.0392
  164SAPE   O3218425   5.068   0.077   6.736  0.4633  0.2262 -0.4141
  164SAPE   C3218426   5.138   0.090   6.973 -0.4862  0.0533 -0.4588
  164SAPE   H2X18427   5.249   0.081   6.985 -0.3329  1.0628 -1.0942
  164SAPE   H2Y18428   5.088   0.018   7.041  0.1060  0.0265 -0.0357
  164SAPE   C2318429   5.617   0.054   6.713 -1.1619  0.0331  0.3406
  164SAPE   H3R18430   5.610   0.158   6.674  2.6396  0.3715  0.2230
  164SAPE   H3S18431   5.727   0.043   6.710 -1.1688 -0.0060  0.2154
  164SAPE   C2418432   5.569   0.045   6.858  0.3062  0.4542 -0.1053
  164SAPE   H4R18433   5.572  -0.060   6.893  0.1846  0.0443 -1.3041
  164SAPE   H4S18434   5.462   0.070   6.871 -0.5619 -2.3256 -1.3289
  164SAPE   C2518435   5.654   0.133   6.939 -0.2495  0.0418  0.1837
  164SAPE   H5R18436   5.742   0.083   6.982 -0.4631 -1.1620 -0.7207
  164SAPE   C2618437   5.634   0.264   6.952  0.1543 -0.1122 -0.6977
  164SAPE   H6R18438   5.692   0.333   7.017  0.1442 -2.0610  1.4941
  164SAPE   C2718439   5.518   0.346   6.899 -0.8637  0.7573 -0.0558
  164SAPE   H7R18440   5.440   0.367   6.976 -1.1411  0.3980 -0.2330
  164SAPE   H7S18441   5.459   0.290   6.823 -0.4513  0.0811  0.1082
  164SAPE   C2818442   5.555   0.473   6.834  0.8842 -0.7413  0.1526
  164SAPE   H8R18443   5.556   0.476   6.724  1.2054  0.9367  0.1800
  164SAPE   C2918444   5.597   0.583   6.897 -0.4549  0.4681  0.4247
  164SAPE   H9R18445   5.615   0.669   6.832 -0.5229  0.9131  0.9871
  164SAPE  C21018446   5.622   0.612   7.040  0.4916  0.1795  0.1308
  164SAPE  H10R18447   5.561   0.539   7.097 -0.1492  0.5020 -0.1300
  164SAPE  H10S18448   5.567   0.707   7.056 -1.0986 -1.2294  4.4407
  164SAPE  C21118449   5.761   0.597   7.090 -1.3013  0.2780 -0.9625
  164SAPE  H11R18450   5.843   0.607   7.017  0.3386 -0.4024  0.7006
  164SAPE  C21218451   5.813   0.582   7.214 -0.3013  0.4601  0.2680
  164SAPE  H12R18452   5.920   0.561   7.223 -0.1804  0.3964 -1.1387
  164SAPE  C21318453   5.725   0.588   7.338  0.5541 -0.3889 -0.3727
  164SAPE  H13R18454   5.750   0.504   7.406  2.1884  0.7313  0.5050
  164SAPE  H13S18455   5.621   0.589   7.299  0.4693  1.4334 -0.1787
  164SAPE  C21418456   5.749   0.720   7.407 -0.0558  0.6242  0.2202
  164SAPE  H14R18457   5.693   0.808   7.370  0.4169  1.5306  1.5736
  164SAPE  C21518458   5.832   0.746   7.511  0.4969  0.1020 -0.6861
  164SAPE  H15R18459   5.824   0.842   7.564 -0.7762 -2.1453  3.6108
  164SAPE  C21618460   5.917   0.650   7.586  0.1757  0.4884 -0.4674
  164SAPE  H16R18461   6.022   0.682   7.599  0.4588 -0.5473 -0.1108
  164SAPE  H16S18462   5.920   0.549   7.539  1.5855  0.2566  0.0715
  164SAPE  C21718463   5.850   0.621   7.722 -0.5176  0.4414 -0.2452
  164SAPE  H17R18464   5.902   0.529   7.756  0.3003  1.5999  1.7610
  164SAPE  H17S18465   5.745   0.588   7.707 -0.2814 -0.2474 -0.4396
  164SAPE  C21818466   5.874   0.724   7.823  0.4690  0.6720 -0.3358
  164SAPE  H18R18467   5.827   0.819   7.788 -1.3596 -0.5062 -1.1793
  164SAPE  H18S18468   5.985   0.738   7.819  0.7220 -1.3553 -3.8063
  164SAPE  C21918469   5.820   0.676   7.963  0.1866 -0.1243 -0.3579
  164SAPE  H19R18470   5.858   0.577   7.996  0.9534  0.4591  0.5831
  164SAPE  H19S18471   5.711   0.663   7.947 -0.0642  0.7385  0.5393
  164SAPE  C22018472   5.849   0.779   8.075  0.0313 -0.0897 -0.0280
  164SAPE  H20R18473   5.960   0.784   8.080  0.1985 -2.7289  0.7230
  164SAPE  H20S18474   5.801   0.756   8.172  0.9755  2.2662  1.0543
  164SAPE  H20T18475   5.803   0.875   8.045  1.5577  0.5941 -0.3065
  164SAPE   C3318476   5.104   0.231   7.006 -0.1767  0.2229 -0.2492
  164SAPE   H3X18477   5.026   0.265   6.935  0.7612  0.3478 -1.2440
  164SAPE   H3Y18478   5.193   0.293   6.984 -1.2717  1.9998  0.1142
  164SAPE   C3418479   5.049   0.256   7.148  0.0198  0.1993 -0.8505
  164SAPE   H4X18480   5.050   0.362   7.180 -0.0941  0.4259 -1.5809
  164SAPE   H4Y18481   5.115   0.196   7.214 -0.5281  0.2989 -0.2007
  164SAPE   C3518482   4.900   0.213   7.184  0.1169 -0.3244  0.0758
  164SAPE   H5X18483   4.877   0.112   7.145  1.5790 -0.7679  0.3075
  164SAPE   H5Y18484   4.852   0.296   7.129  1.2478  0.6305  0.4771
  164SAPE   C3618485   4.869   0.222   7.334 -0.1234  0.0826  0.0173
  164SAPE   H6X18486   4.888   0.321   7.381  2.8655  0.2544 -1.3697
  164SAPE   H6Y18487   4.921   0.140   7.388  0.3653  1.3257  1.4759
  164SAPE   C3718488   4.718   0.181   7.332  0.0860  0.0227 -0.7007
  164SAPE   H7X18489   4.710   0.082   7.281 -1.4116 -0.6949  0.8091
  164SAPE   H7Y18490   4.658   0.249   7.267 -0.6321 -0.0204 -0.0964
  164SAPE   C3818491   4.664   0.176   7.470  0.0630  0.9257  0.2157
  164SAPE   H8X18492   4.662   0.276   7.519 -0.1960  0.5096  1.0693
  164SAPE   H8Y18493   4.724   0.108   7.534 -0.1774  0.4266 -0.0876
  164SAPE   C3918494   4.506   0.144   7.481  0.1508 -0.5970  0.1452
  164SAPE   H9X18495   4.472   0.134   7.586 -2.2299  1.0023 -0.3720
  164SAPE   H9Y18496   4.495   0.042   7.440  1.0887 -0.8768  0.5611
  164SAPE  C31018497   4.403   0.247   7.421 -0.5391  0.4968 -0.4093
  164SAPE  H10X18498   4.305   0.196   7.431  0.5474 -1.6866 -0.3264
  164SAPE  H10Y18499   4.428   0.246   7.313  2.6614 -3.1061  0.1372
  164SAPE  C31118500   4.415   0.388   7.472  0.6534  0.5363  0.3024
  164SAPE  H11X18501   4.363   0.460   7.406 -1.4357 -0.3391  0.9106
  164SAPE  H11Y18502   4.522   0.418   7.481  0.6894  0.1589  1.3366
  164SAPE  C31218503   4.352   0.418   7.614 -0.1607  0.5324  0.0254
  164SAPE  H12X18504   4.402   0.513   7.642 -0.1614  1.1675 -2.0161
  164SAPE  H12Y18505   4.362   0.326   7.675 -1.9399  1.5718  2.0103
  164SAPE  C31318506   4.205   0.466   7.610  0.6419  0.7760  0.4436
  164SAPE  H13X18507   4.144   0.390   7.557 -0.4932  0.2629  2.3965
  164SAPE  H13Y18508   4.204   0.564   7.558 -1.0223 -0.1033 -1.3113
  164SAPE  C31418509   4.141   0.494   7.757  0.0466  0.3420  0.5201
  164SAPE  H14X18510   4.170   0.404   7.814 -0.6818 -2.2177 -2.8076
  164SAPE  H14Y18511   4.030   0.495   7.760 -0.0654 -1.4595 -1.0041
  164SAPE  C31518512   4.199   0.606   7.827 -0.1010 -0.3596  0.5341
  164SAPE  H15X18513   4.180   0.698   7.767  1.8696 -1.7918 -2.5342
  164SAPE  H15Y18514   4.310   0.602   7.840  0.3043  2.7360 -0.9724
  164SAPE  C31618515   4.137   0.625   7.970  0.1990 -0.2166  0.2597
  164SAPE  H16X18516   4.161   0.534   8.029  1.5540 -0.5377 -0.7366
  164SAPE  H16Y18517   4.026   0.627   7.961  0.0151 -2.1323  1.4772
  164SAPE  C31718518   4.185   0.751   8.040  0.0078  0.2313 -0.4744
  164SAPE  H17X18519   4.295   0.749   8.052 -0.0427  1.3997  0.3622
  164SAPE  H17Y18520   4.133   0.745   8.138  2.6874 -1.1737  0.9546
  164SAPE  C31818521   4.149   0.882   7.970  0.3649  0.3281  0.4078
  164SAPE  H18X18522   4.197   0.883   7.870 -0.0850 -0.9547  0.1732
  164SAPE  H18Y18523   4.185   0.971   8.026 -0.1332  0.6569  0.2116
  164SAPE  H18Z18524   4.039   0.890   7.965  0.4635  1.0710 -2.8594
  165SAPE     N18525   3.793   0.449   6.325  0.6693 -0.0752  0.2513
  165SAPE   HN118526   3.878   0.416   6.275  0.2405  1.0705 -1.3140
  165SAPE   HN218527   3.707   0.430   6.270  1.6324  1.2451 -1.8439
  165SAPE   HN318528   3.801   0.553   6.321  1.3625  0.1211  3.5527
  165SAPE   C1218529   3.785   0.399   6.468  0.2648 -0.3362  0.5266
  165SAPE  H12A18530   3.873   0.443   6.519  0.2680  0.1491  0.1181
  165SAPE  H12B18531   3.798   0.289   6.474  0.6875 -0.2269  1.8948
  165SAPE   C1118532   3.657   0.445   6.539 -0.3450  0.2711 -0.1236
  165SAPE  H11A18533   3.673   0.555   6.547  2.5015 -0.0827  0.1215
  165SAPE  H11B18534   3.655   0.410   6.644  3.0496  1.3029  0.4137
  165SAPE     P18535   3.409   0.461   6.511 -0.2343 -0.0437  0.0345
  165SAPE   O1318536   3.415   0.607   6.486  0.2778 -0.0620  0.2678
  165SAPE   O1418537   3.296   0.384   6.448 -0.6364 -0.1371 -0.3031
  165SAPE   O1218538   3.542   0.403   6.473 -0.0920  0.7032 -0.2503
  165SAPE   O1118539   3.405   0.454   6.667 -0.3534 -0.1176 -0.1137
  165SAPE    C118540   3.393   0.336   6.740 -0.2966  0.4023  0.4615
  165SAPE    HA18541   3.289   0.305   6.763 -0.2400  0.6481  1.0634
  165SAPE    HB18542   3.448   0.250   6.696 -1.5905 -0.2659  0.1050
  165SAPE    C218543   3.427   0.369   6.892 -0.1827  0.4509 -0.0978
  165SAPE    HS18544   3.538   0.376   6.902  0.1292 -0.0529 -2.4518
  165SAPE   O2118545   3.372   0.265   6.972 -0.0432  0.1551  0.1493
  165SAPE   C2118546   3.454   0.156   6.989 -0.1471  0.0002 -0.8348
  165SAPE   O2218547   3.575   0.153   6.985 -0.7751  0.0877 -0.8669
  165SAPE   C2218548   3.369   0.043   7.039  0.3366  0.4002 -0.4697
  165SAPE   H2R18549   3.311   0.016   6.949  0.9649 -0.5783 -0.5977
  165SAPE   H2S18550   3.435  -0.043   7.065  0.3944  0.4248 -0.5378
  165SAPE    C318551   3.374   0.503   6.940 -0.0625 -0.6060 -0.3439
  165SAPE    HX18552   3.265   0.491   6.927 -0.0683 -2.8193  1.2370
  165SAPE    HY18553   3.413   0.577   6.866  1.5441 -2.4994 -1.4832
  165SAPE   O3118554   3.423   0.533   7.076 -0.7041 -0.1805 -0.1968
  165SAPE   C3118555   3.552   0.555   7.100 -0.4145  0.0849 -0.2558
  165SAPE   O3218556   3.643   0.561   7.022 -0.4384 -0.8560 -0.1579
  165SAPE   C3218557   3.569   0.569   7.256 -0.6991 -0.0800  0.2403
  165SAPE   H2X18558   3.540   0.675   7.271  0.1597  0.5161 -1.9648
  165SAPE   H2Y18559   3.673   0.549   7.289 -0.3993 -0.1214 -0.7093
  165SAPE   C2318560   3.266   0.060   7.155 -0.1720 -0.8106  0.2702
  165SAPE   H3R18561   3.176   0.109   7.111  0.5401 -2.1079 -2.8722
  165SAPE   H3S18562   3.306   0.127   7.234  3.0940 -1.0922 -1.0215
  165SAPE   C2418563   3.219  -0.072   7.222  0.8545  0.5220  0.9056
  165SAPE   H4R18564   3.310  -0.106   7.276  0.7714 -0.0234  0.7052
  165SAPE   H4S18565   3.194  -0.144   7.142 -0.6621  0.8563  1.0437
  165SAPE   C2518566   3.098  -0.048   7.308 -0.4881 -0.0896 -0.5094
  165SAPE   H5R18567   3.007  -0.041   7.246  1.1483  2.1366 -2.9044
  165SAPE   C2618568   3.098  -0.033   7.437  0.2175  0.1199 -0.6092
  165SAPE   H6R18569   3.002  -0.031   7.491  0.5456 -1.9450  0.1236
  165SAPE   C2718570   3.215  -0.037   7.528 -0.4163  0.4907 -0.7712
  165SAPE   H7R18571   3.188   0.025   7.616 -1.1226 -0.7290 -0.0968
  165SAPE   H7S18572   3.310   0.007   7.491 -0.0135  0.7431  0.5017
  165SAPE   C2818573   3.248  -0.174   7.582 -0.7593 -0.1019  0.6380
  165SAPE   H8R18574   3.263  -0.252   7.507  0.8458  1.7001 -1.0447
  165SAPE   C2918575   3.250  -0.206   7.714  0.1390 -0.2708 -0.2011
  165SAPE   H9R18576   3.272  -0.310   7.743 -2.0021 -1.6402 -2.9590
  165SAPE  C21018577   3.227  -0.118   7.833 -0.5415  0.2932  0.4969
  165SAPE  H10R18578   3.202  -0.184   7.919 -0.5650 -2.3415 -1.4047
  165SAPE  H10S18579   3.131  -0.062   7.825  0.9109  2.9978  1.1392
  165SAPE  C21118580   3.342  -0.028   7.854 -0.2593  0.6049  0.3797
  165SAPE  H11R18581   3.366   0.031   7.765  1.4237 -0.0133  0.3963
  165SAPE  C21218582   3.421  -0.018   7.959 -0.3912  0.0905 -0.8061
  165SAPE  H12R18583   3.505   0.054   7.952  0.4391 -0.8516 -0.6967
  165SAPE  C21318584   3.422  -0.089   8.094  0.3826  0.2365  0.8358
  165SAPE  H13R18585   3.328  -0.139   8.124  0.7297  0.7248  2.9382
  165SAPE  H13S18586   3.443  -0.011   8.171  2.3879  0.2613  0.3201
  165SAPE  C21418587   3.537  -0.186   8.079  0.5660 -0.3570  0.6963
  165SAPE  H14R18588   3.515  -0.277   8.022 -0.2754  1.8635 -2.8377
  165SAPE  C21518589   3.656  -0.165   8.132 -0.0696 -0.6401  0.5345
  165SAPE  H15R18590   3.743  -0.226   8.105  0.8912  0.6175  0.7393
  165SAPE  C21618591   3.700  -0.042   8.207 -0.0100  0.6508 -0.2324
  165SAPE  H16R18592   3.664  -0.041   8.312 -2.0283 -0.7123 -0.8472
  165SAPE  H16S18593   3.651   0.047   8.163  0.0783  1.6945  1.6695
  165SAPE  C21718594   3.854  -0.030   8.214 -0.2254  0.2654 -0.2560
  165SAPE  H17R18595   3.902  -0.040   8.114 -1.0606  2.9693 -1.0167
  165SAPE  H17S18596   3.897  -0.106   8.282 -0.6886 -0.3429 -0.6349
  165SAPE  C21818597   3.891   0.095   8.295  0.6917  0.0939  0.0947
  165SAPE  H18R18598   3.857   0.074   8.399 -0.0177  0.6847 -0.0080
  165SAPE  H18S18599   3.831   0.182   8.262  0.4145  0.2579  1.0097
  165SAPE  C21918600   4.039   0.133   8.277 -0.5937  0.3126 -0.8920
  165SAPE  H19R18601   4.064   0.125   8.169  2.2833  0.3493 -0.3167
  165SAPE  H19S18602   4.099   0.059   8.334 -0.2492 -0.7390 -2.5638
  165SAPE  C22018603   4.077   0.274   8.322 -0.6942 -0.1715  0.2843
  165SAPE  H20R18604   4.054   0.290   8.429 -1.7836  0.2966 -0.0146
  165SAPE  H20S18605   4.018   0.349   8.265 -0.3076  1.0852  1.4864
  165SAPE  H20T18606   4.186   0.298   8.316 -1.1678  3.5253  2.8937
  165SAPE   C3318607   3.493   0.458   7.332 -0.0086 -0.2161 -1.1867
  165SAPE   H3X18608   3.533   0.362   7.294 -0.2389 -0.3960 -0.9729
  165SAPE   H3Y18609   3.383   0.465   7.315 -0.7210  3.1743  3.0442
  165SAPE   C3418610   3.508   0.434   7.479  0.1163  0.2121  0.2873
  165SAPE   H4X18611   3.613   0.459   7.507  2.1512 -5.0008 -1.2860
  165SAPE   H4Y18612   3.497   0.324   7.496 -1.5419 -0.3415 -3.3921
  165SAPE   C3518613   3.415   0.514   7.560  0.3662 -0.3321 -0.3546
  165SAPE   H5X18614   3.312   0.494   7.524 -0.1873 -1.6064  1.7060
  165SAPE   H5Y18615   3.418   0.622   7.537 -0.3539  0.2568  2.0264
  165SAPE   C3618616   3.422   0.499   7.712 -0.0060 -0.1207  0.0211
  165SAPE   H6X18617   3.380   0.587   7.765 -0.9814  0.3222 -1.4319
  165SAPE   H6Y18618   3.526   0.482   7.749 -1.3738 -2.4246  3.2833
  165SAPE   C3718619   3.352   0.364   7.757  0.7283 -0.0795 -0.3428
  165SAPE   H7X18620   3.417   0.284   7.715  1.0944  0.9329 -1.7908
  165SAPE   H7Y18621   3.255   0.339   7.709  0.1194 -0.2538  0.9356
  165SAPE   C3818622   3.333   0.350   7.914 -0.2370 -0.5752  0.1222
  165SAPE   H8X18623   3.387   0.428   7.972 -2.3525  1.2812 -0.2975
  165SAPE   H8Y18624   3.375   0.249   7.935  0.8367  0.1919  1.8520
  165SAPE   C3918625   3.184   0.359   7.960  0.3161  0.0714  0.6274
  165SAPE   H9X18626   3.190   0.292   8.048 -0.5074  0.8958  1.3334
  165SAPE   H9Y18627   3.118   0.312   7.884 -0.2541 -0.7326  1.5954
  165SAPE  C31018628   3.134   0.493   7.996  0.0851 -0.0286 -0.1342
  165SAPE  H10X18629   3.138   0.566   7.913 -0.1540 -0.0444 -0.1587
  165SAPE  H10Y18630   3.199   0.535   8.076  0.9744 -0.5338 -0.5795
  165SAPE  C31118631   2.993   0.497   8.061  0.5839  0.7852 -0.4161
  165SAPE  H11X18632   2.971   0.417   8.134 -0.6501  0.7038 -0.8575
  165SAPE  H11Y18633   2.916   0.489   7.982 -0.4560  1.1869  0.5417
  165SAPE  C31218634   2.973   0.634   8.117  0.0342 -0.1368 -0.8531
  165SAPE  H12X18635   2.863   0.654   8.113 -0.2586 -1.4189  0.1258
  165SAPE  H12Y18636   3.004   0.699   8.032 -2.3481  2.0076 -0.2198
  165SAPE  C31318637   3.068   0.683   8.234 -0.3991 -0.5560  0.1510
  165SAPE  H13X18638   3.169   0.700   8.192  0.2337  1.9305  2.3837
  165SAPE  H13Y18639   3.078   0.601   8.309  1.1014 -0.5037  0.0309
  165SAPE  C31418640   3.022   0.820   8.295  0.2107  0.4708 -0.6079
  165SAPE  H14X18641   2.923   0.813   8.345  1.8295 -0.7037  2.7153
  165SAPE  H14Y18642   3.014   0.887   8.206 -0.4989  0.3423 -0.6486
  165SAPE  C31518643   3.125   0.871   8.395  0.6929 -0.4689 -0.4648
  165SAPE  H15X18644   3.191   0.784   8.414  0.1270 -1.3137 -2.2004
  165SAPE  H15Y18645   3.072   0.903   8.487 -1.2331  1.1707 -2.0448
  165SAPE  C31618646   3.206   0.995   8.346  0.1327  0.2883  0.3258
  165SAPE  H16X18647   3.138   1.073   8.306 -0.5584 -1.0960 -1.2963
  165SAPE  H16Y18648   3.276   0.975   8.262  0.1790  3.5211 -0.5436
  165SAPE  C31718649   3.293   1.049   8.464 -0.2639 -0.9680  0.2248
  165SAPE  H17X18650   3.360   0.972   8.510 -1.8754 -1.0629  2.6049
  165SAPE  H17Y18651   3.221   1.065   8.547 -0.1624 -0.1643  0.1655
  165SAPE  C31818652   3.366   1.180   8.430  0.0220  0.6134  0.5451
  165SAPE  H18X18653   3.444   1.165   8.352  1.5483  0.2039  2.0653
  165SAPE  H18Y18654   3.422   1.207   8.522  0.9868  2.0503 -0.4196
  165SAPE  H18Z18655   3.298   1.260   8.393 -0.8024 -0.7513 -1.0280
  166SAPE     N18656   5.565   1.757   6.119 -0.0948  0.1332  0.1746
  166SAPE   HN118657   5.652   1.813   6.110 -0.9592  1.5689  0.4603
  166SAPE   HN218658   5.518   1.716   6.035  1.4168 -3.1525  0.7632
  166SAPE   HN318659   5.490   1.819   6.157 -1.1715 -0.0983 -1.4530
  166SAPE   C1218660   5.583   1.641   6.217 -0.2694 -0.6801  0.6424
  166SAPE  H12A18661   5.514   1.657   6.302  0.7370 -0.7425  1.4934
  166SAPE  H12B18662   5.683   1.657   6.262  0.5512 -0.0343 -1.3273
  166SAPE   C1118663   5.578   1.504   6.146 -0.1037  0.1425  0.4757
  166SAPE  H11A18664   5.575   1.422   6.221 -0.3644  1.0112  1.4331
  166SAPE  H11B18665   5.675   1.502   6.091  0.6665 -1.8115  1.7797
  166SAPE     P18666   5.325   1.446   6.091 -0.2594 -0.2498  0.0738
  166SAPE   O1318667   5.264   1.544   6.190 -0.7960 -0.2335  0.5545
  166SAPE   O1418668   5.247   1.418   5.966 -0.3009  0.6448  0.4732
  166SAPE   O1218669   5.471   1.495   6.043  0.1858 -0.0651 -0.6202
  166SAPE   O1118670   5.352   1.303   6.161 -0.2693  0.0674 -0.0507
  166SAPE    C118671   5.242   1.245   6.237  0.0817  1.0127  0.0923
  166SAPE    HA18672   5.141   1.264   6.194 -0.8794 -2.5771  0.4335
  166SAPE    HB18673   5.254   1.135   6.228  1.0287  1.2381 -2.3360
  166SAPE    C218674   5.250   1.285   6.388 -0.1710  0.4547 -0.1631
  166SAPE    HS18675   5.259   1.395   6.395  2.8397  0.3199 -0.5198
  166SAPE   O2118676   5.362   1.220   6.453 -0.0260  0.1757 -0.2323
  166SAPE   C2118677   5.404   1.276   6.558 -0.1002 -0.5267  0.0579
  166SAPE   O2218678   5.380   1.386   6.608 -0.4887 -0.2817 -0.5066
  166SAPE   C2218679   5.491   1.184   6.640  0.7591 -0.7847  0.1975
  166SAPE   H2R18680   5.575   1.149   6.577  0.6530  1.1032 -1.0495
  166SAPE   H2S18681   5.542   1.243   6.719 -0.9950  0.7563  0.2346
  166SAPE    C318682   5.118   1.248   6.461 -0.4180  0.1881 -0.6478
  166SAPE    HX18683   5.105   1.138   6.459  1.4745 -0.0608 -0.7146
  166SAPE    HY18684   5.031   1.285   6.402 -1.8288 -0.3859  0.9762
  166SAPE   O3118685   5.110   1.292   6.597  0.0392 -0.1440  0.1117
  166SAPE   C3118686   5.068   1.421   6.612 -0.5064  0.1996  0.1517
  166SAPE   O3218687   5.039   1.499   6.521 -0.6259 -0.0147 -0.2537
  166SAPE   C3218688   5.059   1.441   6.766  0.4661 -0.6332  0.2453
  166SAPE   H2X18689   5.103   1.355   6.821  0.5399 -1.4253 -0.9937
  166SAPE   H2Y18690   4.951   1.440   6.790  0.5605 -3.0066  0.8635
  166SAPE   C2318691   5.403   1.075   6.705  0.3377 -0.0967  0.5684
  166SAPE   H3R18692   5.466   0.993   6.745 -1.2018 -2.6330 -1.8292
  166SAPE   H3S18693   5.345   1.035   6.619 -0.9673  2.2778  0.2436
  166SAPE   C2418694   5.310   1.121   6.816  0.2863 -0.4462 -0.1916
  166SAPE   H4R18695   5.247   1.043   6.862 -0.5721  1.0622  1.2855
  166SAPE   H4S18696   5.240   1.200   6.781  0.4478  0.1144  0.7274
  166SAPE   C2518697   5.382   1.194   6.929  0.1672 -0.2909  0.2145
  166SAPE   H5R18698   5.388   1.303   6.916  0.9751 -0.5828 -2.4844
  166SAPE   C2618699   5.442   1.137   7.036 -0.3187  0.3054  0.0599
  166SAPE   H6R18700   5.488   1.204   7.110  0.0588  0.0409  0.0726
  166SAPE   C2718701   5.446   0.989   7.071 -0.2926 -0.4039 -0.2487
  166SAPE   H7R18702   5.548   0.945   7.073 -0.4182 -0.6844  0.2387
  166SAPE   H7S18703   5.379   0.928   7.008 -1.7071  0.4899  0.3355
  166SAPE   C2818704   5.387   0.965   7.206  0.4324  0.1203  0.0650
  166SAPE   H8R18705   5.311   0.887   7.194 -0.5286  0.8127  1.4301
  166SAPE   C2918706   5.397   1.038   7.321  0.2539 -0.2000 -0.1771
  166SAPE   H9R18707   5.347   1.006   7.413 -1.0497  3.0032  0.3701
  166SAPE  C21018708   5.472   1.162   7.368  0.0364 -0.4409 -0.6625
  166SAPE  H10R18709   5.438   1.179   7.472  0.9097 -2.0486 -0.0710
  166SAPE  H10S18710   5.448   1.258   7.317  0.9938  0.0081 -0.2978
  166SAPE  C21118711   5.621   1.139   7.357  0.7970  0.5930 -0.0564
  166SAPE  H11R18712   5.647   1.117   7.252  0.2475 -0.8510  0.0918
  166SAPE  C21218713   5.715   1.152   7.451 -0.6273  0.0427  0.4870
  166SAPE  H12R18714   5.822   1.145   7.428 -0.6277 -0.9153  0.7361
  166SAPE  C21318715   5.696   1.185   7.598 -0.2615  0.3242  0.6314
  166SAPE  H13R18716   5.721   1.093   7.655 -0.0915  1.5671  2.6818
  166SAPE  H13S18717   5.590   1.210   7.617 -0.5873 -0.7413  0.2747
  166SAPE  C21418718   5.784   1.299   7.652 -0.3517  0.4666 -0.5697
  166SAPE  H14R18719   5.814   1.377   7.580  0.9910  1.3389  0.8691
  166SAPE  C21518720   5.796   1.324   7.789  0.3955  0.0026  0.6336
  166SAPE  H15R18721   5.858   1.407   7.826 -0.3032  0.4201  0.8838
  166SAPE  C21618722   5.740   1.237   7.902 -0.3098 -0.3256  0.6322
  166SAPE  H16R18723   5.830   1.190   7.946  0.1839 -0.2357 -0.2683
  166SAPE  H16S18724   5.676   1.151   7.872 -0.3028 -0.1137  0.0043
  166SAPE  C21718725   5.661   1.317   8.007 -0.0044  0.1917 -0.2684
  166SAPE  H17R18726   5.587   1.374   7.947 -0.4369 -2.2530 -2.1912
  166SAPE  H17S18727   5.734   1.389   8.051 -2.1914  2.0496  0.5499
  166SAPE  C21818728   5.594   1.245   8.127  0.4464 -0.4961 -0.1578
  166SAPE  H18R18729   5.670   1.172   8.165  1.1020  0.4276  0.3520
  166SAPE  H18S18730   5.516   1.172   8.096  0.8134 -1.0517  0.1974
  166SAPE  C21918731   5.547   1.345   8.239 -0.4789 -0.6717 -0.6225
  166SAPE  H19R18732   5.461   1.403   8.198  0.8226  1.3967 -0.6094
  166SAPE  H19S18733   5.624   1.426   8.243 -1.2382  0.1353 -1.6692
  166SAPE  C22018734   5.517   1.281   8.376 -0.0413 -0.7284 -0.6283
  166SAPE  H20R18735   5.436   1.205   8.366  0.8604 -1.9232  0.6820
  166SAPE  H20S18736   5.480   1.350   8.455 -2.2169 -1.4371 -0.9496
  166SAPE  H20T18737   5.602   1.218   8.409  1.0990  1.1030  0.0731
  166SAPE   C3318738   5.133   1.572   6.809 -1.2884 -0.5230 -0.1185
  166SAPE   H3X18739   5.091   1.657   6.751 -1.9701 -1.2986 -0.7969
  166SAPE   H3Y18740   5.244   1.566   6.805 -1.0805  2.0892  0.1850
  166SAPE   C3418741   5.102   1.612   6.951  0.4000  0.0084 -0.0811
  166SAPE   H4X18742   4.992   1.613   6.942  0.0243 -1.1880  3.1718
  166SAPE   H4Y18743   5.135   1.717   6.965 -2.8152  1.3101 -1.2997
  166SAPE   C3518744   5.154   1.529   7.064 -0.2356 -0.1616  0.2669
  166SAPE   H5X18745   5.265   1.532   7.060 -0.1111 -3.2877 -1.3116
  166SAPE   H5Y18746   5.132   1.421   7.053 -0.4474 -0.1776  0.8082
  166SAPE   C3618747   5.128   1.573   7.204  0.8255  0.5412  0.7779
  166SAPE   H6X18748   5.020   1.598   7.216  0.6095  0.0919 -0.1399
  166SAPE   H6Y18749   5.180   1.671   7.213  1.6536  0.3732 -1.4972
  166SAPE   C3718750   5.178   1.480   7.316 -0.2178  0.7605  0.2712
  166SAPE   H7X18751   5.273   1.442   7.271 -1.2086 -0.0363 -1.2475
  166SAPE   H7Y18752   5.105   1.398   7.329  0.6964 -0.0690  0.3436
  166SAPE   C3818753   5.198   1.568   7.440  0.3466 -0.5181 -0.2434
  166SAPE   H8X18754   5.108   1.628   7.467 -0.2508 -2.0179  1.2544
  166SAPE   H8Y18755   5.276   1.642   7.411  0.9576 -1.1889 -0.3557
  166SAPE   C3918756   5.224   1.480   7.565  0.1605 -0.0259  0.8456
  166SAPE   H9X18757   5.305   1.406   7.545 -1.9819 -2.8052  1.7085
  166SAPE   H9Y18758   5.126   1.440   7.599 -1.5071  2.5117 -0.6317
  166SAPE  C31018759   5.272   1.556   7.684  0.1626  0.1124  0.0928
  166SAPE  H10X18760   5.190   1.615   7.729  2.2677  0.5382  3.7942
  166SAPE  H10Y18761   5.351   1.629   7.657 -0.3613  0.3935 -0.6999
  166SAPE  C31118762   5.324   1.474   7.810 -0.1454  0.0541  0.1081
  166SAPE  H11X18763   5.354   1.548   7.887  1.1638  0.1057 -0.4350
  166SAPE  H11Y18764   5.415   1.419   7.776  0.3966 -1.5718  3.7151
  166SAPE  C31218765   5.213   1.383   7.867  0.2521 -0.0857 -0.1028
  166SAPE  H12X18766   5.226   1.287   7.812  0.4368  0.9054 -1.8654
  166SAPE  H12Y18767   5.113   1.426   7.846 -0.6294 -1.7476  0.5307
  166SAPE  C31318768   5.217   1.358   8.016 -0.4377  0.5288  0.1930
  166SAPE  H13X18769   5.325   1.346   8.039 -0.1241  1.5684 -0.6610
  166SAPE  H13Y18770   5.155   1.270   8.043  2.0809 -0.9955  1.3917
  166SAPE  C31418771   5.169   1.477   8.103  0.7031  0.6731 -0.5701
  166SAPE  H14X18772   5.225   1.565   8.066  0.7326 -0.4236 -3.3493
  166SAPE  H14Y18773   5.200   1.462   8.209 -2.1218 -0.7593  0.1609
  166SAPE  C31518774   5.021   1.515   8.088 -0.3271  0.3577  0.6637
  166SAPE  H15X18775   4.968   1.419   8.109 -0.9075 -0.0534 -2.2919
  166SAPE  H15Y18776   5.002   1.531   7.980 -1.2149  0.6982  0.8607
  166SAPE  C31618777   4.980   1.642   8.164  0.6665  0.0224  0.7746
  166SAPE  H16X18778   5.054   1.722   8.142  0.3537  0.4515  1.2410
  166SAPE  H16Y18779   4.990   1.617   8.272 -1.1966 -0.1846  0.9271
  166SAPE  C31718780   4.839   1.689   8.134  0.1320  0.0039  1.3095
  166SAPE  H17X18781   4.827   1.772   8.207 -0.4134 -0.6338  1.9688
  166SAPE  H17Y18782   4.767   1.605   8.146  1.0781 -1.0041  0.1989
  166SAPE  C31818783   4.825   1.748   7.998  0.2099 -0.0934  0.5012
  166SAPE  H18X18784   4.857   1.677   7.919 -0.9602 -0.5425  0.4198
  166SAPE  H18Y18785   4.880   1.843   7.978  2.2990 -1.2819  0.3388
  166SAPE  H18Z18786   4.716   1.766   7.984  0.0424 -2.0103 -1.0555
  167SAPE     N18787   4.440   1.245   6.041 -0.4231  0.1753 -0.0437
  167SAPE   HN118788   4.404   1.161   5.992  0.6646  1.3511 -3.1221
  167SAPE   HN218789   4.414   1.327   5.983 -0.7263  0.3281  0.3035
  167SAPE   HN318790   4.544   1.248   6.032 -0.4451  3.5088 -0.3580
  167SAPE   C1218791   4.401   1.261   6.184 -0.0027  0.3718  1.1175
  167SAPE  H12A18792   4.465   1.333   6.238  1.5527 -0.6845  0.7632
  167SAPE  H12B18793   4.422   1.165   6.237  1.0000 -0.3388 -0.4735
  167SAPE   C1118794   4.251   1.281   6.187 -0.3006  0.5817 -0.5545
  167SAPE  H11A18795   4.220   1.277   6.293 -1.3581  0.9621 -0.8391
  167SAPE  H11B18796   4.197   1.201   6.131 -0.2371  0.3410 -0.2792
  167SAPE     P18797   4.224   1.541   6.197 -0.0861 -0.3023  0.1818
  167SAPE   O1318798   4.300   1.633   6.107 -0.2115  0.9476 -0.0252
  167SAPE   O1418799   4.089   1.584   6.238 -0.3325 -0.0847  0.2114
  167SAPE   O1218800   4.213   1.399   6.125  0.2608 -0.0004 -0.7372
  167SAPE   O1118801   4.308   1.510   6.325  0.6704  0.4808 -0.0620
  167SAPE    C118802   4.291   1.591   6.441  0.3398 -0.1115 -0.1519
  167SAPE    HA18803   4.384   1.579   6.501  0.6511  1.5271 -0.2504
  167SAPE    HB18804   4.300   1.699   6.414  2.5803 -0.2885 -0.2886
  167SAPE    C218805   4.167   1.566   6.542 -0.3607 -1.7232  0.4792
  167SAPE    HS18806   4.080   1.606   6.485 -0.1681  0.0213  1.3206
  167SAPE   O2118807   4.179   1.646   6.666 -0.0379 -0.2105 -0.2144
  167SAPE   C2118808   4.067   1.644   6.743  0.2162  0.3449  0.6685
  167SAPE   O2218809   3.955   1.613   6.705  0.4223 -0.2477 -0.2877
  167SAPE   C2218810   4.100   1.708   6.881 -0.0376  0.0019  0.0189
  167SAPE   H2R18811   4.201   1.665   6.898  0.2980 -0.1651 -2.1050
  167SAPE   H2S18812   4.097   1.817   6.860  2.0028 -0.4201 -3.2418
  167SAPE    C318813   4.159   1.420   6.582 -0.3273 -0.6250  0.5922
  167SAPE    HX18814   4.139   1.359   6.491  1.3758 -1.8856  1.0154
  167SAPE    HY18815   4.071   1.399   6.646  0.0467 -0.0872  1.3039
  167SAPE   O3118816   4.281   1.361   6.624  0.1337 -0.5024  0.9057
  167SAPE   C3118817   4.326   1.382   6.749 -0.0692 -0.3470 -0.1136
  167SAPE   O3218818   4.259   1.425   6.842 -0.1286 -0.7412  0.2230
  167SAPE   C3218819   4.476   1.336   6.745  0.0213 -0.7282  0.0506
  167SAPE   H2X18820   4.512   1.342   6.639 -0.4942 -1.8225 -0.2010
  167SAPE   H2Y18821   4.484   1.227   6.766  0.8019 -0.7778 -0.4517
  167SAPE   C2318822   4.011   1.655   6.989 -0.3236 -0.1387  0.1847
  167SAPE   H3R18823   4.008   1.546   6.970 -0.5233 -0.3608  1.4268
  167SAPE   H3S18824   3.909   1.700   6.986  0.1177  0.9271  0.4776
  167SAPE   C2418825   4.071   1.674   7.132 -0.0127 -0.4043  0.8988
  167SAPE   H4R18826   4.168   1.620   7.140  1.0143  1.2433  0.1633
  167SAPE   H4S18827   3.996   1.613   7.187 -0.4274 -1.6219 -0.9279
  167SAPE   C2518828   4.090   1.816   7.177 -0.4541  0.0435  0.3880
  167SAPE   H5R18829   4.129   1.880   7.097 -1.4407 -0.8941 -0.8998
  167SAPE   C2618830   4.054   1.867   7.296 -0.3036  0.1660 -0.5601
  167SAPE   H6R18831   4.049   1.975   7.314  0.9652  0.0888  0.3707
  167SAPE   C2718832   3.981   1.788   7.409 -0.5377 -0.4322 -0.6298
  167SAPE   H7R18833   3.954   1.684   7.380  2.6239 -1.0240 -1.8527
  167SAPE   H7S18834   3.895   1.841   7.454  0.0834 -0.2909  0.4542
  167SAPE   C2818835   4.088   1.775   7.518  0.7198  0.1431  0.6374
  167SAPE   H8R18836   4.179   1.718   7.491 -1.0890 -0.8975 -4.3348
  167SAPE   C2918837   4.080   1.823   7.645  0.1015 -0.4687 -0.4622
  167SAPE   H9R18838   4.172   1.803   7.701  1.7538  0.2658 -2.7650
  167SAPE  C21018839   3.965   1.894   7.715  0.4829 -0.5364 -0.6294
  167SAPE  H10R18840   3.879   1.913   7.649 -0.4326  1.7544  1.0607
  167SAPE  H10S18841   3.991   2.000   7.739 -2.7778  0.7891 -2.3431
  167SAPE  C21118842   3.931   1.813   7.835 -0.3595  0.1310 -0.6311
  167SAPE  H11R18843   3.920   1.706   7.808 -2.0539  0.2425 -0.5031
  167SAPE  C21218844   3.908   1.856   7.957 -0.2779  1.7162 -0.1696
  167SAPE  H12R18845   3.888   1.789   8.042  0.3101  1.2676 -0.3794
  167SAPE  C21318846   3.903   1.999   8.002  0.2237 -0.0496 -0.1709
  167SAPE  H13R18847   3.882   2.066   7.916  1.2682  1.3563  0.6276
  167SAPE  H13S18848   4.005   2.042   8.015  0.4618 -0.4305 -0.6928
  167SAPE  C21418849   3.802   2.032   8.111  0.9597 -0.2287 -0.1892
  167SAPE  H14R18850   3.701   2.061   8.080  0.2505 -1.8438  0.4539
  167SAPE  C21518851   3.821   2.001   8.250  0.4351  0.4970  0.1085
  167SAPE  H15R18852   3.745   2.047   8.315  1.2851  1.0740  0.6961
  167SAPE  C21618853   3.941   1.939   8.311 -0.0553 -0.3440 -0.8831
  167SAPE  H16R18854   3.991   2.023   8.364  1.0349 -1.3712 -0.2343
  167SAPE  H16S18855   4.002   1.893   8.231  1.2850  1.0250 -0.6840
  167SAPE  C21718856   3.911   1.832   8.414 -0.4833  1.2424  0.1737
  167SAPE  H17R18857   4.006   1.779   8.434 -0.9136  0.8202  1.1422
  167SAPE  H17S18858   3.838   1.763   8.367  1.2966 -1.2088  0.8244
  167SAPE  C21818859   3.851   1.875   8.549 -0.1806  0.1567  0.5378
  167SAPE  H18R18860   3.775   1.956   8.542 -0.2923 -0.0341 -0.7889
  167SAPE  H18S18861   3.926   1.930   8.611 -2.3544  1.8649  1.7902
  167SAPE  C21918862   3.786   1.767   8.633  0.1946 -0.8884 -1.1029
  167SAPE  H19R18863   3.700   1.724   8.577  0.1447 -0.4678 -1.3590
  167SAPE  H19S18864   3.741   1.813   8.723  0.1817 -0.8330 -1.1377
  167SAPE  C22018865   3.878   1.655   8.679 -0.4891  0.1118 -0.1294
  167SAPE  H20R18866   3.915   1.610   8.584 -1.0454 -0.5723 -0.0353
  167SAPE  H20S18867   3.821   1.577   8.734  1.4481 -0.4447  1.1986
  167SAPE  H20T18868   3.964   1.690   8.739  0.6868 -1.2328 -0.9736
  167SAPE   C3318869   4.573   1.421   6.834 -0.2717  0.0154 -0.1435
  167SAPE   H3X18870   4.571   1.531   6.816  0.2015 -0.2141 -1.7872
  167SAPE   H3Y18871   4.675   1.388   6.808 -0.5129 -2.2243  1.4733
  167SAPE   C3418872   4.561   1.393   6.983 -0.3268  0.6356  0.8642
  167SAPE   H4X18873   4.566   1.283   6.992 -1.1661  0.3292 -1.6546
  167SAPE   H4Y18874   4.456   1.420   7.008 -0.5280 -0.9343  1.8199
  167SAPE   C3518875   4.665   1.462   7.072  0.3619  0.9203 -0.1019
  167SAPE   H5X18876   4.666   1.570   7.050 -0.1743  0.8114 -0.7043
  167SAPE   H5Y18877   4.762   1.414   7.045 -1.1903 -1.6739 -1.5374
  167SAPE   C3618878   4.624   1.440   7.216 -0.6137 -0.0425  0.7349
  167SAPE   H6X18879   4.624   1.329   7.223 -0.4471 -0.0712  0.2918
  167SAPE   H6Y18880   4.533   1.498   7.243  1.1263  3.9341 -1.1747
  167SAPE   C3718881   4.740   1.466   7.315 -0.1557  1.1150 -0.0522
  167SAPE   H7X18882   4.759   1.575   7.319  0.3977  1.1892 -2.7589
  167SAPE   H7Y18883   4.825   1.408   7.271  1.5320  1.0612  3.0365
  167SAPE   C3818884   4.704   1.411   7.452  0.4496 -0.8832  0.0206
  167SAPE   H8X18885   4.727   1.303   7.459  1.7136 -0.6524 -0.3856
  167SAPE   H8Y18886   4.597   1.427   7.481  0.6137 -2.6386  1.8073
  167SAPE   C3918887   4.801   1.481   7.555  0.3677  0.1397 -0.2168
  167SAPE   H9X18888   4.790   1.591   7.546  2.0299  0.2983 -0.5656
  167SAPE   H9Y18889   4.901   1.465   7.510  0.4121 -2.2059  0.6069
  167SAPE  C31018890   4.791   1.430   7.700 -0.0217  0.1680 -0.7207
  167SAPE  H10X18891   4.870   1.455   7.773 -2.0719  1.1410  1.2774
  167SAPE  H10Y18892   4.781   1.319   7.699  0.6432  0.0927  0.0803
  167SAPE  C31118893   4.655   1.458   7.768  0.3016 -0.1915  0.1328
  167SAPE  H11X18894   4.582   1.417   7.695  0.1518 -1.4087  0.9306
  167SAPE  H11Y18895   4.638   1.568   7.769 -0.9371 -0.3658  0.4574
  167SAPE  C31218896   4.646   1.418   7.917  0.3448 -0.1078  0.0042
  167SAPE  H12X18897   4.573   1.491   7.957  1.9492  2.4544 -1.4755
  167SAPE  H12Y18898   4.746   1.434   7.963  0.2120 -0.2176  0.3324
  167SAPE  C31318899   4.604   1.274   7.928 -0.1910  0.0001 -0.1163
  167SAPE  H13X18900   4.658   1.211   7.854 -0.0059  0.6629 -0.5532
  167SAPE  H13Y18901   4.501   1.273   7.887  0.0280  1.5161 -0.7620
  167SAPE  C31418902   4.614   1.225   8.076 -1.0387 -0.6628 -0.0354
  167SAPE  H14X18903   4.570   1.312   8.130 -1.8994 -0.7789 -0.5347
  167SAPE  H14Y18904   4.722   1.207   8.094 -0.8236 -0.3209 -0.9340
  167SAPE  C31518905   4.563   1.087   8.111  0.9877 -0.2108 -0.0065
  167SAPE  H15X18906   4.621   1.009   8.057 -0.4214 -1.0189 -0.4021
  167SAPE  H15Y18907   4.462   1.082   8.065  1.5227 -2.4598 -1.1123
  167SAPE  C31618908   4.565   1.069   8.264  0.6169 -0.0614 -0.5030
  167SAPE  H16X18909   4.516   1.153   8.318 -0.5933 -1.3331  0.4567
  167SAPE  H16Y18910   4.674   1.060   8.283  0.1761 -2.2869  1.3495
  167SAPE  C31718911   4.490   0.938   8.309  0.2118 -0.4533  1.0073
  167SAPE  H17X18912   4.505   0.915   8.417 -1.6044 -2.7229  0.8544
  167SAPE  H17Y18913   4.520   0.846   8.254 -0.5645 -2.1361  3.2322
  167SAPE  C31818914   4.334   0.942   8.288 -0.5701 -0.2169  0.3041
  167SAPE  H18X18915   4.290   0.840   8.299  0.5927 -0.7274  0.3402
  167SAPE  H18Y18916   4.317   0.979   8.184 -0.1323 -0.0890  0.2781
  167SAPE  H18Z18917   4.278   1.003   8.362  0.4376  1.7585 -0.4902
  168SAPE     N18918   6.307   2.273   5.970  0.2308  0.0148 -0.2794
  168SAPE   HN118919   6.266   2.222   5.890 -0.8777  0.8601 -0.2766
  168SAPE   HN218920   6.250   2.236   6.049  1.1360 -0.6194  0.1037
  168SAPE   HN318921   6.291   2.376   5.968  0.1981 -0.0073 -1.7915
  168SAPE   C1218922   6.445   2.244   6.019 -0.6792  0.0660  0.0812
  168SAPE  H12A18923   6.517   2.297   5.953  1.0653  0.2140  2.0011
  168SAPE  H12B18924   6.453   2.133   6.011 -4.5001 -0.3626  0.6072
  168SAPE   C1118925   6.480   2.294   6.160  0.9633 -0.1205 -0.8251
  168SAPE  H11A18926   6.472   2.405   6.158  0.3740 -0.1612 -1.0030
  168SAPE  H11B18927   6.584   2.270   6.191 -0.0007 -0.7963  2.2221
  168SAPE     P18928   6.427   2.096   6.326  0.1087  0.1969 -0.1186
  168SAPE   O1318929   6.323   2.079   6.428  0.2175 -0.1281 -0.2039
  168SAPE   O1418930   6.438   1.986   6.223  0.2285 -0.0066  0.0837
  168SAPE   O1218931   6.403   2.234   6.257  0.6009  0.3462 -0.1582
  168SAPE   O1118932   6.572   2.116   6.390 -0.1223  0.2227  0.3635
  168SAPE    C118933   6.602   2.233   6.469  0.0625 -0.2329  0.2194
  168SAPE    HA18934   6.712   2.243   6.457 -0.0991  0.4920 -0.6813
  168SAPE    HB18935   6.560   2.324   6.422 -1.8098 -0.7384  0.8210
  168SAPE    C218936   6.565   2.228   6.623 -0.0121 -0.1260  0.1561
  168SAPE    HS18937   6.591   2.131   6.669 -1.6525  0.2804  2.0491
  168SAPE   O2118938   6.423   2.253   6.633 -0.3445  0.2940 -0.1834
  168SAPE   C2118939   6.351   2.187   6.722  0.0164  0.1763 -0.0269
  168SAPE   O2218940   6.400   2.111   6.803 -0.3908  0.3381 -0.5565
  168SAPE   C2218941   6.205   2.234   6.712  0.0709 -0.3940  0.2134
  168SAPE   H2R18942   6.184   2.316   6.784  0.3575 -0.6289  0.5710
  168SAPE   H2S18943   6.174   2.260   6.609 -1.9602  0.5347  1.0192
  168SAPE    C318944   6.643   2.341   6.702 -0.4708  0.4892 -0.0028
  168SAPE    HX18945   6.604   2.434   6.656 -1.6787  0.9273  1.8013
  168SAPE    HY18946   6.752   2.338   6.681 -0.0826 -1.8660  1.8197
  168SAPE   O3118947   6.618   2.352   6.844  0.0272 -0.3817  0.1969
  168SAPE   C3118948   6.667   2.244   6.912 -0.1236  0.2240  0.8922
  168SAPE   O3218949   6.736   2.160   6.858 -0.4817 -0.2441  0.0042
  168SAPE   C3218950   6.624   2.246   7.059  0.0254  0.0014  0.0495
  168SAPE   H2X18951   6.547   2.168   7.079  1.5268 -1.3619  0.8325
  168SAPE   H2Y18952   6.591   2.350   7.076  1.6279  0.6247 -0.4459
  168SAPE   C2318953   6.120   2.112   6.770 -0.2876 -0.5470 -0.2979
  168SAPE   H3R18954   6.162   2.095   6.872  1.0578  1.5473 -0.4508
  168SAPE   H3S18955   6.135   2.025   6.703  0.7003 -0.3981 -0.2755
  168SAPE   C2418956   5.971   2.147   6.770 -0.2866  0.8915 -0.3053
  168SAPE   H4R18957   5.953   2.196   6.672  0.1990  2.4745  0.3512
  168SAPE   H4S18958   5.944   2.215   6.854 -0.7954  1.1431 -0.6676
  168SAPE   C2518959   5.883   2.024   6.794  0.2914  0.0270 -0.1331
  168SAPE   H5R18960   5.867   1.956   6.708 -1.1902 -0.4078  0.4618
  168SAPE   C2618961   5.826   1.991   6.915  0.1147  0.2163  0.4402
  168SAPE   H6R18962   5.756   1.906   6.913  0.9378 -0.5097  1.3334
  168SAPE   C2718963   5.827   2.053   7.047  0.1424 -0.1500 -0.0626
  168SAPE   H7R18964   5.733   2.113   7.038  1.2614  1.3831 -2.4373
  168SAPE   H7S18965   5.905   2.131   7.060 -0.2351  0.3450 -0.7059
  168SAPE   C2818966   5.821   1.981   7.179  0.2489  0.4903 -0.6109
  168SAPE   H8R18967   5.729   1.921   7.185  2.3108 -2.9261 -0.4554
  168SAPE   C2918968   5.913   1.984   7.277 -0.3726  0.1702  0.1646
  168SAPE   H9R18969   5.884   1.915   7.358 -2.6029  0.8532  0.0229
  168SAPE  C21018970   6.038   2.061   7.282 -1.0025  0.2737 -0.5900
  168SAPE  H10R18971   6.026   2.169   7.302  2.7260  0.8984 -1.1401
  168SAPE  H10S18972   6.091   2.068   7.185  1.8696 -0.8633  0.7697
  168SAPE  C21118973   6.135   1.997   7.383  0.1653 -0.5160  0.1377
  168SAPE  H11R18974   6.187   1.905   7.352  0.8983 -1.3312  3.3617
  168SAPE  C21218975   6.172   2.051   7.504  0.6925 -0.2538  0.4427
  168SAPE  H12R18976   6.258   2.006   7.556  1.6826  0.1284 -0.8179
  168SAPE  C21318977   6.123   2.178   7.561  0.0561  0.2229 -0.0061
  168SAPE  H13R18978   6.030   2.152   7.617  0.0567 -2.6670 -1.1932
  168SAPE  H13S18979   6.082   2.253   7.490 -0.4317  0.9466  1.0046
  168SAPE  C21418980   6.217   2.264   7.638  0.7342 -0.4215  0.3072
  168SAPE  H14R18981   6.289   2.320   7.577  1.0478 -0.3055  0.7823
  168SAPE  C21518982   6.239   2.249   7.775  0.1009 -0.7541  0.8404
  168SAPE  H15R18983   6.323   2.304   7.820 -0.2788  0.0029  0.6484
  168SAPE  C21618984   6.161   2.161   7.865  0.7348  0.4445 -0.1226
  168SAPE  H16R18985   6.158   2.062   7.816  1.3635  0.0841  0.5495
  168SAPE  H16S18986   6.055   2.196   7.871  0.2775 -0.9943  0.6988
  168SAPE  C21718987   6.210   2.149   8.009 -0.7409 -0.6785  0.0046
  168SAPE  H17R18988   6.135   2.090   8.064 -0.3961 -0.4496  0.7353
  168SAPE  H17S18989   6.201   2.249   8.056 -0.2113 -0.6027 -0.0411
  168SAPE  C21818990   6.337   2.078   8.033 -0.5256 -0.1300 -0.6380
  168SAPE  H18R18991   6.420   2.137   7.989 -0.7167 -0.7017 -1.7960
  168SAPE  H18S18992   6.340   1.979   7.982 -0.0453 -0.7649  0.5650
  168SAPE  C21918993   6.358   2.050   8.188 -0.0812 -0.6389  0.3457
  168SAPE  H19R18994   6.296   1.961   8.210  0.8483 -1.6437 -0.9145
  168SAPE  H19S18995   6.324   2.133   8.254 -1.4333 -1.1134  0.2554
  168SAPE  C22018996   6.496   1.997   8.211 -0.2359  0.0438 -0.0406
  168SAPE  H20R18997   6.567   2.081   8.195 -3.1702  2.5826 -0.8991
  168SAPE  H20S18998   6.515   1.908   8.148  0.5008 -1.3154  2.0056
  168SAPE  H20T18999   6.498   1.960   8.315 -2.6692 -3.2411 -0.9990
  168SAPE   C3319000   6.744   2.234   7.159  0.6002 -0.3734  0.3419
  168SAPE   H3X19001   6.805   2.325   7.139  1.3098 -1.2574 -1.8760
  168SAPE   H3Y19002   6.814   2.149   7.147  0.0604 -0.9804  1.3568
  168SAPE   C3419003   6.702   2.249   7.303 -0.6766 -0.9484 -0.2947
  168SAPE   H4X19004   6.650   2.346   7.317  0.5389 -0.3795  0.4806
  168SAPE   H4Y19005   6.790   2.253   7.370 -0.0151  0.2355 -1.2046
  168SAPE   C3519006   6.608   2.138   7.345 -0.0965  0.3149  0.3824
  168SAPE   H5X19007   6.529   2.130   7.268 -0.0159  0.3073  0.3010
  168SAPE   H5Y19008   6.566   2.151   7.448 -0.3410  2.4464  0.0777
  168SAPE   C3619009   6.676   2.003   7.361 -0.1667 -0.5249  0.1345
  168SAPE   H6X19010   6.759   2.007   7.434 -0.1611 -0.8036  0.1442
  168SAPE   H6Y19011   6.714   1.962   7.265  2.8789  0.6856  0.7014
  168SAPE   C3719012   6.574   1.902   7.415  0.2303  0.1531 -0.2341
  168SAPE   H7X19013   6.566   1.826   7.334  0.3544  0.0579 -0.1578
  168SAPE   H7Y19014   6.478   1.956   7.428  0.6403  0.6243  1.0570
  168SAPE   C3819015   6.614   1.839   7.550  0.1449 -0.6776 -0.8810
  168SAPE   H8X19016   6.715   1.792   7.545  0.6451  0.3651 -0.6903
  168SAPE   H8Y19017   6.528   1.780   7.588  0.9621 -2.0123 -1.0159
  168SAPE   C3919018   6.627   1.945   7.662  0.1338 -0.3123  0.6503
  168SAPE   H9X19019   6.542   2.015   7.646  0.5042 -0.0298 -0.1137
  168SAPE   H9Y19020   6.719   2.005   7.648 -0.1713 -0.5823 -3.9313
  168SAPE  C31019021   6.612   1.883   7.800  0.6953  0.2301 -0.7193
  168SAPE  H10X19022   6.522   1.818   7.795 -0.7525  2.1478 -0.3246
  168SAPE  H10Y19023   6.596   1.969   7.868  1.1092  1.3214 -1.9657
  168SAPE  C31119024   6.742   1.825   7.840 -0.2744  1.3322  0.0513
  168SAPE  H11X19025   6.811   1.909   7.864  0.0155  0.8929  0.8006
  168SAPE  H11Y19026   6.783   1.767   7.754 -0.3624  0.4702  0.5730
  168SAPE  C31219027   6.745   1.730   7.964  0.1405  0.0379 -0.2145
  168SAPE  H12X19028   6.800   1.637   7.937 -1.7339 -1.1205 -0.2193
  168SAPE  H12Y19029   6.638   1.712   7.990  0.1059  3.2339  2.5633
  168SAPE  C31319030   6.801   1.796   8.088  0.3151  0.5733  0.0363
  168SAPE  H13X19031   6.726   1.876   8.106 -2.9454 -1.7268 -2.1924
  168SAPE  H13Y19032   6.897   1.839   8.053  0.7128 -3.0821 -4.2186
  168SAPE  C31419033   6.801   1.707   8.209 -0.1498  0.3190 -0.3936
  168SAPE  H14X19034   6.888   1.639   8.194 -0.5081 -0.8571  2.3743
  168SAPE  H14Y19035   6.713   1.643   8.229  0.3402  0.1196  1.2681
  168SAPE  C31519036   6.834   1.787   8.340  1.0177 -0.3398  0.2658
  168SAPE  H15X19037   6.772   1.880   8.343  0.4437 -0.6808 -0.6574
  168SAPE  H15Y19038   6.934   1.833   8.328 -0.4812  3.4966  0.8875
  168SAPE  C31619039   6.818   1.705   8.467  0.2939 -0.4538 -0.4956
  168SAPE  H16X19040   6.891   1.622   8.463  1.3006  0.0084  3.7299
  168SAPE  H16Y19041   6.712   1.673   8.459 -0.5910  2.4873 -2.4507
  168SAPE  C31719042   6.832   1.774   8.600 -1.2448 -0.3738 -0.3083
  168SAPE  H17X19043   6.818   1.704   8.685  0.9815 -0.2248  0.2404
  168SAPE  H17Y19044   6.762   1.860   8.590  0.9080  1.2466 -2.6094
  168SAPE  C31819045   6.971   1.842   8.627  0.4832  0.3992  0.8215
  168SAPE  H18X19046   7.039   1.757   8.649 -1.0372 -1.8406 -2.3781
  168SAPE  H18Y19047   6.959   1.897   8.723 -0.2652  0.0811  0.9197
  168SAPE  H18Z19048   7.003   1.914   8.550  0.2985  0.1756  0.5343
  169SAPE     N19049   5.475   2.670   6.192 -0.1293 -0.1272  0.6172
  169SAPE   HN119050   5.558   2.728   6.218 -0.4808  0.9125 -0.5236
  169SAPE   HN219051   5.513   2.597   6.129  1.7939  0.7839  0.6496
  169SAPE   HN319052   5.410   2.736   6.145  0.9693  1.0487  0.6665
  169SAPE   C1219053   5.407   2.629   6.316 -0.3174 -0.0840 -0.1027
  169SAPE  H12A19054   5.368   2.717   6.370  0.0145 -0.5354  0.9077
  169SAPE  H12B19055   5.477   2.576   6.384  0.5243  0.1816 -0.7399
  169SAPE   C1119056   5.286   2.543   6.283  0.0825  0.1972 -0.0277
  169SAPE  H11A19057   5.212   2.619   6.252  1.7425  3.2614  2.7817
  169SAPE  H11B19058   5.245   2.508   6.380  2.2029  3.2198  2.1826
  169SAPE     P19059   5.334   2.294   6.245 -0.0045  0.1775  0.1423
  169SAPE   O1319060   5.198   2.233   6.272  0.0475  0.0196  0.1282
  169SAPE   O1419061   5.426   2.214   6.161 -0.3155 -0.2115  0.0458
  169SAPE   O1219062   5.314   2.445   6.193  0.3278 -0.0435  0.6364
  169SAPE   O1119063   5.404   2.316   6.390  0.4314 -0.3938  0.2366
  169SAPE    C119064   5.536   2.283   6.412  0.0389 -0.3424  0.0721
  169SAPE    HA19065   5.554   2.176   6.386  0.7344 -0.5210  1.2109
  169SAPE    HB19066   5.609   2.336   6.347 -1.8266 -2.1188 -3.7640
  169SAPE    C219067   5.570   2.315   6.561  0.6295  0.2311  0.3085
  169SAPE    HS19068   5.674   2.279   6.577  0.6463  0.5175  0.8718
  169SAPE   O2119069   5.465   2.269   6.646  0.1047  0.1227 -0.2466
  169SAPE   C2119070   5.473   2.144   6.664  0.6163  0.7116 -0.3564
  169SAPE   O2219071   5.550   2.069   6.616 -0.3168  0.0832 -0.4208
  169SAPE   C2219072   5.360   2.094   6.762 -0.1068 -0.2579 -0.4879
  169SAPE   H2R19073   5.262   2.127   6.720  0.1443 -0.3042 -1.1173
  169SAPE   H2S19074   5.363   1.983   6.763  0.5487 -0.2405  0.7329
  169SAPE    C319075   5.580   2.468   6.595  0.5807 -0.0494 -0.0018
  169SAPE    HX19076   5.482   2.517   6.577  0.3344 -0.1751  0.9523
  169SAPE    HY19077   5.649   2.500   6.515  1.2572 -1.6225 -0.0938
  169SAPE   O3119078   5.619   2.488   6.732 -0.2880 -0.0199 -0.2228
  169SAPE   C3119079   5.747   2.514   6.757  0.1500  0.1127  0.2356
  169SAPE   O3219080   5.838   2.505   6.674 -0.1037  0.1915  0.3043
  169SAPE   C3219081   5.766   2.580   6.898  0.5052  0.4054  0.9688
  169SAPE   H2X19082   5.665   2.580   6.945 -0.7240  1.2484 -1.5138
  169SAPE   H2Y19083   5.790   2.684   6.867 -2.0854  0.1369 -2.5906
  169SAPE   C2319084   5.364   2.147   6.910  0.8938 -0.9672 -0.6375
  169SAPE   H3R19085   5.330   2.253   6.903  1.0394 -0.8652  0.0923
  169SAPE   H3S19086   5.464   2.147   6.959  0.6724 -1.9069 -0.1520
  169SAPE   C2419087   5.273   2.062   7.008 -0.1902  0.0427 -0.1273
  169SAPE   H4R19088   5.176   2.058   6.955  0.2899  0.8502 -1.1116
  169SAPE   H4S19089   5.265   2.128   7.096  0.9339  0.4236 -0.2899
  169SAPE   C2519090   5.333   1.930   7.038 -0.0102  0.2654 -0.1424
  169SAPE   H5R19091   5.343   1.856   6.957  3.1761 -2.0744  2.1356
  169SAPE   C2619092   5.367   1.890   7.162  0.3795  0.5606 -0.2532
  169SAPE   H6R19093   5.404   1.787   7.162 -0.5365  0.2070 -1.8636
  169SAPE   C2719094   5.351   1.955   7.293  0.3811 -0.6551  0.0047
  169SAPE   H7R19095   5.322   1.880   7.370 -2.4406  0.8073  0.4846
  169SAPE   H7S19096   5.268   2.029   7.287  1.4807  0.7043  0.7868
  169SAPE   C2819097   5.465   2.035   7.348 -0.6579  0.1790  0.0193
  169SAPE   H8R19098   5.536   2.068   7.270 -0.5513 -0.3582 -0.1187
  169SAPE   C2919099   5.486   2.087   7.472 -0.5495  0.9323 -0.4055
  169SAPE   H9R19100   5.577   2.144   7.493 -1.4342  1.9326  0.8382
  169SAPE  C21019101   5.405   2.078   7.602  0.2388 -0.7902  0.4821
  169SAPE  H10R19102   5.307   2.129   7.598  0.6186  0.0817  1.6882
  169SAPE  H10S19103   5.473   2.132   7.671  1.6846 -0.1570 -1.3714
  169SAPE  C21119104   5.380   1.937   7.653 -1.2612 -0.7378  0.6697
  169SAPE  H11R19105   5.422   1.859   7.588  0.9820 -0.0633  1.2036
  169SAPE  C21219106   5.313   1.902   7.766  0.7678  0.2578 -0.2073
  169SAPE  H12R19107   5.310   1.795   7.794 -1.0197  1.0856  3.4025
  169SAPE  C21319108   5.257   2.002   7.868 -0.3718 -0.3666  0.4222
  169SAPE  H13R19109   5.211   2.085   7.810 -0.9911  0.2511  1.7628
  169SAPE  H13S19110   5.345   2.061   7.902 -1.3405 -0.0311  2.4933
  169SAPE  C21419111   5.185   1.956   7.993 -0.5465  0.0411 -0.0884
  169SAPE  H14R19112   5.146   1.853   7.989 -1.6785  0.4525 -0.1777
  169SAPE  C21519113   5.156   2.034   8.099 -0.0351  0.9782  0.0272
  169SAPE  H15R19114   5.105   1.993   8.188 -0.0516  0.1312 -0.3649
  169SAPE  C21619115   5.178   2.183   8.112  0.2620  0.7725  0.6728
  169SAPE  H16R19116   5.086   2.233   8.075 -0.8901 -1.5370  0.2699
  169SAPE  H16S19117   5.260   2.223   8.049 -0.5114  1.1124 -0.1396
  169SAPE  C21719118   5.225   2.217   8.258  0.3043  0.6857  0.3743
  169SAPE  H17R19119   5.146   2.169   8.319 -0.8415  0.3144 -1.3398
  169SAPE  H17S19120   5.214   2.326   8.277 -0.3753  1.0180 -1.6631
  169SAPE  C21819121   5.361   2.161   8.304 -0.2473 -0.3508  0.1826
  169SAPE  H18R19122   5.425   2.191   8.219 -1.0943 -0.0834 -0.3769
  169SAPE  H18S19123   5.345   2.052   8.312 -0.3070 -0.3827 -0.3645
  169SAPE  C21919124   5.402   2.204   8.446  0.4630 -0.4757 -0.5530
  169SAPE  H19R19125   5.304   2.202   8.499  1.2403 -2.0192  0.9171
  169SAPE  H19S19126   5.431   2.311   8.437  0.8187 -0.6760 -1.9399
  169SAPE  C22019127   5.523   2.128   8.503  0.4366  0.7436 -0.2613
  169SAPE  H20R19128   5.592   2.086   8.427 -2.3543 -5.2839 -0.0855
  169SAPE  H20S19129   5.479   2.037   8.550  2.1684  0.4644  0.9390
  169SAPE  H20T19130   5.579   2.185   8.581  0.5195 -1.0906  1.0926
  169SAPE   C3319131   5.873   2.506   6.988  0.4047  0.3642  0.4236
  169SAPE   H3X19132   5.924   2.578   7.055 -1.6521  0.7584  1.6374
  169SAPE   H3Y19133   5.946   2.463   6.915  1.1620  0.1743  1.2632
  169SAPE   C3419134   5.809   2.408   7.084 -0.5899  0.3969 -0.0000
  169SAPE   H4X19135   5.885   2.329   7.100  0.3838  1.6330  1.8573
  169SAPE   H4Y19136   5.721   2.358   7.037 -0.1764 -2.2435  1.7673
  169SAPE   C3519137   5.776   2.464   7.223  0.4817 -0.3265  0.3545
  169SAPE   H5X19138   5.689   2.531   7.209  1.4756  0.5246 -2.3673
  169SAPE   H5Y19139   5.862   2.512   7.274 -0.6314  1.8837  0.2476
  169SAPE   C3619140   5.725   2.349   7.320  0.7164  0.6444 -0.1521
  169SAPE   H6X19141   5.799   2.267   7.330  1.0273  1.1841  3.2308
  169SAPE   H6Y19142   5.626   2.311   7.287  0.4379 -1.3666  2.5540
  169SAPE   C3719143   5.707   2.393   7.468 -0.0414 -0.8121  0.1084
  169SAPE   H7X19144   5.632   2.335   7.525 -1.5762 -0.9232 -1.9068
  169SAPE   H7Y19145   5.674   2.499   7.471  1.8828 -0.1315 -0.8975
  169SAPE   C3819146   5.840   2.387   7.545 -0.2241 -0.0535  0.1394
  169SAPE   H8X19147   5.920   2.395   7.467  1.5847 -4.9851  1.1064
  169SAPE   H8Y19148   5.848   2.282   7.580 -0.5198 -0.8262 -1.9785
  169SAPE   C3919149   5.854   2.488   7.661 -0.4914  0.4560  0.4480
  169SAPE   H9X19150   5.861   2.595   7.632 -0.9883  0.5924  0.8236
  169SAPE   H9Y19151   5.949   2.459   7.712 -2.0505 -1.6067  2.4071
  169SAPE  C31019152   5.746   2.461   7.770 -0.4277 -0.5221  0.5822
  169SAPE  H10X19153   5.653   2.501   7.724  0.6671  1.2663 -0.1891
  169SAPE  H10Y19154   5.762   2.524   7.860 -0.6557 -0.7306  0.7700
  169SAPE  C31119155   5.727   2.320   7.817 -0.3599 -0.5067 -0.3843
  169SAPE  H11X19156   5.824   2.291   7.862 -0.1275  0.0533 -0.5116
  169SAPE  H11Y19157   5.706   2.251   7.732 -0.6926  1.0210 -1.5927
  169SAPE  C31219158   5.611   2.310   7.910 -0.1395  0.9392 -0.1714
  169SAPE  H12X19159   5.547   2.223   7.886  2.0442 -0.5637 -0.8232
  169SAPE  H12Y19160   5.545   2.398   7.894 -0.8396  0.3425 -0.6420
  169SAPE  C31319161   5.644   2.328   8.063  0.2902 -0.3505  0.3775
  169SAPE  H13X19162   5.550   2.338   8.120 -0.2394  4.1512 -0.8832
  169SAPE  H13Y19163   5.700   2.425   8.065 -1.4868  0.7592 -0.8734
  169SAPE  C31419164   5.737   2.217   8.130 -0.0633 -0.3890 -0.4284
  169SAPE  H14X19165   5.792   2.170   8.046  0.4309  1.5454 -1.2331
  169SAPE  H14Y19166   5.673   2.146   8.187  0.4261  0.8726  1.8088
  169SAPE  C31519167   5.834   2.275   8.238 -0.0051 -0.1415  0.0969
  169SAPE  H15X19168   5.916   2.331   8.187 -0.9537  1.3025  0.0750
  169SAPE  H15Y19169   5.874   2.181   8.281  2.2871 -0.2376 -1.9970
  169SAPE  C31619170   5.771   2.364   8.344  0.2779  0.0766 -0.4333
  169SAPE  H16X19171   5.692   2.315   8.405 -2.6866  1.9492 -2.4464
  169SAPE  H16Y19172   5.721   2.442   8.281 -0.0003 -2.2974 -3.3865
  169SAPE  C31719173   5.877   2.444   8.432 -0.5523  0.4222 -0.2735
  169SAPE  H17X19174   5.822   2.495   8.513  1.4426  1.0063  0.7936
  169SAPE  H17Y19175   5.934   2.503   8.357 -0.8648  1.4083  0.2530
  169SAPE  C31819176   5.988   2.363   8.503 -0.2136 -0.3963 -0.0297
  169SAPE  H18X19177   5.961   2.291   8.583  2.0224 -0.0365  1.1440
  169SAPE  H18Y19178   6.049   2.434   8.562  1.2632 -0.7880 -1.0197
  169SAPE  H18Z19179   6.038   2.296   8.429  1.7047 -2.2195  2.7220
  170SAPE     N19180   5.528   0.980   5.997 -0.6131 -0.0840 -0.1842
  170SAPE   HN119181   5.590   1.031   5.931  1.8702 -3.7281 -0.9362
  170SAPE   HN219182   5.565   0.883   5.999 -1.2374 -0.4024  3.4865
  170SAPE   HN319183   5.433   0.982   5.956  0.1365 -2.7750 -2.3750
  170SAPE   C1219184   5.538   1.028   6.140 -0.2155  0.1746  0.3720
  170SAPE  H12A19185   5.574   0.949   6.209 -1.5059 -1.2560 -0.5438
  170SAPE  H12B19186   5.432   1.049   6.164 -0.2937  0.4546 -0.2151
  170SAPE   C1119187   5.638   1.146   6.148  0.6952 -0.5345 -0.5590
  170SAPE  H11A19188   5.636   1.186   6.252  2.8304  1.6105 -1.2456
  170SAPE  H11B19189   5.601   1.223   6.077 -0.0068 -1.6160 -1.3848
  170SAPE     P19190   5.881   1.213   6.086  0.1113  0.0175 -0.5892
  170SAPE   O1319191   6.005   1.150   6.038 -0.4301  0.3218 -0.2956
  170SAPE   O1419192   5.832   1.325   6.010  0.3614 -0.4879  0.1364
  170SAPE   O1219193   5.773   1.105   6.113  0.1730  0.2742 -0.6796
  170SAPE   O1119194   5.908   1.271   6.228 -0.4095  0.4093  0.6156
  170SAPE    C119195   5.973   1.187   6.330  0.2211  0.0710 -0.3440
  170SAPE    HA19196   6.006   1.088   6.294 -1.8331 -0.1416 -1.8675
  170SAPE    HB19197   6.071   1.231   6.356 -1.0208  2.0031  1.4629
  170SAPE    C219198   5.890   1.168   6.459  0.2221 -0.8341  0.2472
  170SAPE    HS19199   5.787   1.130   6.442  0.5021 -1.8111  0.6478
  170SAPE   O2119200   5.894   1.297   6.525 -0.3755 -0.2009  0.1013
  170SAPE   C2119201   5.799   1.386   6.505 -0.1401  0.3186  0.4628
  170SAPE   O2219202   5.697   1.368   6.446  0.0664 -0.3342  0.3517
  170SAPE   C2219203   5.838   1.519   6.562  0.1969  0.4316 -0.2660
  170SAPE   H2R19204   5.931   1.560   6.516  0.9445 -0.2211  0.6277
  170SAPE   H2S19205   5.745   1.579   6.554 -0.2869 -0.4287 -1.4231
  170SAPE    C319206   5.951   1.061   6.558 -0.5514  0.1108  0.4741
  170SAPE    HX19207   6.060   1.083   6.556 -0.1623 -1.7221 -0.2623
  170SAPE    HY19208   5.942   0.963   6.508 -0.0755 -0.6647  1.8470
  170SAPE   O3119209   5.907   1.070   6.690 -0.4121  0.3754  0.2598
  170SAPE   C3119210   5.821   0.971   6.736  0.1964  0.0707  0.6464
  170SAPE   O3219211   5.792   0.871   6.668  0.3977 -0.1747  0.1595
  170SAPE   C3219212   5.757   1.017   6.865 -0.1989 -0.5334  0.2753
  170SAPE   H2X19213   5.655   0.980   6.887  0.9166 -2.4935  2.5355
  170SAPE   H2Y19214   5.758   1.128   6.868  3.8420 -0.3724 -0.8477
  170SAPE   C2319215   5.879   1.502   6.708  0.5113 -0.2518  0.5943
  170SAPE   H3R19216   5.924   1.599   6.736 -0.8211  0.6740 -0.3671
  170SAPE   H3S19217   5.963   1.429   6.710  0.4665 -0.4704 -2.0532
  170SAPE   C2419218   5.759   1.482   6.800  0.2252 -0.2549  0.5588
  170SAPE   H4R19219   5.703   1.397   6.755  1.5598 -0.3648 -0.9932
  170SAPE   H4S19220   5.691   1.569   6.792  0.9086  0.6170  3.1776
  170SAPE   C2519221   5.807   1.443   6.933 -0.5578  0.3670  0.1883
  170SAPE   H5R19222   5.893   1.374   6.928 -0.5696  0.1802  1.8559
  170SAPE   C2619223   5.768   1.481   7.051 -0.0525 -0.3562  0.1308
  170SAPE   H6R19224   5.819   1.448   7.143  0.8012 -0.4117 -0.3463
  170SAPE   C2719225   5.646   1.571   7.079  0.1504 -0.6106 -0.1101
  170SAPE   H7R19226   5.612   1.630   6.991  0.7516  2.0523  1.3483
  170SAPE   H7S19227   5.682   1.658   7.139 -2.0478  1.3152 -1.4057
  170SAPE   C2819228   5.545   1.501   7.158  0.5740  0.4206  0.4494
  170SAPE   H8R19229   5.488   1.424   7.104  0.6649 -1.1757  2.4916
  170SAPE   C2919230   5.521   1.540   7.285  0.5254  0.0350  0.3117
  170SAPE   H9R19231   5.460   1.463   7.334  3.6700 -3.0779 -0.2443
  170SAPE  C21019232   5.572   1.662   7.362  0.7013 -0.1543 -0.2862
  170SAPE  H10R19233   5.499   1.690   7.441  2.1008  1.3178  0.5573
  170SAPE  H10S19234   5.568   1.753   7.299 -0.3660 -0.5706 -0.8420
  170SAPE  C21119235   5.705   1.636   7.429 -0.3984  0.6985  0.3849
  170SAPE  H11R19236   5.763   1.556   7.380 -1.8106 -0.6778  0.8766
  170SAPE  C21219237   5.762   1.711   7.531  0.0570  0.4225  0.3694
  170SAPE  H12R19238   5.861   1.683   7.571  0.7055  0.9248 -0.8288
  170SAPE  C21319239   5.705   1.826   7.599  0.1090 -0.2894  0.0159
  170SAPE  H13R19240   5.637   1.776   7.670 -0.5787  1.7806  0.8968
  170SAPE  H13S19241   5.646   1.887   7.527  0.7592  2.2104  1.4882
  170SAPE  C21419242   5.806   1.908   7.678 -0.2302 -0.6461  0.1680
  170SAPE  H14R19243   5.878   1.949   7.606 -2.1212  2.0013 -0.3295
  170SAPE  C21519244   5.807   1.945   7.806 -0.1093 -0.3921 -0.3570
  170SAPE  H15R19245   5.893   1.998   7.848 -0.5981  0.8035 -0.7984
  170SAPE  C21619246   5.699   1.909   7.907 -0.1999 -0.3561  0.2650
  170SAPE  H16R19247   5.622   1.845   7.858  0.5945 -1.0483 -0.1169
  170SAPE  H16S19248   5.653   1.997   7.956  0.3343  2.3659 -3.6624
  170SAPE  C21719249   5.777   1.813   8.007  0.3593  0.4080  0.0583
  170SAPE  H17R19250   5.846   1.882   8.062 -1.2214  1.6983  0.5265
  170SAPE  H17S19251   5.841   1.746   7.946  0.1894  0.9676 -0.7524
  170SAPE  C21819252   5.693   1.737   8.105  0.6022 -0.2230 -0.5971
  170SAPE  H18R19253   5.747   1.654   8.155 -0.9621  1.1083  3.7628
  170SAPE  H18S19254   5.609   1.693   8.048 -1.1797 -0.5309  2.0712
  170SAPE  C21919255   5.645   1.831   8.221  0.2771 -0.1047  0.1369
  170SAPE  H19R19256   5.571   1.896   8.169  1.9634  1.0660 -0.8713
  170SAPE  H19S19257   5.728   1.897   8.253  0.1906 -0.0276  0.2025
  170SAPE  C22019258   5.575   1.773   8.343 -0.8085 -0.0379  0.1950
  170SAPE  H20R19259   5.515   1.845   8.402  1.8657  0.4999  2.4590
  170SAPE  H20S19260   5.652   1.729   8.410 -0.9954 -1.5948 -0.5579
  170SAPE  H20T19261   5.512   1.686   8.316 -2.6780  0.9686  1.1229
  170SAPE   C3319262   5.840   0.965   6.986  0.1273 -0.0437  0.0660
  170SAPE   H3X19263   5.873   0.863   6.959 -3.2338 -0.6975 -2.1745
  170SAPE   H3Y19264   5.771   0.943   7.070 -0.5867  1.0174 -0.2079
  170SAPE   C3419265   5.955   1.055   7.014 -0.3855  0.0982  0.5489
  170SAPE   H4X19266   5.914   1.156   6.991 -0.8146 -0.1403  0.2623
  170SAPE   H4Y19267   6.035   1.037   6.940 -1.5278  2.0142 -1.2418
  170SAPE   C3519268   6.017   1.057   7.153  0.3373 -0.3294 -0.3708
  170SAPE   H5X19269   6.017   0.956   7.201 -0.3136 -0.3184 -0.3391
  170SAPE   H5Y19270   5.954   1.111   7.226  1.3611 -1.7197  1.6654
  170SAPE   C3619271   6.156   1.116   7.157 -0.1558  0.4969  0.0098
  170SAPE   H6X19272   6.139   1.221   7.125 -0.9928  0.0897 -0.9371
  170SAPE   H6Y19273   6.219   1.066   7.080  0.6766 -0.2802  1.1696
  170SAPE   C3719274   6.237   1.109   7.287 -0.0958 -0.0225  0.0343
  170SAPE   H7X19275   6.323   1.180   7.286  0.8022 -1.0832 -0.6654
  170SAPE   H7Y19276   6.284   1.009   7.300 -1.8802 -0.7899  0.8842
  170SAPE   C3819277   6.170   1.144   7.420 -0.6642  0.7351  0.7823
  170SAPE   H8X19278   6.067   1.185   7.412 -0.9853 -0.1904 -0.0859
  170SAPE   H8Y19279   6.238   1.206   7.482 -0.5195 -1.5235  3.0261
  170SAPE   C3919280   6.155   1.015   7.504 -0.2508 -0.0536 -0.3900
  170SAPE   H9X19281   6.247   0.956   7.488  0.3401  0.5429  0.6900
  170SAPE   H9Y19282   6.067   0.957   7.468 -1.1280  1.4253 -0.7129
  170SAPE  C31019283   6.132   1.054   7.653 -0.1010 -0.4708 -0.3298
  170SAPE  H10X19284   6.135   0.959   7.710  1.4937 -1.3969 -1.8586
  170SAPE  H10Y19285   6.028   1.092   7.663  0.8248  1.8668  1.2731
  170SAPE  C31119286   6.221   1.161   7.724 -0.2801  0.8444 -0.5441
  170SAPE  H11X19287   6.213   1.264   7.682  1.9376  0.4839 -1.9910
  170SAPE  H11Y19288   6.328   1.134   7.731 -0.2689  0.3971 -2.1744
  170SAPE  C31219289   6.185   1.180   7.874  0.1553 -0.5329 -0.1476
  170SAPE  H12X19290   6.082   1.220   7.886  1.0088  1.6327  0.3821
  170SAPE  H12Y19291   6.244   1.267   7.910 -0.1460 -1.3680  2.5885
  170SAPE  C31319292   6.194   1.063   7.970  0.9135 -0.1188 -0.7587
  170SAPE  H13X19293   6.305   1.058   7.971  0.8857 -0.7015 -0.2661
  170SAPE  H13Y19294   6.150   0.971   7.925 -0.2254 -0.4660  0.9890
  170SAPE  C31419295   6.137   1.078   8.112  0.6250 -0.1149 -0.2672
  170SAPE  H14X19296   6.167   0.991   8.174 -1.8258 -1.4649 -0.8156
  170SAPE  H14Y19297   6.026   1.084   8.112  0.6794  2.8367  2.1089
  170SAPE  C31519298   6.166   1.211   8.179  0.5692  0.1495 -0.6874
  170SAPE  H15X19299   6.110   1.297   8.137 -1.6465 -0.8071  0.1715
  170SAPE  H15Y19300   6.275   1.234   8.173  0.1177  2.0016 -3.1981
  170SAPE  C31619301   6.127   1.197   8.330  0.9569  0.1088  0.3207
  170SAPE  H16X19302   6.168   1.280   8.391  0.5478  0.9577 -0.5373
  170SAPE  H16Y19303   6.171   1.103   8.371 -0.0663 -0.9691 -0.9754
  170SAPE  C31719304   5.980   1.199   8.366 -0.3282  0.9000  0.1289
  170SAPE  H17X19305   5.938   1.101   8.333  0.6819 -0.5578  2.8705
  170SAPE  H17Y19306   5.917   1.273   8.311 -1.9612 -1.0672 -0.8146
  170SAPE  C31819307   5.945   1.211   8.513  0.3706  0.1895 -0.5176
  170SAPE  H18X19308   5.983   1.124   8.570  1.3243  0.5799 -0.5398
  170SAPE  H18Y19309   5.835   1.224   8.520  0.3900 -0.0401  0.2471
  170SAPE  H18Z19310   5.988   1.310   8.542  0.7355  0.2496 -1.2177
  171SAPE     N19311   1.354   1.209   6.093  0.3614  0.1107  0.4515
  171SAPE   HN119312   1.350   1.106   6.108 -0.3400  0.1650  0.6865
  171SAPE   HN219313   1.455   1.227   6.079  0.6794  0.0112  2.2872
  171SAPE   HN319314   1.335   1.243   6.190  0.0912  1.7410 -0.1506
  171SAPE   C1219315   1.250   1.249   5.991  0.4933  0.5157 -0.2345
  171SAPE  H12A19316   1.150   1.227   6.036  0.6878 -0.6531 -0.3567
  171SAPE  H12B19317   1.247   1.170   5.913  1.3249  0.5783 -0.3351
  171SAPE   C1119318   1.273   1.388   5.947  0.9342 -1.0064 -0.0645
  171SAPE  H11A19319   1.210   1.414   5.859 -0.7322  0.5330  1.4890
  171SAPE  H11B19320   1.375   1.397   5.903 -0.0627 -1.3386 -2.6606
  171SAPE     P19321   1.120   1.545   6.083 -0.1481  0.1865 -0.0397
  171SAPE   O1319322   1.132   1.668   6.167  0.2273  0.2419 -0.6761
  171SAPE   O1419323   1.051   1.560   5.955 -0.4851  0.2192 -0.4480
  171SAPE   O1219324   1.264   1.490   6.054  0.7349  0.6762  0.0774
  171SAPE   O1119325   1.055   1.431   6.163  0.0332  0.7598 -0.0777
  171SAPE    C119326   1.125   1.368   6.276 -0.1253 -0.7988 -0.0467
  171SAPE    HA19327   1.135   1.258   6.265 -0.2154 -0.7766 -0.3648
  171SAPE    HB19328   1.224   1.414   6.297 -1.7325  1.5698  3.1142
  171SAPE    C219329   1.049   1.397   6.409 -0.2450 -1.0132 -0.1354
  171SAPE    HS19330   0.952   1.344   6.393 -0.3312 -0.3714 -1.9444
  171SAPE   O2119331   1.042   1.543   6.428  0.1336  0.2372 -0.3057
  171SAPE   C2119332   0.924   1.590   6.470  0.0527 -0.5676  0.0683
  171SAPE   O2219333   0.829   1.522   6.490  0.2834 -0.7199  0.0908
  171SAPE   C2219334   0.931   1.739   6.489  0.4419  0.6759 -0.4360
  171SAPE   H2R19335   1.004   1.757   6.570  0.0844  0.8196 -0.1455
  171SAPE   H2S19336   0.965   1.780   6.391  0.1374 -2.7771 -2.1289
  171SAPE    C319337   1.126   1.344   6.529  0.2891  0.1484  0.5066
  171SAPE    HX19338   1.230   1.384   6.526  0.9138 -1.0735  2.8983
  171SAPE    HY19339   1.130   1.234   6.513 -2.3871  0.2548 -1.4203
  171SAPE   O3119340   1.065   1.357   6.656 -0.0118 -0.6222  0.0694
  171SAPE   C3119341   0.969   1.281   6.701 -0.5302 -1.0989  0.1096
  171SAPE   O3219342   0.926   1.178   6.647  0.0896  0.1958 -0.2152
  171SAPE   C3219343   0.918   1.344   6.835  0.1242  0.7716  0.1975
  171SAPE   H2X19344   0.843   1.417   6.798  0.3810  0.6547 -0.5859
  171SAPE   H2Y19345   0.992   1.400   6.895  0.4382 -2.3317  3.0088
  171SAPE   C2319346   0.800   1.799   6.542  0.3495  0.4986  0.2525
  171SAPE   H3R19347   0.711   1.764   6.485 -0.6653  1.7863  0.9905
  171SAPE   H3S19348   0.805   1.909   6.530 -0.4049  0.4072 -1.1854
  171SAPE   C2419349   0.763   1.773   6.689 -0.8248 -0.7429 -0.5197
  171SAPE   H4R19350   0.761   1.663   6.709  1.4317 -1.0394 -1.6569
  171SAPE   H4S19351   0.665   1.820   6.714 -0.4793 -0.8359  1.1159
  171SAPE   C2519352   0.864   1.837   6.785  0.6630 -0.5325  0.3326
  171SAPE   H5R19353   0.944   1.899   6.741 -0.7388  1.0380 -0.0942
  171SAPE   C2619354   0.865   1.825   6.924  0.0677 -0.1789 -0.1834
  171SAPE   H6R19355   0.926   1.895   6.982 -0.6329  1.2454 -1.1227
  171SAPE   C2719356   0.776   1.731   7.005  0.0170  0.2974  0.0484
  171SAPE   H7R19357   0.836   1.665   7.072 -1.6153  0.1381  1.4317
  171SAPE   H7S19358   0.723   1.657   6.943  0.0517 -1.7096  2.2645
  171SAPE   C2819359   0.676   1.817   7.077 -0.3230 -0.2104  0.3768
  171SAPE   H8R19360   0.598   1.860   7.013 -0.7765 -0.7103  0.5899
  171SAPE   C2919361   0.671   1.852   7.207  0.4486  0.5066 -0.3988
  171SAPE   H9R19362   0.586   1.910   7.246  0.2118  1.7489 -2.6129
  171SAPE  C21019363   0.778   1.809   7.309 -0.1050 -0.6160 -0.5603
  171SAPE  H10R19364   0.786   1.901   7.372  1.7032  0.0696 -1.7219
  171SAPE  H10S19365   0.883   1.799   7.277  0.7960 -1.4959  2.3958
  171SAPE  C21119366   0.738   1.678   7.373  0.4929  0.2597 -0.4181
  171SAPE  H11R19367   0.699   1.604   7.301  0.7351  0.1046 -0.3910
  171SAPE  C21219368   0.742   1.654   7.509 -0.9564  0.3559  0.1693
  171SAPE  H12R19369   0.699   1.561   7.548  1.0480 -0.2603  1.0690
  171SAPE  C21319370   0.782   1.749   7.624  0.2947  0.1371  0.1165
  171SAPE  H13R19371   0.847   1.832   7.587 -0.6533  0.6794 -0.3946
  171SAPE  H13S19372   0.847   1.699   7.698 -0.3783  0.2726  0.8155
  171SAPE  C21419373   0.653   1.806   7.677 -0.4858  0.8308 -0.6349
  171SAPE  H14R19374   0.560   1.794   7.620 -0.8373 -1.7097  0.3434
  171SAPE  C21519375   0.638   1.859   7.800  0.3298 -0.7064 -0.7382
  171SAPE  H15R19376   0.534   1.891   7.815 -0.3834 -1.8052 -2.9408
  171SAPE  C21619377   0.742   1.868   7.915 -0.1099  0.4531  0.5191
  171SAPE  H16R19378   0.721   1.966   7.962 -1.1366  0.7921 -0.6168
  171SAPE  H16S19379   0.849   1.864   7.886  0.0672 -0.3250  1.2341
  171SAPE  C21719380   0.710   1.751   8.011 -0.7122 -0.2711  0.1655
  171SAPE  H17R19381   0.782   1.741   8.095  0.4070 -1.4760 -0.9080
  171SAPE  H17S19382   0.712   1.651   7.963 -0.1537 -0.2241  0.0787
  171SAPE  C21819383   0.571   1.779   8.074 -0.3107  0.1971 -0.3067
  171SAPE  H18R19384   0.486   1.771   8.003  0.7426  1.7464 -1.8299
  171SAPE  H18S19385   0.572   1.883   8.112  0.2268  0.0797  0.0053
  171SAPE  C21919386   0.558   1.678   8.184  0.1601  0.1436 -0.2929
  171SAPE  H19R19387   0.634   1.700   8.262  0.1117 -0.9916  0.0973
  171SAPE  H19S19388   0.569   1.573   8.148  0.0147 -0.8278  2.2882
  171SAPE  C22019389   0.418   1.667   8.254 -0.5914  0.4903  0.5954
  171SAPE  H20R19390   0.340   1.638   8.181  0.0310 -1.7860  0.7454
  171SAPE  H20S19391   0.389   1.757   8.312 -0.2584  0.3039  1.0534
  171SAPE  H20T19392   0.431   1.590   8.333 -0.8491  0.2291  0.3828
  171SAPE   C3319393   0.837   1.249   6.925  0.1322  0.0751 -0.6488
  171SAPE   H3X19394   0.904   1.208   7.002 -0.4390 -0.2971 -0.3476
  171SAPE   H3Y19395   0.798   1.170   6.858  3.0285 -1.4877 -0.6439
  171SAPE   C3419396   0.726   1.318   7.010  0.0475  0.5943  0.3032
  171SAPE   H4X19397   0.665   1.380   6.941 -0.2786  0.2326  0.2582
  171SAPE   H4Y19398   0.756   1.389   7.090 -0.6196  1.4551 -0.1912
  171SAPE   C3519399   0.628   1.212   7.067  0.1990 -0.5843 -0.1776
  171SAPE   H5X19400   0.579   1.153   6.986 -1.2237  1.6886 -1.0605
  171SAPE   H5Y19401   0.545   1.274   7.105  1.0978  0.7888 -0.4003
  171SAPE   C3619402   0.690   1.133   7.173  0.0488 -0.5531  0.1955
  171SAPE   H6X19403   0.780   1.077   7.141  0.3473  0.4189 -0.6869
  171SAPE   H6Y19404   0.612   1.059   7.205 -0.5068 -0.1917 -0.3073
  171SAPE   C3719405   0.728   1.217   7.293 -0.5488 -0.0574 -1.2936
  171SAPE   H7X19406   0.680   1.317   7.292 -0.6859 -0.1250 -1.4439
  171SAPE   H7Y19407   0.833   1.254   7.296 -0.6584  0.1980 -0.4159
  171SAPE   C3819408   0.679   1.158   7.425  0.7853 -0.1472  0.0740
  171SAPE   H8X19409   0.726   1.058   7.429  1.4818  0.1284 -0.8995
  171SAPE   H8Y19410   0.569   1.156   7.409  0.5710  0.1623  1.4116
  171SAPE   C3919411   0.718   1.230   7.555 -0.6154  0.6246 -0.0604
  171SAPE   H9X19412   0.677   1.334   7.554  0.6231  1.1472  0.6097
  171SAPE   H9Y19413   0.828   1.238   7.547 -0.3795  0.0761  2.0667
  171SAPE  C31019414   0.681   1.160   7.686 -0.1828  0.3858  0.4769
  171SAPE  H10X19415   0.712   1.054   7.679  1.5323  0.9193 -0.7317
  171SAPE  H10Y19416   0.570   1.156   7.695 -0.0601 -1.5459  1.8040
  171SAPE  C31119417   0.742   1.221   7.807  0.0038  1.1077 -0.1108
  171SAPE  H11X19418   0.732   1.153   7.894  0.0895 -2.1333 -2.4376
  171SAPE  H11Y19419   0.686   1.316   7.824 -1.7947  0.0693  0.0303
  171SAPE  C31219420   0.892   1.253   7.789 -0.6276 -0.0164  0.4190
  171SAPE  H12X19421   0.898   1.338   7.717 -4.9108  1.1693  1.1755
  171SAPE  H12Y19422   0.940   1.163   7.746 -0.2793  0.0453  0.6733
  171SAPE  C31319423   0.969   1.282   7.922  0.2303 -0.1704 -0.0163
  171SAPE  H13X19424   0.897   1.345   7.979  1.7228  0.8305  0.8355
  171SAPE  H13Y19425   1.056   1.342   7.887  1.1651  0.6394  3.3340
  171SAPE  C31419426   1.001   1.157   8.008 -0.1547  0.2512  0.9250
  171SAPE  H14X19427   1.071   1.091   7.952  0.1000 -0.5588  2.1474
  171SAPE  H14Y19428   0.905   1.102   8.019 -0.4471  0.0754 -1.8094
  171SAPE  C31519429   1.060   1.202   8.140  0.0207  1.0548 -0.2243
  171SAPE  H15X19430   0.990   1.270   8.194 -1.4665 -1.0995  0.7285
  171SAPE  H15Y19431   1.154   1.256   8.120  1.5548 -1.0947  0.8036
  171SAPE  C31619432   1.092   1.079   8.228  0.8450  0.9619  0.4638
  171SAPE  H16X19433   1.154   1.008   8.170 -1.0896  0.5804 -1.2628
  171SAPE  H16Y19434   0.999   1.023   8.251 -0.2857  2.1939 -0.8969
  171SAPE  C31719435   1.160   1.123   8.357 -0.6718  0.9073 -0.4467
  171SAPE  H17X19436   1.101   1.205   8.404 -0.2523 -1.3721  4.6419
  171SAPE  H17Y19437   1.264   1.154   8.334  0.0119 -1.8063 -1.3050
  171SAPE  C31819438   1.173   1.016   8.465 -1.0553 -0.7731 -0.1886
  171SAPE  H18X19439   1.218   1.071   8.551  1.8005 -1.5796 -1.0907
  171SAPE  H18Y19440   1.246   0.938   8.439  0.2439  0.0941  0.7504
  171SAPE  H18Z19441   1.074   0.977   8.500 -2.1018  0.4262 -1.6763
  172SAPE     N19442   6.636   1.071   6.410 -0.1364  0.5878 -0.0459
  172SAPE   HN119443   6.569   1.014   6.466 -0.4997  0.9959 -0.0681
  172SAPE   HN219444   6.731   1.033   6.428  0.0021  0.3603 -1.1657
  172SAPE   HN319445   6.636   1.167   6.448  1.4461  0.5907  0.0284
  172SAPE   C1219446   6.617   1.069   6.261  0.5219  0.0235  0.5091
  172SAPE  H12A19447   6.676   1.156   6.224  0.1406  1.2677  2.6932
  172SAPE  H12B19448   6.511   1.094   6.237  0.2376 -0.6904  0.9760
  172SAPE   C1119449   6.665   0.948   6.189 -0.4856  0.1253 -0.4062
  172SAPE  H11A19450   6.773   0.930   6.208 -0.1517  2.3905  0.1888
  172SAPE  H11B19451   6.649   0.963   6.080 -3.4572 -0.5325 -0.1594
  172SAPE     P19452   6.584   0.707   6.134 -0.0958  0.3551 -0.1230
  172SAPE   O1319453   6.445   0.719   6.072  0.0309 -0.2666 -0.3744
  172SAPE   O1419454   6.699   0.695   6.045 -0.2942 -0.3526 -0.7402
  172SAPE   O1219455   6.599   0.828   6.229  0.4670 -0.7535 -0.4815
  172SAPE   O1119456   6.590   0.576   6.223  0.3435 -0.1837  0.3384
  172SAPE    C119457   6.508   0.561   6.341 -0.3093 -0.0815 -0.7597
  172SAPE    HA19458   6.428   0.637   6.351 -0.1148  0.1372 -0.8616
  172SAPE    HB19459   6.446   0.469   6.344 -1.6586  0.8141  1.6297
  172SAPE    C219460   6.599   0.558   6.469  0.6356  0.4855 -0.1996
  172SAPE    HS19461   6.641   0.456   6.486 -0.2228  0.1104 -0.3047
  172SAPE   O2119462   6.519   0.607   6.585 -0.6998  0.4196  0.1769
  172SAPE   C2119463   6.435   0.512   6.619 -0.4444 -0.5697  0.0027
  172SAPE   O2219464   6.418   0.405   6.564  0.0960  0.1793 -0.2680
  172SAPE   C2219465   6.379   0.549   6.759 -0.0469  0.7438 -0.4790
  172SAPE   H2R19466   6.328   0.648   6.752  0.0474  1.2326  3.4077
  172SAPE   H2S19467   6.306   0.466   6.769 -0.8392  1.3088 -1.3776
  172SAPE    C319468   6.733   0.641   6.453  0.1197  1.0238 -0.1989
  172SAPE    HX19469   6.700   0.736   6.408 -4.4818 -0.1363  0.2014
  172SAPE    HY19470   6.796   0.578   6.387  0.0563 -1.3823  1.8500
  172SAPE   O3119471   6.802   0.648   6.585  0.1760 -0.7211 -0.5041
  172SAPE   C3119472   6.787   0.757   6.665  0.1959  0.2495  0.1640
  172SAPE   O3219473   6.718   0.853   6.638  0.2215 -0.2950 -0.3057
  172SAPE   C3219474   6.873   0.743   6.790  0.0303 -0.8773  0.4735
  172SAPE   H2X19475   6.968   0.692   6.763  0.2486  0.3814 -1.2432
  172SAPE   H2Y19476   6.820   0.674   6.860 -0.2395 -1.6531 -0.4739
  172SAPE   C2319477   6.477   0.554   6.881  0.3979 -0.3758 -0.1069
  172SAPE   H3R19478   6.520   0.657   6.878  1.6685 -0.9127 -1.5974
  172SAPE   H3S19479   6.559   0.482   6.866 -0.2614 -0.9225 -1.2178
  172SAPE   C2419480   6.396   0.539   7.006 -0.4880  0.5015  0.2332
  172SAPE   H4R19481   6.465   0.494   7.081  1.5255  2.7051 -0.1533
  172SAPE   H4S19482   6.323   0.458   6.988  1.1314 -1.3195  1.3637
  172SAPE   C2519483   6.323   0.660   7.048 -0.7481 -0.0229 -0.2227
  172SAPE   H5R19484   6.274   0.704   6.960 -0.3844 -0.4135 -0.6262
  172SAPE   C2619485   6.304   0.699   7.172  0.6667  0.1620 -0.4157
  172SAPE   H6R19486   6.260   0.800   7.184 -1.2548 -0.7645  0.9937
  172SAPE   C2719487   6.345   0.633   7.302 -0.1738  0.3502 -0.6953
  172SAPE   H7R19488   6.382   0.714   7.369  3.0214  0.4290 -2.3934
  172SAPE   H7S19489   6.439   0.577   7.284  1.3985  2.6426 -0.0827
  172SAPE   C2819490   6.240   0.554   7.369 -0.4795 -0.1636 -0.1921
  172SAPE   H8R19491   6.158   0.518   7.306 -2.1710  0.3792  1.5863
  172SAPE   C2919492   6.236   0.510   7.497 -0.6596 -0.0683  0.0570
  172SAPE   H9R19493   6.141   0.462   7.526 -0.6874 -0.8513 -1.2644
  172SAPE  C21019494   6.338   0.523   7.611 -0.0366 -0.7039 -0.0424
  172SAPE  H10R19495   6.430   0.565   7.565 -0.3283 -1.3178 -1.2470
  172SAPE  H10S19496   6.365   0.419   7.641  1.9506  0.1159  1.2341
  172SAPE  C21119497   6.285   0.597   7.731 -1.0782 -0.5036  0.2878
  172SAPE  H11R19498   6.295   0.706   7.739  2.3958 -0.6807 -0.2876
  172SAPE  C21219499   6.219   0.536   7.831  0.1280 -0.7146 -0.0785
  172SAPE  H12R19500   6.168   0.603   7.901 -0.5513 -0.4954 -0.7686
  172SAPE  C21319501   6.184   0.392   7.834 -0.0370  0.1251  0.6072
  172SAPE  H13R19502   6.278   0.336   7.854 -0.5001 -1.1477 -0.6207
  172SAPE  H13S19503   6.164   0.363   7.729  0.8056 -1.2119  0.7909
  172SAPE  C21419504   6.064   0.351   7.914 -0.4405 -1.0652  0.4571
  172SAPE  H14R19505   5.982   0.424   7.908 -0.0616 -0.6015  0.8237
  172SAPE  C21519506   6.043   0.240   7.988  0.2110 -0.9150  0.0349
  172SAPE  H15R19507   5.943   0.219   8.029  0.4030 -0.4565  0.7610
  172SAPE  C21619508   6.144   0.127   7.999 -0.1396 -0.2139 -0.7005
  172SAPE  H16R19509   6.234   0.133   7.935 -1.0014 -4.0842 -2.6013
  172SAPE  H16S19510   6.102   0.026   7.982 -0.0128 -0.2705 -0.6778
  172SAPE  C21719511   6.188   0.112   8.146  0.4318 -0.5958 -0.1069
  172SAPE  H17R19512   6.098   0.098   8.209 -0.7351 -2.0179 -2.0189
  172SAPE  H17S19513   6.234   0.209   8.178 -0.5870  1.3832 -4.0595
  172SAPE  C21819514   6.288  -0.003   8.158  0.0059  0.0621 -0.0765
  172SAPE  H18R19515   6.374   0.013   8.090 -0.1851 -0.1313 -0.3659
  172SAPE  H18S19516   6.228  -0.095   8.142 -1.0493  0.8596 -0.8684
  172SAPE  C21919517   6.333  -0.007   8.299 -0.1331  0.0449 -0.2378
  172SAPE  H19R19518   6.260  -0.021   8.381 -0.1418  1.6400  0.0527
  172SAPE  H19S19519   6.374   0.095   8.318  1.4520 -0.1383 -2.2995
  172SAPE  C22019520   6.458  -0.095   8.321 -0.2340 -0.0545  0.3097
  172SAPE  H20R19521   6.506  -0.096   8.221  0.8638 -2.9658  0.7620
  172SAPE  H20S19522   6.440  -0.204   8.335 -3.9117 -0.4621 -4.6620
  172SAPE  H20T19523   6.521  -0.056   8.403 -3.3391 -0.2914  3.0132
  172SAPE   C3319524   6.889   0.879   6.858 -0.1867 -0.0109  0.6681
  172SAPE   H3X19525   6.853   0.967   6.800 -0.8217  1.1762  2.7885
  172SAPE   H3Y19526   6.998   0.896   6.858 -0.2317  0.8122 -2.0876
  172SAPE   C3419527   6.833   0.883   7.001  0.0596  0.0009 -0.2030
  172SAPE   H4X19528   6.875   0.978   7.039 -0.1900  0.1298 -0.2448
  172SAPE   H4Y19529   6.888   0.807   7.059  1.2843  0.2376 -1.0198
  172SAPE   C3519530   6.689   0.901   7.024  0.0272 -0.1933 -0.1011
  172SAPE   H5X19531   6.637   0.805   7.002  2.9337 -1.2150 -3.3869
  172SAPE   H5Y19532   6.660   0.977   6.949 -0.1600  1.4325  1.5253
  172SAPE   C3619533   6.649   0.956   7.160  0.4500 -0.0384  0.4779
  172SAPE   H6X19534   6.542   0.982   7.149  0.3426 -0.4167  0.6232
  172SAPE   H6Y19535   6.698   1.052   7.189 -1.4004  0.8636  0.8135
  172SAPE   C3719536   6.668   0.858   7.272  0.5340  0.9281  0.1116
  172SAPE   H7X19537   6.775   0.829   7.277  0.0342 -0.9420  0.9252
  172SAPE   H7Y19538   6.615   0.761   7.262 -3.4579  2.9134  0.1287
  172SAPE   C3819539   6.616   0.921   7.404 -0.8958 -0.1787  0.0295
  172SAPE   H8X19540   6.505   0.936   7.408 -0.5902  2.3628  1.6300
  172SAPE   H8Y19541   6.654   1.025   7.419  0.8612 -0.6289 -1.0657
  172SAPE   C3919542   6.653   0.836   7.537  0.4199 -0.3864  0.3092
  172SAPE   H9X19543   6.764   0.826   7.531  0.7223  2.3990 -0.0521
  172SAPE   H9Y19544   6.614   0.734   7.520  3.2875 -1.2791 -1.8471
  172SAPE  C31019545   6.624   0.892   7.673  0.5206 -0.3907 -0.3145
  172SAPE  H10X19546   6.533   0.954   7.685 -0.4796 -2.2062  2.9362
  172SAPE  H10Y19547   6.706   0.967   7.689  1.0890 -0.5752 -2.1777
  172SAPE  C31119548   6.621   0.780   7.784 -0.2669  0.4399  0.6068
  172SAPE  H11X19549   6.726   0.749   7.800  0.1211  2.1056  1.5357
  172SAPE  H11Y19550   6.578   0.685   7.746  0.5685  0.4017 -0.2752
  172SAPE  C31219551   6.546   0.820   7.906 -0.0523 -0.2943  0.5886
  172SAPE  H12X19552   6.448   0.859   7.870  0.8971 -0.8053 -2.9785
  172SAPE  H12Y19553   6.594   0.915   7.939  0.9787 -0.9807  1.1513
  172SAPE  C31319554   6.560   0.716   8.013  0.3498 -0.6529 -0.1935
  172SAPE  H13X19555   6.656   0.723   8.069  0.2108  1.7557 -0.1673
  172SAPE  H13Y19556   6.566   0.615   7.966  0.7584 -0.9605  0.5170
  172SAPE  C31419557   6.431   0.708   8.095 -0.1211  0.2918 -0.8081
  172SAPE  H14X19558   6.340   0.716   8.032 -2.8003 -0.3367  2.6654
  172SAPE  H14Y19559   6.430   0.787   8.174  2.0310  0.6057 -1.0439
  172SAPE  C31519560   6.433   0.581   8.184  0.2447 -0.0762 -0.0352
  172SAPE  H15X19561   6.464   0.612   8.286  2.0477 -2.1426  0.1204
  172SAPE  H15Y19562   6.516   0.513   8.155  1.2373  1.7039 -1.5893
  172SAPE  C31619563   6.299   0.516   8.189 -0.5400  0.1120  0.2395
  172SAPE  H16X19564   6.313   0.422   8.245 -1.6257 -1.1982 -1.5526
  172SAPE  H16Y19565   6.280   0.498   8.080  1.3614 -0.8228  0.0252
  172SAPE  C31719566   6.185   0.602   8.258 -0.9448 -0.6618  0.7646
  172SAPE  H17X19567   6.168   0.696   8.201  2.1005 -0.7752 -0.5043
  172SAPE  H17Y19568   6.216   0.633   8.360 -0.4282 -0.8279  0.6614
  172SAPE  C31819569   6.062   0.518   8.273  0.4458  0.0205  0.2612
  172SAPE  H18X19570   5.984   0.554   8.343 -1.4370 -3.8527  0.4565
  172SAPE  H18Y19571   6.091   0.414   8.300  0.4645  0.5857  2.5965
  172SAPE  H18Z19572   6.018   0.505   8.172  1.4599 -1.2698 -0.0416
  173SOPE     N19573   1.889   4.716  10.908 -0.5130 -0.3910 -0.3245
  173SOPE   HN119574   1.934   4.658  10.982  0.0638 -0.9491 -1.1039
  173SOPE   HN219575   1.968   4.759  10.856  0.1003 -1.5671 -0.4042
  173SOPE   HN319576   1.855   4.805  10.950  1.9560  1.6369 -2.2621
  173SOPE   C1219577   1.816   4.646  10.802  0.1378 -0.3032 -0.1734
  173SOPE  H12A19578   1.841   4.698  10.707  2.8875 -0.5815  0.3279
  173SOPE  H12B19579   1.709   4.665  10.825 -0.0346 -0.1007 -1.1046
  173SOPE   C1119580   1.845   4.498  10.788 -0.3727  1.1355  0.1231
  173SOPE  H11A19581   1.947   4.485  10.747  0.9872 -0.2754  3.5624
  173SOPE  H11B19582   1.776   4.457  10.711 -0.3141  1.7046 -0.2380
  173SOPE     P19583   1.684   4.396  10.977  0.1378 -0.1264  0.1067
  173SOPE   O1319584   1.603   4.517  10.988  0.2107 -0.0701  0.0790
  173SOPE   O1419585   1.725   4.325  11.104  0.1531 -0.1022 -0.2869
  173SOPE   O1219586   1.826   4.433  10.908 -1.0479 -0.0797 -0.2841
  173SOPE   O1119587   1.615   4.289  10.885 -0.3377 -0.2501  0.0595
  173SOPE    C119588   1.672   4.163  10.848  0.7881 -0.3276 -0.8473
  173SOPE    HA19589   1.687   4.101  10.939 -0.5564  2.6171  1.5874
  173SOPE    HB19590   1.770   4.185  10.802  1.2369 -1.2137 -0.3413
  173SOPE    C219591   1.578   4.091  10.756  0.3202 -0.1491 -0.2385
  173SOPE    HS19592   1.478   4.116  10.798 -0.2030  0.5230 -1.7724
  173SOPE   O2119593   1.619   3.954  10.748 -0.3196 -0.1243 -0.2696
  173SOPE   C2119594   1.530   3.858  10.714  0.3310 -0.4227 -0.7224
  173SOPE   O2219595   1.407   3.872  10.722  0.0251 -0.2938  0.2781
  173SOPE   C2219596   1.591   3.723  10.697 -0.2283  0.8095  0.0460
  173SOPE   H2R19597   1.523   3.670  10.767  0.7643  1.8260  1.8852
  173SOPE   H2S19598   1.694   3.724  10.741  0.2996  2.4027 -1.1387
  173SOPE    C319599   1.591   4.158  10.621  0.6894 -0.6937  1.1269
  173SOPE    HX19600   1.697   4.170  10.593  0.1689  1.0605 -0.2968
  173SOPE    HY19601   1.538   4.256  10.629 -1.4918 -1.5502 -1.3038
  173SOPE   O3119602   1.529   4.086  10.509  0.5855 -0.7762  0.3033
  173SOPE   C3119603   1.432   4.151  10.442 -0.7343 -0.2568  0.3577
  173SOPE   O3219604   1.392   4.264  10.460  0.1065 -0.5419 -0.1425
  173SOPE   C3219605   1.375   4.063  10.332  0.4697  0.4730 -0.1522
  173SOPE   H2X19606   1.265   4.074  10.348  0.4587 -2.5382  3.1037
  173SOPE   H2Y19607   1.419   3.963  10.354  0.2139  0.3754 -0.0760
  173SOPE   C2319608   1.599   3.671  10.558  0.5174 -0.2566  0.0037
  173SOPE   H3R19609   1.623   3.563  10.550 -2.7676 -1.1260  0.5602
  173SOPE   H3S19610   1.682   3.718  10.501  0.7028 -0.5988 -0.0107
  173SOPE   C2419611   1.464   3.678  10.484 -0.3847 -0.3661  0.6076
  173SOPE   H4R19612   1.384   3.621  10.536 -0.5083  0.0538  0.8843
  173SOPE   H4S19613   1.441   3.787  10.483 -1.9199 -0.6284 -1.9732
  173SOPE   C2519614   1.458   3.620  10.339 -0.9076  0.2919 -0.4884
  173SOPE   H5R19615   1.557   3.654  10.302 -0.0536  1.8496  2.7964
  173SOPE   H5S19616   1.474   3.513  10.364 -0.0689  0.3253 -0.8758
  173SOPE   C2619617   1.340   3.648  10.248 -0.2108 -0.5838  0.6300
  173SOPE   H6R19618   1.260   3.582  10.288  1.3105 -2.7156  0.3312
  173SOPE   H6S19619   1.314   3.756  10.254 -0.0290 -0.5166  0.2078
  173SOPE   C2719620   1.361   3.619  10.101 -0.2193 -0.5294 -0.2388
  173SOPE   H7R19621   1.266   3.645  10.050  0.3972  1.4029 -0.4945
  173SOPE   H7S19622   1.436   3.694  10.068 -0.8476  0.5234  0.6318
  173SOPE   C2819623   1.424   3.485  10.065 -0.4689 -0.1818 -0.7842
  173SOPE   H8R19624   1.451   3.494   9.957 -1.8376  0.5932 -1.0825
  173SOPE   H8S19625   1.518   3.466  10.121 -1.1845  2.0626  1.3303
  173SOPE   C2919626   1.324   3.375  10.085  0.0008  0.0076  0.6010
  173SOPE   H9119627   1.285   3.376  10.188 -0.4763  1.4542  0.4350
  173SOPE  C21019628   1.294   3.274  10.004 -0.1809 -0.7979  0.6511
  173SOPE  H10119629   1.212   3.206  10.033  0.5546 -1.8627  0.2823
  173SOPE  C21119630   1.371   3.238   9.882 -0.2355 -0.2839  0.2946
  173SOPE  H11R19631   1.431   3.146   9.894  2.5435  1.1214 -1.5921
  173SOPE  H11S19632   1.463   3.299   9.869  0.6910 -1.2562  1.9218
  173SOPE  C21219633   1.294   3.222   9.753 -0.2560  0.3450  0.2860
  173SOPE  H12R19634   1.234   3.311   9.726 -1.7686 -0.4175  1.0097
  173SOPE  H12S19635   1.221   3.142   9.776  2.0357 -1.0490  3.4965
  173SOPE  C21319636   1.380   3.168   9.636 -0.1804 -0.1928  0.2956
  173SOPE  H13R19637   1.432   3.075   9.669 -3.0046 -2.9282 -2.2431
  173SOPE  H13S19638   1.451   3.251   9.615 -1.1404  0.9178  1.2894
  173SOPE  C21419639   1.286   3.135   9.517  0.4328 -0.4328  0.6543
  173SOPE  H14R19640   1.223   3.221   9.483 -0.4390 -1.6596 -1.0273
  173SOPE  H14S19641   1.205   3.063   9.542 -2.4369  2.1493 -0.5571
  173SOPE  C21519642   1.362   3.070   9.400 -0.1029 -0.4759  0.0258
  173SOPE  H15R19643   1.368   2.959   9.405 -2.2997 -0.6327  0.1866
  173SOPE  H15S19644   1.468   3.103   9.394 -0.5149  0.8329 -0.4495
  173SOPE  C21619645   1.304   3.102   9.266  0.1183  0.2074  0.1632
  173SOPE  H16R19646   1.280   3.210   9.259 -0.0121  0.2236  0.8259
  173SOPE  H16S19647   1.206   3.050   9.253 -1.1406  2.9379 -2.4835
  173SOPE  C21719648   1.402   3.070   9.151  0.5206 -0.1333  0.4807
  173SOPE  H17R19649   1.410   2.960   9.149 -1.8973 -0.3648 -0.5686
  173SOPE  H17S19650   1.499   3.113   9.182  0.1309  1.7490 -0.6932
  173SOPE  C21819651   1.357   3.111   9.012 -0.1063 -1.4055  0.3394
  173SOPE  H18R19652   1.267   3.056   8.975 -1.4309 -1.2217  3.0693
  173SOPE  H18S19653   1.438   3.087   8.940 -1.2322  2.3310 -2.4782
  173SOPE  H18T19654   1.342   3.219   8.992 -0.6649 -2.0252 -3.2459
  173SOPE   C3319655   1.415   4.116  10.195 -0.5120  0.0506  0.4436
  173SOPE   H3X19656   1.523   4.141  10.190  0.0577 -2.3912 -1.0755
  173SOPE   H3Y19657   1.369   4.216  10.177 -1.0367 -0.2546  0.0710
  173SOPE   C3419658   1.391   4.016  10.082 -0.3033  0.3110 -0.3546
  173SOPE   H4X19659   1.289   3.976  10.101 -0.1830 -0.4351 -1.2217
  173SOPE   H4Y19660   1.470   3.939  10.099 -0.9819 -0.3870 -0.3200
  173SOPE   C3519661   1.408   4.086   9.949 -0.1086 -0.3227  0.1569
  173SOPE   H5X19662   1.511   4.126   9.950 -0.1485 -0.2083 -0.3566
  173SOPE   H5Y19663   1.345   4.177   9.937 -0.3700 -0.5646 -0.3377
  173SOPE   C3619664   1.378   3.986   9.834  0.8318  0.0585 -0.9171
  173SOPE   H6X19665   1.284   3.929   9.846  1.4158 -0.9850 -1.1846
  173SOPE   H6Y19666   1.470   3.927   9.813  1.3166  0.9800 -1.5056
  173SOPE   C3719667   1.363   4.049   9.693  0.6671 -0.2356 -0.4742
  173SOPE   H7X19668   1.459   4.097   9.664  1.0680  0.7989  2.3136
  173SOPE   H7Y19669   1.283   4.125   9.699 -1.7539 -2.6685  0.1774
  173SOPE   C3819670   1.332   3.948   9.579  0.2533 -0.3480  0.5563
  173SOPE   H8X19671   1.235   3.895   9.595  0.8699 -1.9823 -0.7671
  173SOPE   H8Y19672   1.403   3.863   9.574 -1.0819 -1.4468 -0.8873
  173SOPE   C3919673   1.329   4.019   9.439 -0.4316  0.8172  0.0246
  173SOPE   H9X19674   1.426   4.070   9.426  1.1288 -1.8027  0.5914
  173SOPE   H9Y19675   1.248   4.093   9.423  0.6954  1.9824 -0.3998
  173SOPE  C31019676   1.320   3.926   9.321  0.2046 -0.0482 -0.7775
  173SOPE  H10X19677   1.215   3.890   9.311  0.3776 -0.9206  0.2922
  173SOPE  H10Y19678   1.392   3.842   9.331  1.6247  1.0882 -1.1546
  173SOPE  C31119679   1.360   3.995   9.191  0.1826  0.2405  0.5608
  173SOPE  H11X19680   1.404   3.916   9.126  1.9311  0.9861  0.7916
  173SOPE  H11Y19681   1.436   4.074   9.209 -0.3296  0.7472  0.5379
  173SOPE  C31219682   1.241   4.063   9.111  0.5055 -0.4338 -0.8176
  173SOPE  H12X19683   1.191   4.136   9.178  1.9008  0.5204 -0.7869
  173SOPE  H12Y19684   1.159   3.990   9.091 -1.5416  1.9221 -1.5610
  173SOPE  C31319685   1.287   4.139   8.980  0.1745  1.0437  0.5163
  173SOPE  H13X19686   1.201   4.173   8.917 -1.4203 -1.8698  0.9674
  173SOPE  H13Y19687   1.338   4.062   8.919  0.0033  0.0468  1.5942
  173SOPE  C31419688   1.379   4.253   9.009 -0.4712  0.7063  0.2915
  173SOPE  H14X19689   1.397   4.291   8.906 -1.0083  0.6392  0.1702
  173SOPE  H14Y19690   1.477   4.217   9.048 -1.2354 -2.8590 -0.7246
  173SOPE  C31519691   1.336   4.362   9.097 -0.3329 -0.3071 -0.0170
  173SOPE  H15X19692   1.294   4.318   9.189  2.3853 -0.6666  1.1312
  173SOPE  H15Y19693   1.252   4.425   9.059  0.5811  0.1382 -1.3669
  173SOPE  C31619694   1.450   4.461   9.132 -0.2223  0.6671 -0.0539
  173SOPE  H16X19695   1.393   4.552   9.159 -1.8659 -0.7405  1.4497
  173SOPE  H16Y19696   1.507   4.479   9.038 -1.3628  0.2329 -0.8523
  173SOPE  C31719697   1.538   4.423   9.248 -0.7295 -0.1741  0.2576
  173SOPE  H17X19698   1.621   4.496   9.255 -1.2597  0.5359 -0.7026
  173SOPE  H17Y19699   1.587   4.327   9.221 -1.2979 -0.4772  0.2988
  173SOPE  C31819700   1.476   4.415   9.390 -0.3165 -0.2890  0.7017
  173SOPE  H18X19701   1.403   4.497   9.409  0.3249 -0.0253  2.1724
  173SOPE  H18Y19702   1.559   4.410   9.464 -0.2732  1.1552  0.7926
  173SOPE  H18Z19703   1.416   4.322   9.389 -0.6625 -0.0670  0.3316
  174SOPE     N19704   1.270   2.655  10.568  0.8517 -0.0942 -0.7457
  174SOPE   HN119705   1.224   2.563  10.580 -0.3411  0.6787  1.0169
  174SOPE   HN219706   1.256   2.705  10.658 -2.2686  0.6240 -1.4893
  174SOPE   HN319707   1.206   2.702  10.501 -0.8086 -1.1370  0.0431
  174SOPE   C1219708   1.411   2.645  10.524  0.1705  0.2820 -0.5253
  174SOPE  H12A19709   1.417   2.585  10.431 -0.1242  0.6899 -0.8107
  174SOPE  H12B19710   1.463   2.588  10.604 -0.5829 -0.5596 -0.6265
  174SOPE   C1119711   1.465   2.784  10.520 -0.0118 -0.9583 -0.3539
  174SOPE  H11A19712   1.425   2.839  10.432 -1.3935 -0.9720  0.2382
  174SOPE  H11B19713   1.574   2.774  10.502  0.2587  2.9334 -1.8050
  174SOPE     P19714   1.543   2.882  10.763  0.3287  0.0435  0.6158
  174SOPE   O1319715   1.589   2.751  10.810  0.0655 -0.5920 -0.0182
  174SOPE   O1419716   1.489   2.983  10.855  0.5331 -0.0980  0.6990
  174SOPE   O1219717   1.435   2.864  10.636 -0.6762 -0.2785  0.2235
  174SOPE   O1119718   1.661   2.952  10.689  0.6566  0.2095  0.1110
  174SOPE    C119719   1.797   2.941  10.742  0.3913  0.6130  0.1129
  174SOPE    HA19720   1.832   2.836  10.750  0.0174  0.4822  0.0455
  174SOPE    HB19721   1.806   2.979  10.846  0.5579  0.1619  0.2651
  174SOPE    C219722   1.898   3.027  10.648  1.0420  0.4528  0.4468
  174SOPE    HS19723   1.993   2.979  10.680  0.9327  0.4812  0.8109
  174SOPE   O2119724   1.883   3.161  10.688  0.3968 -0.4976 -0.5937
  174SOPE   C2119725   1.966   3.247  10.636  0.3672 -0.0688  0.4806
  174SOPE   O2219726   2.080   3.220  10.599  0.8355  0.7130 -0.1600
  174SOPE   C2219727   1.902   3.388  10.633 -0.9223 -0.0590  0.1622
  174SOPE   H2R19728   1.917   3.444  10.727  2.7824 -0.7390  0.1238
  174SOPE   H2S19729   1.793   3.371  10.619 -1.3085  1.0468  1.6498
  174SOPE    C319730   1.867   2.999  10.492  0.1579  0.1525 -0.3311
  174SOPE    HX19731   1.783   3.063  10.459 -0.7459  0.3467  2.1128
  174SOPE    HY19732   1.830   2.894  10.488 -3.7786  1.3843 -0.4715
  174SOPE   O3119733   1.982   3.024  10.410  0.2347  0.1770  0.6091
  174SOPE   C3119734   2.060   2.918  10.375 -0.1594 -0.1718 -0.1565
  174SOPE   O3219735   2.041   2.802  10.401 -0.2951  0.0120  0.6300
  174SOPE   C3219736   2.182   2.971  10.309  0.0764  0.5446  0.2360
  174SOPE   H2X19737   2.263   2.957  10.384 -0.3283 -1.3365  0.3649
  174SOPE   H2Y19738   2.169   3.079  10.288  1.7758  1.2425  2.4551
  174SOPE   C2319739   1.970   3.477  10.527  0.1175  0.5345 -0.0990
  174SOPE   H3R19740   2.074   3.497  10.560 -0.3866  1.4978  0.9600
  174SOPE   H3S19741   1.917   3.574  10.524 -0.7692  0.0462 -0.9542
  174SOPE   C2419742   1.960   3.420  10.379  0.4179 -0.4349  0.5470
  174SOPE   H4R19743   2.005   3.486  10.301 -2.3296  0.0507 -0.7419
  174SOPE   H4S19744   2.001   3.317  10.387  1.1726 -0.4089 -1.9693
  174SOPE   C2519745   1.815   3.412  10.332 -0.4434 -0.3444 -0.3578
  174SOPE   H5R19746   1.758   3.352  10.406  0.9570 -0.6787  0.4874
  174SOPE   H5S19747   1.768   3.512  10.331  0.9346  0.3292 -1.6240
  174SOPE   C2619748   1.804   3.342  10.196  0.0039  0.8041 -0.1207
  174SOPE   H6R19749   1.865   3.249  10.205 -0.4560  0.4930 -0.1875
  174SOPE   H6S19750   1.695   3.328  10.181  0.2565 -0.2512 -1.2164
  174SOPE   C2719751   1.858   3.431  10.084 -0.1281 -0.5848 -0.8794
  174SOPE   H7R19752   1.795   3.522  10.076  0.6874  0.1230  0.4258
  174SOPE   H7S19753   1.954   3.478  10.116 -0.5645 -0.2990  0.0575
  174SOPE   C2819754   1.907   3.356   9.964  0.3745 -0.2086  0.6742
  174SOPE   H8R19755   1.963   3.424   9.897 -1.6668 -0.2308 -1.1669
  174SOPE   H8S19756   1.981   3.278   9.992  0.2551 -1.2520 -1.7345
  174SOPE   C2919757   1.793   3.285   9.902  0.8194 -0.3910  0.4692
  174SOPE   H9119758   1.710   3.284   9.974  0.9024  1.9992  0.6893
  174SOPE  C21019759   1.783   3.243   9.770  0.7410  1.0686 -1.0119
  174SOPE  H10119760   1.695   3.185   9.740 -1.4285  1.7203  3.2400
  174SOPE  C21119761   1.895   3.240   9.676 -0.1941 -0.0346  0.4084
  174SOPE  H11R19762   1.991   3.217   9.727 -0.6358 -0.2508  1.1540
  174SOPE  H11S19763   1.901   3.333   9.617 -0.5489 -2.6198 -4.1769
  174SOPE  C21219764   1.882   3.130   9.571  0.2404  0.3990 -0.4118
  174SOPE  H12R19765   1.878   3.035   9.629 -1.5930  1.5365  1.4597
  174SOPE  H12S19766   1.976   3.131   9.513 -0.1679 -1.5210 -1.1746
  174SOPE  C21319767   1.764   3.144   9.476  0.1609  0.0105  0.2591
  174SOPE  H13R19768   1.770   3.248   9.437  1.8769 -0.2838 -0.3546
  174SOPE  H13S19769   1.671   3.138   9.537  1.1258  0.1947  1.7886
  174SOPE  C21419770   1.752   3.040   9.365  0.3498 -0.3531 -0.2429
  174SOPE  H14R19771   1.661   3.048   9.302  1.5234  0.4602 -1.9089
  174SOPE  H14S19772   1.747   2.935   9.401 -2.1107  0.4796  2.0974
  174SOPE  C21519773   1.869   3.052   9.262 -0.4530  0.0916 -0.7593
  174SOPE  H15R19774   1.959   3.009   9.311  0.9197  2.4806 -1.0372
  174SOPE  H15S19775   1.902   3.157   9.251  1.9245 -0.7414 -2.3934
  174SOPE  C21619776   1.845   2.982   9.126  0.1670  0.2032  0.2885
  174SOPE  H16R19777   1.806   2.881   9.149  3.0981 -0.9557  0.5710
  174SOPE  H16S19778   1.946   2.969   9.083 -0.8783 -0.9291 -2.0083
  174SOPE  C21719779   1.767   3.065   9.024 -0.0118 -0.2097 -0.5164
  174SOPE  H17R19780   1.826   3.158   9.009  0.5909 -0.5113 -0.0273
  174SOPE  H17S19781   1.671   3.096   9.072  0.7574 -0.7979  1.5257
  174SOPE  C21819782   1.753   2.998   8.892 -0.1247 -0.8456 -0.0775
  174SOPE  H18R19783   1.686   3.058   8.828  1.6011  0.9955 -0.2513
  174SOPE  H18S19784   1.706   2.899   8.911 -1.6644 -0.1424 -0.0681
  174SOPE  H18T19785   1.846   2.990   8.831  0.2974  2.2554  0.0146
  174SOPE   C3319786   2.221   2.884  10.179 -0.3767 -0.5839  0.5201
  174SOPE   H3X19787   2.207   2.780  10.216 -1.8973 -0.3515  0.6551
  174SOPE   H3Y19788   2.328   2.904  10.159 -0.5479  0.4162  0.5680
  174SOPE   C3419789   2.127   2.905  10.060  0.4641 -0.1507 -0.3842
  174SOPE   H4X19790   2.121   3.010  10.026  2.2133 -0.1897 -0.9035
  174SOPE   H4Y19791   2.026   2.869  10.089  0.7900 -1.1568 -0.4650
  174SOPE   C3519792   2.186   2.820   9.944  0.2350  0.0507 -0.1003
  174SOPE   H5X19793   2.110   2.813   9.863  2.3872  1.0028 -2.3418
  174SOPE   H5Y19794   2.213   2.716   9.970 -0.5259  0.0505  0.6992
  174SOPE   C3619795   2.309   2.886   9.884 -0.8691 -0.1563  0.0161
  174SOPE   H6X19796   2.399   2.879   9.949 -0.3209  0.4201 -0.6553
  174SOPE   H6Y19797   2.295   2.993   9.858 -2.3806 -0.1644  0.7597
  174SOPE   C3719798   2.352   2.815   9.752 -0.1010  0.6987  0.5497
  174SOPE   H7X19799   2.327   2.707   9.763 -0.1515  0.4174 -1.8189
  174SOPE   H7Y19800   2.461   2.816   9.733 -0.1541 -1.1641  0.0241
  174SOPE   C3819801   2.293   2.882   9.627 -0.5546  0.7347 -0.0019
  174SOPE   H8X19802   2.308   2.992   9.631  1.2850  0.5697 -1.1234
  174SOPE   H8Y19803   2.186   2.852   9.617 -0.1896 -1.4481  1.9426
  174SOPE   C3919804   2.366   2.829   9.501 -0.0290  0.1713  0.1922
  174SOPE   H9X19805   2.360   2.718   9.497  3.3752 -0.0929 -0.0388
  174SOPE   H9Y19806   2.476   2.837   9.512 -0.0892 -0.4348  1.4078
  174SOPE  C31019807   2.306   2.900   9.375 -0.0510  0.7966 -0.0106
  174SOPE  H10X19808   2.333   3.008   9.373 -0.6648  0.9469 -0.2439
  174SOPE  H10Y19809   2.197   2.884   9.382  0.3761 -2.6094  0.8786
  174SOPE  C31119810   2.366   2.834   9.242 -0.0940 -0.7717 -0.5103
  174SOPE  H11X19811   2.334   2.728   9.243 -1.9880 -0.2519  0.9316
  174SOPE  H11Y19812   2.476   2.846   9.254  0.1084 -1.8329 -1.2068
  174SOPE  C31219813   2.329   2.909   9.113  0.1728 -0.1376 -0.0976
  174SOPE  H12X19814   2.358   3.016   9.120 -1.9070  0.4592  0.3247
  174SOPE  H12Y19815   2.218   2.918   9.103 -0.2288 -1.8001  2.0725
  174SOPE  C31319816   2.377   2.833   8.988 -0.2227  0.7432 -0.3446
  174SOPE  H13X19817   2.343   2.728   8.990  0.1124  0.4453 -3.7955
  174SOPE  H13Y19818   2.488   2.836   8.994 -0.2175 -0.0789 -0.0006
  174SOPE  C31419819   2.330   2.884   8.859 -0.7288 -0.0805 -0.4415
  174SOPE  H14X19820   2.372   2.818   8.779 -2.5660  0.2734 -1.7667
  174SOPE  H14Y19821   2.361   2.989   8.844  1.0390 -0.3737  0.9115
  174SOPE  C31519822   2.179   2.877   8.834 -0.5640  0.4845  0.6450
  174SOPE  H15X19823   2.134   2.961   8.892 -0.3251  0.8369  0.3220
  174SOPE  H15Y19824   2.137   2.782   8.874 -0.1634 -0.1839 -0.4775
  174SOPE  C31619825   2.138   2.874   8.685  0.4504  0.1641  0.0101
  174SOPE  H16X19826   2.213   2.912   8.613  0.6899  1.2094  0.7906
  174SOPE  H16Y19827   2.042   2.930   8.682 -1.7688 -3.3140 -0.0906
  174SOPE  C31719828   2.106   2.737   8.636  0.4931  0.6832  0.5768
  174SOPE  H17X19829   2.049   2.731   8.541 -0.9424 -3.2493  1.4964
  174SOPE  H17Y19830   2.029   2.694   8.703 -0.8824  0.1390 -1.2836
  174SOPE  C31819831   2.228   2.640   8.630 -0.1921 -0.6029  0.8040
  174SOPE  H18X19832   2.278   2.623   8.728  0.1750 -0.0702  0.7119
  174SOPE  H18Y19833   2.298   2.660   8.546 -0.4546 -1.0286  0.4829
  174SOPE  H18Z19834   2.186   2.540   8.604 -2.4410  1.0410 -2.5288
  175SOPE     N19835   2.758   4.168  11.182  0.0861  0.1871 -0.2052
  175SOPE   HN119836   2.787   4.109  11.102  0.1692 -0.0065 -0.0342
  175SOPE   HN219837   2.751   4.109  11.268  1.0378  2.2983  1.4206
  175SOPE   HN319838   2.664   4.202  11.152  0.2115 -0.3038 -1.1902
  175SOPE   C1219839   2.847   4.288  11.186  0.4938 -0.0905 -0.7318
  175SOPE  H12A19840   2.948   4.253  11.157  0.9337  0.4283  0.1209
  175SOPE  H12B19841   2.851   4.313  11.294  1.5551 -0.5658 -0.6430
  175SOPE   C1119842   2.789   4.403  11.099 -0.6866 -0.4817  0.6194
  175SOPE  H11A19843   2.832   4.503  11.123  1.4182 -1.6431  1.9864
  175SOPE  H11B19844   2.681   4.412  11.123 -0.3887  2.9434  1.1707
  175SOPE     P19845   2.917   4.416  10.872  0.3465  0.5593  0.2747
  175SOPE   O1319846   2.922   4.335  10.743 -0.0301 -0.3303  0.8534
  175SOPE   O1419847   3.036   4.412  10.957 -0.2037 -0.0274  0.5317
  175SOPE   O1219848   2.801   4.367  10.958 -0.1315  0.1730 -0.2731
  175SOPE   O1119849   2.870   4.567  10.849  0.1513 -0.6788  0.2241
  175SOPE    C119850   2.732   4.576  10.799 -0.1201 -0.3165 -0.3291
  175SOPE    HA19851   2.711   4.683  10.821 -0.5437 -0.4321 -0.1682
  175SOPE    HB19852   2.662   4.509  10.854  1.7106 -0.8616  1.4694
  175SOPE    C219853   2.717   4.540  10.646 -0.3237 -0.4577 -0.1484
  175SOPE    HS19854   2.711   4.430  10.634  1.4288 -0.7204  0.9443
  175SOPE   O2119855   2.830   4.592  10.580 -0.2161  0.1263 -0.9987
  175SOPE   C2119856   2.864   4.519  10.477  0.1378 -0.0062  1.0764
  175SOPE   O2219857   2.791   4.433  10.427  0.7275  0.8622 -0.0949
  175SOPE   C2219858   2.994   4.575  10.420  0.1988 -0.0480  0.3266
  175SOPE   H2R19859   3.073   4.572  10.498 -0.6269  2.4215  1.3519
  175SOPE   H2S19860   2.977   4.682  10.397  5.0868  0.7155 -0.6437
  175SOPE    C319861   2.583   4.601  10.588  0.3795 -0.0171  0.0753
  175SOPE    HX19862   2.583   4.711  10.602 -0.5340 -0.2538  2.3313
  175SOPE    HY19863   2.503   4.564  10.655 -1.6893  0.6494 -1.8913
  175SOPE   O3119864   2.562   4.572  10.444 -0.3608 -0.1178 -0.2390
  175SOPE   C3119865   2.505   4.449  10.432  0.8806 -0.1334  0.2150
  175SOPE   O3219866   2.475   4.369  10.521  0.6800  0.0987  0.5059
  175SOPE   C3219867   2.478   4.414  10.282 -0.9682  0.0843 -0.4646
  175SOPE   H2X19868   2.577   4.379  10.245 -1.6565 -1.7954 -0.6237
  175SOPE   H2Y19869   2.454   4.510  10.231  0.8279  1.1984  0.6743
  175SOPE   C2319870   3.034   4.496  10.299  0.1190 -0.3656  0.2592
  175SOPE   H3R19871   2.967   4.478  10.213  0.6790 -2.2511  0.1554
  175SOPE   H3S19872   3.057   4.393  10.336  0.4346  0.0393  1.2243
  175SOPE   C2419873   3.165   4.548  10.240  0.5594  0.2089  0.1157
  175SOPE   H4R19874   3.139   4.632  10.172 -0.7087  0.4443  0.8559
  175SOPE   H4S19875   3.239   4.578  10.317  0.3666  0.0289  0.3731
  175SOPE   C2519876   3.228   4.439  10.144  0.2498 -0.5318 -0.2501
  175SOPE   H5R19877   3.266   4.353  10.204  1.1878  0.9780  1.4307
  175SOPE   H5S19878   3.149   4.399  10.077 -1.2196 -1.5012  1.9392
  175SOPE   C2619879   3.344   4.505  10.057  0.7784 -0.2743  0.1173
  175SOPE   H6R19880   3.313   4.585   9.987  0.5707  0.5764  1.1674
  175SOPE   H6S19881   3.423   4.543  10.124  0.0878 -1.7783  1.8689
  175SOPE   C2719882   3.418   4.391   9.979  0.2842  0.4850  0.2344
  175SOPE   H7R19883   3.510   4.441   9.940 -1.6884  3.6334 -0.7756
  175SOPE   H7S19884   3.435   4.318  10.061 -0.1738  0.5580  0.3946
  175SOPE   C2819885   3.339   4.325   9.865 -0.0635  0.0905 -0.4419
  175SOPE   H8R19886   3.386   4.227   9.844 -0.2679  0.0917 -0.9225
  175SOPE   H8S19887   3.236   4.295   9.895 -0.3440 -1.3300 -2.6263
  175SOPE   C2919888   3.327   4.415   9.744 -0.2344  0.4226 -0.3992
  175SOPE   H9119889   3.355   4.521   9.756  0.8765  0.0202  0.7089
  175SOPE  C21019890   3.273   4.368   9.628  0.2480  0.2216  0.3520
  175SOPE  H10119891   3.264   4.436   9.542  0.3273 -2.6292 -2.0585
  175SOPE  C21119892   3.227   4.231   9.603  0.0083 -0.3275  0.3902
  175SOPE  H11R19893   3.120   4.235   9.574 -0.0242  0.9757  0.6279
  175SOPE  H11S19894   3.225   4.174   9.699 -1.9535 -0.3426  0.3777
  175SOPE  C21219895   3.289   4.142   9.494  0.1223 -0.0187  0.8006
  175SOPE  H12R19896   3.253   4.037   9.493 -0.6542  0.2466  0.6944
  175SOPE  H12S19897   3.394   4.124   9.526  0.0724 -1.0790  0.4088
  175SOPE  C21319898   3.274   4.185   9.348 -1.0704  0.6636  0.0650
  175SOPE  H13R19899   3.344   4.270   9.335 -2.1893  1.1666 -3.6320
  175SOPE  H13S19900   3.171   4.226   9.340 -2.1150 -1.8456 -0.1136
  175SOPE  C21419901   3.290   4.087   9.233 -0.3939 -0.0715  0.3960
  175SOPE  H14R19902   3.219   4.004   9.251 -0.7531  0.1568  0.0441
  175SOPE  H14S19903   3.392   4.043   9.234 -0.3848 -0.0856 -0.2656
  175SOPE  C21519904   3.285   4.153   9.091  0.5670 -0.3624 -0.3472
  175SOPE  H15R19905   3.358   4.235   9.077 -1.5280  1.4858 -1.0898
  175SOPE  H15S19906   3.187   4.204   9.079 -1.4603 -3.9409 -0.4092
  175SOPE  C21619907   3.308   4.050   8.977  0.4387 -0.2213  0.1850
  175SOPE  H16R19908   3.260   3.952   8.999 -0.5718  0.0741 -0.6334
  175SOPE  H16S19909   3.418   4.036   8.972  0.5406  0.6049  0.0046
  175SOPE  C21719910   3.253   4.091   8.838 -0.0279  0.5123  0.0975
  175SOPE  H17R19911   3.299   4.027   8.760 -1.0350 -0.2401  0.0956
  175SOPE  H17S19912   3.281   4.197   8.823  0.7215  0.4395  0.8924
  175SOPE  C21819913   3.102   4.086   8.828 -0.5219  0.7964  0.1334
  175SOPE  H18R19914   3.070   3.980   8.836  1.5286  0.2665  2.5448
  175SOPE  H18S19915   3.078   4.133   8.730  1.8520  0.2459 -0.7803
  175SOPE  H18T19916   3.051   4.149   8.904 -0.1755  2.8887 -1.2888
  175SOPE   C3319917   2.377   4.301  10.263  0.6669  0.4096  0.4265
  175SOPE   H3X19918   2.283   4.331  10.313  0.4966  2.3927 -0.9467
  175SOPE   H3Y19919   2.426   4.212  10.307 -0.2858 -0.1130  0.4442
  175SOPE   C3419920   2.359   4.268  10.117 -0.1691  0.1550 -0.4766
  175SOPE   H4X19921   2.278   4.193  10.100 -0.0472 -0.0692 -0.0820
  175SOPE   H4Y19922   2.445   4.222  10.065  0.1624  0.2689 -0.0276
  175SOPE   C3519923   2.292   4.390  10.046  0.2786 -0.3150  0.6082
  175SOPE   H5X19924   2.372   4.466  10.034  1.2436 -1.1403  1.6158
  175SOPE   H5Y19925   2.205   4.418  10.109 -1.0816 -2.2705 -0.2979
  175SOPE   C3619926   2.249   4.361   9.902 -0.4375 -0.6666 -0.0916
  175SOPE   H6X19927   2.179   4.443   9.874  0.1171 -0.1666 -0.0315
  175SOPE   H6Y19928   2.191   4.266   9.907 -0.2460 -1.2511 -4.5802
  175SOPE   C3719929   2.361   4.349   9.799  0.0876  0.2263 -0.4830
  175SOPE   H7X19930   2.431   4.268   9.829  0.3017  0.8735  0.8723
  175SOPE   H7Y19931   2.419   4.443   9.790  0.0022  0.3923  0.5144
  175SOPE   C3819932   2.296   4.309   9.662  0.2069 -0.5462 -0.3050
  175SOPE   H8X19933   2.199   4.360   9.648  0.9388  1.2533  0.8379
  175SOPE   H8Y19934   2.255   4.207   9.678 -0.9669  0.2424  2.2511
  175SOPE   C3919935   2.386   4.327   9.545 -0.4968  0.0403  0.4894
  175SOPE   H9X19936   2.480   4.268   9.555  0.5101  1.3058 -1.1109
  175SOPE   H9Y19937   2.424   4.428   9.523  1.0546 -0.5053  0.5628
  175SOPE  C31019938   2.320   4.289   9.411  0.4140  0.3246 -0.3151
  175SOPE  H10X19939   2.360   4.362   9.337  2.6300  0.5297  1.0113
  175SOPE  H10Y19940   2.213   4.320   9.413  0.2103 -0.3577 -0.3939
  175SOPE  C31119941   2.344   4.148   9.364  0.0829 -0.1063 -0.3514
  175SOPE  H11X19942   2.420   4.099   9.428  1.5425  0.1574 -1.7943
  175SOPE  H11Y19943   2.386   4.149   9.261  1.3505 -0.5616  0.1465
  175SOPE  C31219944   2.218   4.063   9.350  0.2980 -0.2608  0.5579
  175SOPE  H12X19945   2.247   3.972   9.293 -0.0751 -0.0413  0.0050
  175SOPE  H12Y19946   2.150   4.128   9.291  1.9606  1.1639  0.1318
  175SOPE  C31319947   2.157   4.026   9.487 -0.8145  0.5707 -0.4113
  175SOPE  H13X19948   2.066   3.966   9.468 -0.8099 -0.2448  1.9079
  175SOPE  H13Y19949   2.119   4.121   9.530 -1.5312 -0.0533  0.3527
  175SOPE  C31419950   2.235   3.929   9.578 -0.2024 -0.0261 -0.1001
  175SOPE  H14X19951   2.327   3.982   9.612  0.0119 -1.9871  2.7631
  175SOPE  H14Y19952   2.271   3.838   9.526 -0.0162  1.3172 -2.5065
  175SOPE  C31519953   2.153   3.892   9.703  0.8684  0.6116  0.0330
  175SOPE  H15X19954   2.085   3.812   9.665  1.3681  1.1848 -2.2009
  175SOPE  H15Y19955   2.094   3.982   9.730 -0.5344 -0.0037 -0.8168
  175SOPE  C31619956   2.236   3.834   9.824  0.5327 -0.3809  0.1840
  175SOPE  H16X19957   2.303   3.752   9.791  1.2073 -0.5920  1.9824
  175SOPE  H16Y19958   2.163   3.787   9.894 -0.1484 -1.8617 -1.4412
  175SOPE  C31719959   2.321   3.940   9.889 -0.4175  0.3351 -0.3522
  175SOPE  H17X19960   2.250   4.011   9.936 -0.7558  0.1452 -0.5773
  175SOPE  H17Y19961   2.387   3.991   9.815  0.4124 -0.4477 -0.1568
  175SOPE  C31819962   2.409   3.886  10.001 -0.7506  0.6183  0.1175
  175SOPE  H18X19963   2.372   3.789  10.040 -0.4917 -0.2581 -1.7293
  175SOPE  H18Y19964   2.420   3.951  10.091  3.1432 -0.7024  0.8225
  175SOPE  H18Z19965   2.509   3.862   9.959 -1.6962 -1.6060 -1.0005
  176SOPE     N19966   0.008   3.628  10.858 -0.5173 -0.0242  0.3809
  176SOPE   HN119967  -0.085   3.581  10.866 -1.7294  2.0092 -0.8346
  176SOPE   HN219968   0.034   3.681  10.944 -1.1934 -1.9720  1.8619
  176SOPE   HN319969  -0.006   3.686  10.773 -0.4676 -1.7983 -0.8973
  176SOPE   C1219970   0.122   3.538  10.830  0.1824 -0.4426  0.3980
  176SOPE  H12A19971   0.088   3.454  10.765 -0.1862  0.1919 -0.2461
  176SOPE  H12B19972   0.149   3.486  10.924 -0.0680 -0.2192  0.5917
  176SOPE   C1119973   0.247   3.618  10.777 -0.1291  0.4046  0.2425
  176SOPE  H11A19974   0.299   3.675  10.858  1.7027  0.3975 -0.8626
  176SOPE  H11B19975   0.209   3.697  10.709 -0.0784 -0.3275 -0.6578
  176SOPE     P19976   0.472   3.473  10.771 -0.1524  0.0391  0.5585
  176SOPE   O1319977   0.448   3.344  10.845  0.0692  0.2458  0.6289
  176SOPE   O1419978   0.556   3.584  10.832  0.2443  0.2144 -0.1011
  176SOPE   O1219979   0.336   3.531  10.717 -0.1248 -0.2181 -0.1303
  176SOPE   O1119980   0.558   3.431  10.638  0.2722  0.6537 -0.1636
  176SOPE    C119981   0.493   3.363  10.527 -0.0329 -0.5339  0.2703
  176SOPE    HA19982   0.430   3.434  10.470  0.9948 -0.0656 -0.3157
  176SOPE    HB19983   0.427   3.281  10.561 -0.4016  0.6646  2.6773
  176SOPE    C219984   0.594   3.303  10.422 -0.2600 -0.2231  0.0744
  176SOPE    HS19985   0.636   3.206  10.456  1.9476  0.3282 -0.8831
  176SOPE   O2119986   0.701   3.406  10.399  0.3406 -0.2480  0.2844
  176SOPE   C2119987   0.815   3.365  10.354  0.0840 -0.2726 -0.0484
  176SOPE   O2219988   0.857   3.249  10.343 -0.6630 -0.9056  0.5329
  176SOPE   C2219989   0.893   3.489  10.311 -0.0515  0.2680 -0.0988
  176SOPE   H2R19990   0.981   3.498  10.378  1.3833 -2.6665 -1.4271
  176SOPE   H2S19991   0.831   3.581  10.315 -0.8184 -0.2694  1.0142
  176SOPE    C319992   0.524   3.285  10.281 -0.4567  0.1281  0.0833
  176SOPE    HX19993   0.471   3.380  10.258 -1.4765 -0.6529 -0.9056
  176SOPE    HY19994   0.440   3.216  10.305  0.0604 -0.6928 -0.4199
  176SOPE   O3119995   0.617   3.249  10.176  0.6138 -0.7707  0.3886
  176SOPE   C3119996   0.635   3.118  10.158 -0.3579 -0.2458  0.0417
  176SOPE   O3219997   0.591   3.027  10.222  0.2581  0.1720  0.2058
  176SOPE   C3219998   0.732   3.103  10.040 -0.3831 -0.3632 -0.1802
  176SOPE   H2X19999   0.834   3.130  10.074  0.4842 -1.9413 -1.3889
  176SOPE   H2Y20000   0.693   3.182   9.972 -1.0486  1.9015  2.6315
  176SOPE   C2320001   0.945   3.480  10.169 -0.4226  0.3829  0.7467
  176SOPE   H3R20002   0.960   3.373  10.143  2.9422  1.0519 -0.6640
  176SOPE   H3S20003   1.040   3.538  10.159 -1.3206  1.5256 -2.9714
  176SOPE   C2420004   0.836   3.542  10.078  0.1584  0.0520  0.1688
  176SOPE   H4R20005   0.737   3.496  10.097 -0.3868  1.3554  0.5972
  176SOPE   H4S20006   0.816   3.646  10.113 -2.3359  0.0827 -1.1426
  176SOPE   C2520007   0.870   3.542   9.925  0.0537  0.0922  0.0901
  176SOPE   H5R20008   0.835   3.446   9.882  1.1033  0.9768 -2.9805
  176SOPE   H5S20009   0.799   3.611   9.874  1.1954 -0.1193 -1.8539
  176SOPE   C2620010   1.004   3.588   9.886  0.2400 -0.0453  0.1280
  176SOPE   H6R20011   1.020   3.691   9.923  1.0375 -0.9363  2.4051
  176SOPE   H6S20012   1.079   3.518   9.928 -0.8065 -1.0614  0.3556
  176SOPE   C2720013   1.039   3.576   9.734 -0.8182 -0.1926 -0.4887
  176SOPE   H7R20014   1.067   3.472   9.706  2.8819  1.0160 -1.9591
  176SOPE   H7S20015   0.947   3.612   9.683 -2.9567 -4.0894  0.2365
  176SOPE   C2820016   1.150   3.673   9.698 -0.2437  0.4299  0.4091
  176SOPE   H8R20017   1.139   3.682   9.588 -2.5872  1.0592  0.6390
  176SOPE   H8S20018   1.142   3.776   9.739  2.8295  0.1523  2.0103
  176SOPE   C2920019   1.285   3.618   9.732  0.4725  0.3824  0.2532
  176SOPE   H9120020   1.308   3.608   9.839 -0.4972  0.8138  0.5150
  176SOPE  C21020021   1.371   3.562   9.644  0.4720  0.2299  1.0309
  176SOPE  H10120022   1.469   3.525   9.678  0.7596  0.6567  0.6867
  176SOPE  C21120023   1.341   3.540   9.505  0.7664  0.1666  0.0119
  176SOPE  H11R20024   1.282   3.622   9.457  0.4615  0.5515  1.0175
  176SOPE  H11S20025   1.283   3.447   9.491  0.7183  0.2309 -0.2213
  176SOPE  C21220026   1.466   3.523   9.418 -0.6465 -1.4330 -0.7727
  176SOPE  H12R20027   1.535   3.445   9.458 -0.2025 -0.3642  0.6162
  176SOPE  H12S20028   1.532   3.612   9.424 -2.3167 -0.2405  3.1412
  176SOPE  C21320029   1.436   3.491   9.273 -0.5346 -0.2964 -0.0313
  176SOPE  H13R20030   1.375   3.566   9.219 -1.4327 -1.9125 -1.3412
  176SOPE  H13S20031   1.383   3.393   9.271  2.5123 -2.0939  0.7573
  176SOPE  C21420032   1.564   3.482   9.188 -0.5237  0.3985  0.5840
  176SOPE  H14R20033   1.625   3.394   9.218  0.7194  0.9576 -0.2291
  176SOPE  H14S20034   1.632   3.567   9.212  1.2162 -0.6575 -0.3866
  176SOPE  C21520035   1.536   3.482   9.042  0.1199 -0.2887  0.3653
  176SOPE  H15R20036   1.478   3.571   9.009  1.6830  1.3747  1.8651
  176SOPE  H15S20037   1.456   3.408   9.021  1.2795 -1.4923  0.0151
  176SOPE  C21620038   1.655   3.437   8.956  0.5371  0.7229  0.0338
  176SOPE  H16R20039   1.687   3.343   9.006  1.5660  0.1886 -1.5752
  176SOPE  H16S20040   1.735   3.510   8.980 -2.0428  3.1347  1.9274
  176SOPE  C21720041   1.640   3.422   8.808 -0.1026  0.1389 -0.2282
  176SOPE  H17R20042   1.616   3.524   8.773 -0.2904  1.2653  2.8428
  176SOPE  H17S20043   1.562   3.351   8.771  1.2511 -1.9643  0.7753
  176SOPE  C21820044   1.782   3.393   8.751 -0.1693  0.1549 -0.5100
  176SOPE  H18R20045   1.793   3.384   8.641 -0.3798 -0.1215 -0.5080
  176SOPE  H18S20046   1.840   3.313   8.801  1.7109  0.7968 -1.5603
  176SOPE  H18T20047   1.848   3.478   8.780  2.0941 -2.0016  1.0636
  176SOPE   C3320048   0.739   2.967   9.972 -0.4188  0.2935 -0.5070
  176SOPE   H3X20049   0.645   2.935   9.921 -1.4321 -0.3153  1.6256
  176SOPE   H3Y20050   0.762   2.883  10.041  0.7250 -0.3854 -1.6709
  176SOPE   C3420051   0.853   2.963   9.868 -0.3778 -1.0586  0.2452
  176SOPE   H4X20052   0.851   2.860   9.825 -1.8020 -0.3478 -1.5398
  176SOPE   H4Y20053   0.951   2.985   9.914  0.4890  0.4438 -2.1263
  176SOPE   C3520054   0.834   3.063   9.761 -0.7165  1.0716 -1.3820
  176SOPE   H5X20055   0.861   3.166   9.795  3.0340  0.0273 -0.8050
  176SOPE   H5Y20056   0.729   3.051   9.726 -0.6501 -3.6109 -0.5259
  176SOPE   C3620057   0.928   3.032   9.642 -0.0330 -0.2598 -0.0235
  176SOPE   H6X20058   0.997   2.952   9.677 -0.9883  0.0036  2.7683
  176SOPE   H6Y20059   0.991   3.121   9.620 -0.4635  0.4755  1.5663
  176SOPE   C3720060   0.855   2.993   9.515 -0.5319  0.3237  0.1168
  176SOPE   H7X20061   0.795   3.080   9.481  1.7188  1.7159 -0.5478
  176SOPE   H7Y20062   0.785   2.908   9.528  1.0972 -1.0479  0.1707
  176SOPE   C3820063   0.956   2.952   9.399  0.9225 -0.4754 -0.0884
  176SOPE   H8X20064   1.016   2.867   9.437 -0.4336 -1.4761 -0.1337
  176SOPE   H8Y20065   1.013   3.046   9.381  1.0357 -0.2365  1.4034
  176SOPE   C3920066   0.885   2.902   9.278  0.0228  0.7069 -0.0382
  176SOPE   H9X20067   0.844   2.985   9.217  0.7691  1.3607  0.3353
  176SOPE   H9Y20068   0.804   2.833   9.311  0.7894 -0.3713 -0.3836
  176SOPE  C31020069   0.977   2.810   9.197  0.3230 -0.0025  0.0599
  176SOPE  H10X20070   1.042   2.752   9.266 -1.1835  1.1325  2.5778
  176SOPE  H10Y20071   1.044   2.862   9.125  0.4039  1.5439  1.2103
  176SOPE  C31120072   0.894   2.718   9.094 -0.0552 -0.1113 -0.6718
  176SOPE  H11X20073   0.828   2.658   9.160 -1.6024  2.1280 -0.0412
  176SOPE  H11Y20074   0.970   2.658   9.040 -0.0745  0.2548 -1.1101
  176SOPE  C31220075   0.814   2.791   8.989 -0.2611  0.5830  0.7291
  176SOPE  H12X20076   0.882   2.853   8.928 -2.0994  1.0886 -0.9297
  176SOPE  H12Y20077   0.742   2.861   9.038 -0.2194  0.0295  1.6090
  176SOPE  C31320078   0.727   2.699   8.889 -0.2012 -0.7537 -0.6246
  176SOPE  H13X20079   0.675   2.765   8.816 -1.0651 -1.2288 -0.4595
  176SOPE  H13Y20080   0.652   2.637   8.944  0.7222 -0.7022  0.7405
  176SOPE  C31420081   0.806   2.590   8.813 -0.1655 -0.0582  0.0745
  176SOPE  H14X20082   0.842   2.510   8.881  0.2604 -2.2135 -2.5176
  176SOPE  H14Y20083   0.902   2.633   8.777 -1.0343  0.3356 -1.9093
  176SOPE  C31520084   0.734   2.541   8.692 -0.2911  0.1983  0.1658
  176SOPE  H15X20085   0.701   2.630   8.634  1.3020 -0.1460 -1.3649
  176SOPE  H15Y20086   0.642   2.479   8.703 -0.5092  0.1356 -1.6964
  176SOPE  C31620087   0.825   2.443   8.603 -0.0344  0.3780 -0.1520
  176SOPE  H16X20088   0.909   2.507   8.570 -0.4033 -0.0529 -2.0696
  176SOPE  H16Y20089   0.767   2.409   8.515 -0.1199 -1.2839  0.5189
  176SOPE  C31720090   0.864   2.322   8.679 -0.8396 -0.2334  0.1478
  176SOPE  H17X20091   0.917   2.353   8.772 -0.5801 -1.1861  0.3280
  176SOPE  H17Y20092   0.930   2.258   8.617 -1.3253  0.1310 -0.7629
  176SOPE  C31820093   0.751   2.233   8.727 -0.5376  0.1876 -0.1161
  176SOPE  H18X20094   0.672   2.287   8.783  0.2994  1.0750  0.2399
  176SOPE  H18Y20095   0.787   2.154   8.797  3.4355  0.0930 -2.0251
  176SOPE  H18Z20096   0.707   2.178   8.642  2.1002 -3.3991  0.5907
  177SOPE     N20097   2.349   3.105  10.815 -0.0251 -0.9668 -0.1644
  177SOPE   HN120098   2.404   3.189  10.789  1.6467 -1.2232  2.2106
  177SOPE   HN220099   2.260   3.142  10.854  1.6405  1.1696  1.9375
  177SOPE   HN320100   2.402   3.072  10.898 -0.4685  1.5888  1.2456
  177SOPE   C1220101   2.343   3.021  10.692 -0.7099 -0.2872  0.0355
  177SOPE  H12A20102   2.443   3.032  10.646  0.1355 -1.4322  1.5348
  177SOPE  H12B20103   2.274   3.079  10.627  0.9631 -0.4861 -2.0449
  177SOPE   C1120104   2.308   2.876  10.701 -0.7014  0.0331 -0.9341
  177SOPE  H11A20105   2.377   2.836  10.778 -1.7995  1.6055  0.9571
  177SOPE  H11B20106   2.324   2.824  10.604 -1.2498 -3.2818  0.6191
  177SOPE     P20107   2.145   2.719  10.812  0.5700 -0.0794 -0.1350
  177SOPE   O1320108   2.007   2.675  10.812 -0.4226  0.4592 -0.1592
  177SOPE   O1420109   2.204   2.710  10.950  0.2132  0.4053 -0.0435
  177SOPE   O1220110   2.172   2.857  10.747  0.2059 -0.1531 -0.2672
  177SOPE   O1120111   2.216   2.616  10.734 -0.6181  0.4923 -0.4842
  177SOPE    C120112   2.160   2.539  10.620 -0.7775 -0.8320  0.1010
  177SOPE    HA20113   2.093   2.603  10.559  0.9546 -0.0848 -1.0901
  177SOPE    HB20114   2.112   2.445  10.656 -1.8073 -0.4145 -0.1600
  177SOPE    C220115   2.269   2.499  10.515 -0.3492 -0.6234 -0.3571
  177SOPE    HS20116   2.342   2.419  10.540 -0.7013 -0.6263  0.7251
  177SOPE   O2120117   2.337   2.616  10.467 -0.3003 -0.9589  0.3107
  177SOPE   C2120118   2.472   2.620  10.495 -0.2994 -0.5226  0.1823
  177SOPE   O2220119   2.528   2.549  10.582  0.1418 -0.8791 -0.3293
  177SOPE   C2220120   2.534   2.740  10.416  0.4122 -0.0444 -0.0349
  177SOPE   H2R20121   2.570   2.818  10.487 -1.2086  1.5567 -0.8680
  177SOPE   H2S20122   2.463   2.788  10.345  1.9543  0.7639 -1.0979
  177SOPE    C320123   2.193   2.424  10.404  0.6950  0.2797  0.4295
  177SOPE    HX20124   2.092   2.468  10.388 -0.3178 -2.1264 -0.2110
  177SOPE    HY20125   2.160   2.322  10.431  0.0559 -0.1958 -1.8801
  177SOPE   O3120126   2.277   2.407  10.287  0.0310 -0.4977 -0.7173
  177SOPE   C3120127   2.223   2.426  10.169  0.0035  0.4729 -0.3117
  177SOPE   O3220128   2.114   2.476  10.149 -0.1345 -0.3119  0.5867
  177SOPE   C3220129   2.305   2.376  10.051 -0.7586  0.0193  0.6934
  177SOPE   H2X20130   2.316   2.266  10.062 -1.9313 -0.1333  0.4343
  177SOPE   H2Y20131   2.410   2.413  10.061  0.1475 -2.5973  1.8954
  177SOPE   C2320132   2.667   2.701  10.336  1.1506 -0.3957 -0.7113
  177SOPE   H3R20133   2.731   2.624  10.384  0.0871 -0.6542  0.3380
  177SOPE   H3S20134   2.720   2.798  10.335  2.5367 -1.1346 -1.9130
  177SOPE   C2420135   2.644   2.654  10.195 -0.7383 -0.7188  0.1559
  177SOPE   H4R20136   2.622   2.545  10.200 -0.6904 -0.7136  0.4892
  177SOPE   H4S20137   2.545   2.700  10.175 -0.1941  2.1657  3.2116
  177SOPE   C2520138   2.760   2.684  10.095 -1.0300  0.2680 -0.4408
  177SOPE   H5R20139   2.792   2.790  10.107 -1.0874  0.4791 -1.9477
  177SOPE   H5S20140   2.851   2.637  10.136 -0.8024  0.8259 -0.2989
  177SOPE   C2620141   2.717   2.648   9.953 -0.1493 -0.1264 -0.5822
  177SOPE   H6R20142   2.703   2.539   9.939 -3.3274  0.0286  0.5403
  177SOPE   H6S20143   2.612   2.684   9.945 -1.0187 -2.3158  0.1416
  177SOPE   C2720144   2.811   2.708   9.852  0.5565 -0.1195 -0.0631
  177SOPE   H7R20145   2.800   2.817   9.869 -2.9883 -0.4059  0.1918
  177SOPE   H7S20146   2.914   2.673   9.876  0.4437 -1.4455 -1.3745
  177SOPE   C2820147   2.772   2.690   9.701 -0.2559  0.4407  0.0034
  177SOPE   H8R20148   2.740   2.584   9.700 -1.8039  0.8639 -1.8979
  177SOPE   H8S20149   2.682   2.746   9.669 -0.0755 -0.9648 -3.4475
  177SOPE   C2920150   2.900   2.699   9.617 -0.0634 -0.6244  0.5434
  177SOPE   H9120151   2.984   2.752   9.663 -1.3528  2.7655 -0.7246
  177SOPE  C21020152   2.905   2.659   9.485  0.1461 -1.3781  0.6775
  177SOPE  H10120153   3.007   2.658   9.443  1.1912  0.2493  2.9784
  177SOPE  C21120154   2.799   2.585   9.400 -0.5826 -0.0631 -0.2474
  177SOPE  H11R20155   2.726   2.535   9.467  0.0879  0.7031  1.0801
  177SOPE  H11S20156   2.841   2.507   9.332 -2.4212 -1.2549 -0.1082
  177SOPE  C21220157   2.727   2.686   9.311 -0.3695 -0.1157 -0.0039
  177SOPE  H12R20158   2.658   2.764   9.349 -0.4938 -0.4991  0.5659
  177SOPE  H12S20159   2.653   2.629   9.249 -1.2965  1.9746 -0.9002
  177SOPE  C21320160   2.817   2.765   9.213  0.4847  0.5035  0.2570
  177SOPE  H13R20161   2.859   2.852   9.269 -1.7122  2.3694 -0.8221
  177SOPE  H13S20162   2.750   2.824   9.147 -0.1590 -0.2562  0.2212
  177SOPE  C21420163   2.912   2.684   9.125  0.5718  0.3178  0.0816
  177SOPE  H14R20164   2.853   2.603   9.077  2.0735 -1.2546  0.7422
  177SOPE  H14S20165   2.981   2.626   9.190  2.0171  1.0013 -0.7929
  177SOPE  C21520166   2.979   2.763   9.012  0.3208  0.2482  0.1128
  177SOPE  H15R20167   3.041   2.843   9.059  0.3167 -0.0102  0.5665
  177SOPE  H15S20168   2.900   2.800   8.944  0.8220 -1.9075 -1.7519
  177SOPE  C21620169   3.076   2.687   8.920 -0.3125 -0.1903 -0.4392
  177SOPE  H16R20170   3.034   2.591   8.885  0.5537 -1.6276  2.1864
  177SOPE  H16S20171   3.160   2.674   8.992 -1.4208 -0.0118  0.9124
  177SOPE  C21720172   3.107   2.779   8.799  0.0217 -0.0919  1.0429
  177SOPE  H17R20173   3.178   2.860   8.826  0.7893  0.1981 -1.5502
  177SOPE  H17S20174   3.014   2.830   8.767 -0.0133 -1.1231 -0.6032
  177SOPE  C21820175   3.175   2.709   8.677  0.0285  0.4379  0.7662
  177SOPE  H18R20176   3.182   2.784   8.596 -2.4148  0.2259  0.2801
  177SOPE  H18S20177   3.110   2.631   8.632  0.6397  0.5252 -0.2819
  177SOPE  H18T20178   3.273   2.665   8.706 -0.3993 -1.6561 -0.7050
  177SOPE   C3320179   2.255   2.414   9.910 -0.4312  0.4069 -0.1390
  177SOPE   H3X20180   2.255   2.523   9.893  0.2382  0.3692 -0.4233
  177SOPE   H3Y20181   2.149   2.381   9.903 -0.6004  0.4050  1.8232
  177SOPE   C3420182   2.346   2.349   9.797  1.3705  0.0983  0.9080
  177SOPE   H4X20183   2.320   2.241   9.795  0.8381  0.2220  1.0849
  177SOPE   H4Y20184   2.456   2.350   9.815  2.1442  0.1353 -2.9333
  177SOPE   C3520185   2.320   2.417   9.662  0.7590  0.1942  0.4065
  177SOPE   H5X20186   2.369   2.516   9.663  1.7442 -0.2879  1.0549
  177SOPE   H5Y20187   2.210   2.435   9.658  0.4654 -1.5394 -0.1701
  177SOPE   C3620188   2.368   2.337   9.538  1.2581 -0.1901 -0.5247
  177SOPE   H6X20189   2.303   2.247   9.544 -0.0713  0.8129  0.7344
  177SOPE   H6Y20190   2.479   2.323   9.541  1.7496  3.1820  1.3559
  177SOPE   C3720191   2.326   2.409   9.410  0.4590  0.3918 -0.6556
  177SOPE   H7X20192   2.377   2.507   9.423 -0.8694  0.8704  1.3080
  177SOPE   H7Y20193   2.218   2.432   9.406  0.2291 -0.6031 -0.3693
  177SOPE   C3820194   2.373   2.357   9.280  0.2416 -0.3058  0.8606
  177SOPE   H8X20195   2.357   2.249   9.258 -2.8231  0.6447 -2.5365
  177SOPE   H8Y20196   2.483   2.373   9.276  0.2271  0.1143  1.9278
  177SOPE   C3920197   2.317   2.418   9.150 -0.7257 -0.6435  0.3910
  177SOPE   H9X20198   2.335   2.527   9.166 -0.0787 -0.5299 -1.0082
  177SOPE   H9Y20199   2.207   2.403   9.146 -0.8645  0.6183 -1.7301
  177SOPE  C31020200   2.381   2.370   9.024  0.3058 -0.0254  0.4080
  177SOPE  H10X20201   2.311   2.403   8.945 -1.2535 -2.1931  0.7999
  177SOPE  H10Y20202   2.399   2.261   9.015 -1.3792 -0.1364 -3.5838
  177SOPE  C31120203   2.516   2.443   9.004  0.3530 -0.4692  0.5688
  177SOPE  H11X20204   2.594   2.398   9.070  1.6981 -0.5675 -1.0071
  177SOPE  H11Y20205   2.505   2.548   9.039 -0.8661 -0.9290  1.6425
  177SOPE  C31220206   2.555   2.438   8.851 -0.5454  0.1504 -0.1742
  177SOPE  H12X20207   2.471   2.480   8.793 -2.0003  1.1313  2.4648
  177SOPE  H12Y20208   2.565   2.330   8.828 -2.1840 -0.2544  0.8294
  177SOPE  C31320209   2.688   2.510   8.817 -0.5098  0.1093 -0.3370
  177SOPE  H13X20210   2.767   2.471   8.885 -1.0283  1.4504  1.1071
  177SOPE  H13Y20211   2.685   2.618   8.845  0.8017 -0.4265  2.1848
  177SOPE  C31420212   2.732   2.492   8.675 -0.0979  0.3019 -0.2290
  177SOPE  H14X20213   2.685   2.397   8.642  1.2071 -0.1358 -0.9044
  177SOPE  H14Y20214   2.840   2.471   8.655 -0.5771 -0.9033 -1.7631
  177SOPE  C31520215   2.688   2.610   8.590 -0.1436 -0.2623 -0.1643
  177SOPE  H15X20216   2.763   2.684   8.556 -0.8384 -0.4079 -2.1380
  177SOPE  H15Y20217   2.615   2.672   8.646  2.0808 -0.1181  2.8723
  177SOPE  C31620218   2.629   2.563   8.455 -0.0480  0.3421  0.3080
  177SOPE  H16X20219   2.527   2.524   8.476 -1.0578  3.1751  1.2496
  177SOPE  H16Y20220   2.691   2.482   8.410 -0.0637  1.0303 -1.0258
  177SOPE  C31720221   2.626   2.670   8.344 -0.5651  0.0071 -0.1488
  177SOPE  H17X20222   2.589   2.626   8.249 -0.0514 -0.6957 -0.0312
  177SOPE  H17Y20223   2.723   2.716   8.317 -1.1450  1.9731  0.9124
  177SOPE  C31820224   2.544   2.797   8.375  0.8456 -1.1415 -0.3446
  177SOPE  H18X20225   2.572   2.876   8.302  0.8366  0.1935  1.0432
  177SOPE  H18Y20226   2.558   2.850   8.471 -1.4260  2.2295 -1.7022
  177SOPE  H18Z20227   2.437   2.770   8.371  0.7532 -0.7303 -0.7182
  178SOPE     N20228   6.110   0.031  10.925 -0.4942 -0.0518 -0.0149
  178SOPE   HN120229   6.160  -0.020  11.001  3.0153 -0.3427 -2.2456
  178SOPE   HN220230   6.167   0.011  10.840 -2.3592  2.6009 -2.0663
  178SOPE   HN320231   6.106   0.135  10.932 -2.7485 -0.1775  1.4878
  178SOPE   C1220232   5.970  -0.022  10.903  0.4170 -0.0598  0.6352
  178SOPE  H12A20233   5.903   0.052  10.953  0.8143  1.0751 -0.4424
  178SOPE  H12B20234   5.957  -0.118  10.957 -0.9831  0.7714  1.8550
  178SOPE   C1120235   5.928  -0.000  10.755 -0.0428 -0.0373  0.3743
  178SOPE  H11A20236   5.823  -0.029  10.732 -0.4131  1.5466 -0.0321
  178SOPE  H11B20237   5.987  -0.067  10.688  0.2228 -0.1647  0.7314
  178SOPE     P20238   5.906   0.200  10.575 -0.4035  0.4373  0.5176
  178SOPE   O1320239   6.021   0.230  10.486 -0.1818 -0.2620  0.3037
  178SOPE   O1420240   5.830   0.320  10.617 -0.6510 -0.4444 -0.5648
  178SOPE   O1220241   5.955   0.131  10.711 -0.0617 -0.4458 -0.2302
  178SOPE   O1120242   5.806   0.101  10.501  0.0332 -0.4014 -0.1623
  178SOPE    C120243   5.856  -0.028  10.440 -0.2989 -0.4332  0.1941
  178SOPE    HA20244   5.813  -0.120  10.485 -1.5669  0.2616  0.4504
  178SOPE    HB20245   5.967  -0.037  10.446 -0.2077  1.0064  1.1308
  178SOPE    C220246   5.820  -0.046  10.292 -0.6543  0.0685 -0.4569
  178SOPE    HS20247   5.852  -0.145  10.253 -0.5869 -0.2719  0.4410
  178SOPE   O2120248   5.888   0.051  10.206  0.0145  0.4721 -0.3283
  178SOPE   C2120249   6.017   0.029  10.193  0.0764  0.1187  0.1537
  178SOPE   O2220250   6.073  -0.069  10.235  0.5256  0.3630 -0.2743
  178SOPE   C2220251   6.088   0.156  10.142  0.0771 -0.3927 -0.7282
  178SOPE   H2R20252   6.197   0.134  10.154  0.1486  0.9701  1.9686
  178SOPE   H2S20253   6.058   0.236  10.214  0.4555 -0.3073 -0.6608
  178SOPE    C320254   5.665  -0.028  10.271 -0.1472  0.0579 -0.3326
  178SOPE    HX20255   5.637   0.076  10.301 -0.2830  0.3195 -1.3410
  178SOPE    HY20256   5.611  -0.100  10.336 -0.9943 -0.6086 -1.7250
  178SOPE   O3120257   5.629  -0.041  10.130  0.2599 -0.5526 -0.5389
  178SOPE   C3120258   5.630  -0.167  10.091 -0.9860 -0.5021 -0.2627
  178SOPE   O3220259   5.658  -0.261  10.163  0.7470  0.2958  0.4408
  178SOPE   C3220260   5.595  -0.168   9.944  0.1416 -0.7864 -0.2850
  178SOPE   H2X20261   5.501  -0.111   9.926  0.3398 -0.6876 -1.0453
  178SOPE   H2Y20262   5.591  -0.274   9.911 -0.4540 -0.6112 -0.8036
  178SOPE   C2320263   6.063   0.192   9.988 -0.1505  0.2834  0.1010
  178SOPE   H3R20264   6.124   0.284   9.977  2.1441 -1.1259  0.1810
  178SOPE   H3S20265   5.956   0.209   9.963 -0.6150  0.1831  1.8648
  178SOPE   C2420266   6.130   0.099   9.889 -0.5753 -0.4257 -0.4431
  178SOPE   H4R20267   6.078   0.002   9.877 -1.4803 -0.6539  3.7900
  178SOPE   H4S20268   6.119   0.143   9.788 -1.9371  0.9941  0.2836
  178SOPE   C2520269   6.282   0.063   9.927  0.8473 -0.1931  0.2283
  178SOPE   H5R20270   6.333   0.155   9.964  0.2219  0.6936 -1.0677
  178SOPE   H5S20271   6.288  -0.012  10.009  2.5734  0.3193  0.6169
  178SOPE   C2620272   6.361   0.004   9.812  0.7759 -0.0321 -0.3747
  178SOPE   H6R20273   6.375   0.086   9.739  0.0239  1.3768  0.9958
  178SOPE   H6S20274   6.460  -0.025   9.854  1.5082  2.4627 -0.2440
  178SOPE   C2720275   6.300  -0.124   9.746  0.2002  0.6596  0.2226
  178SOPE   H7R20276   6.277  -0.185   9.836 -0.4821  2.2628  1.1922
  178SOPE   H7S20277   6.205  -0.103   9.692  0.3206 -3.3034 -1.8484
  178SOPE   C2820278   6.393  -0.211   9.659  0.0159 -0.3585  0.7325
  178SOPE   H8R20279   6.416  -0.164   9.561 -1.8873 -0.0054  0.4241
  178SOPE   H8S20280   6.485  -0.213   9.722  0.0029 -0.5658  0.7424
  178SOPE   C2920281   6.328  -0.341   9.639 -0.3732  0.4656 -0.2029
  178SOPE   H9120282   6.376  -0.424   9.693 -0.0808 -0.3404 -1.6393
  178SOPE  C21020283   6.226  -0.367   9.558  0.5326  0.2423 -0.7123
  178SOPE  H10120284   6.190  -0.470   9.546  0.3039  0.0363  1.4369
  178SOPE  C21120285   6.158  -0.271   9.472 -0.1490 -0.3205  0.1735
  178SOPE  H11R20286   6.192  -0.165   9.477  0.0962 -0.3857 -0.1252
  178SOPE  H11S20287   6.047  -0.274   9.474 -0.1467 -1.1082 -0.5275
  178SOPE  C21220288   6.193  -0.310   9.326  0.2090  0.2323  0.2061
  178SOPE  H12R20289   6.132  -0.401   9.307  1.9817 -1.1653  0.8488
  178SOPE  H12S20290   6.293  -0.350   9.299 -0.6825 -1.0530 -1.3812
  178SOPE  C21320291   6.138  -0.213   9.219  0.3487  0.3327  0.1563
  178SOPE  H13R20292   6.213  -0.134   9.196  0.7736 -0.1248 -0.0422
  178SOPE  H13S20293   6.052  -0.163   9.270 -1.9228 -2.6897 -0.4286
  178SOPE  C21420294   6.089  -0.276   9.093  0.0334  0.9642  0.4009
  178SOPE  H14R20295   5.987  -0.320   9.101  0.5632 -0.3661  0.1963
  178SOPE  H14S20296   6.139  -0.374   9.076 -2.2193 -0.0547 -0.7028
  178SOPE  C21520297   6.093  -0.185   8.961 -0.2271  0.1351 -0.7094
  178SOPE  H15R20298   6.196  -0.144   8.951 -0.7671  1.6489 -0.3342
  178SOPE  H15S20299   6.014  -0.110   8.982 -0.9361 -1.0021  0.8670
  178SOPE  C21620300   6.048  -0.269   8.849 -0.2856  0.3993  0.0380
  178SOPE  H16R20301   5.963  -0.332   8.882 -1.4603  2.4584  1.1711
  178SOPE  H16S20302   6.126  -0.333   8.803 -1.1334  1.5428 -3.2003
  178SOPE  C21720303   5.988  -0.182   8.742 -0.2255 -0.3592  0.3638
  178SOPE  H17R20304   5.913  -0.116   8.791 -0.7748 -2.0347  1.8682
  178SOPE  H17S20305   5.936  -0.256   8.678 -0.2937 -0.2579  0.3026
  178SOPE  C21820306   6.090  -0.085   8.670  0.0913 -0.3576 -0.0848
  178SOPE  H18R20307   6.142  -0.132   8.584 -0.0955  1.3088 -1.1489
  178SOPE  H18S20308   6.165  -0.037   8.737 -0.4965  0.7550 -0.2095
  178SOPE  H18T20309   6.032  -0.004   8.622 -0.7019 -1.0394 -0.3151
  178SOPE   C3320310   5.707  -0.090   9.877 -0.2966  0.0677 -0.4570
  178SOPE   H3X20311   5.805  -0.141   9.882  0.0515  0.7933  0.2320
  178SOPE   H3Y20312   5.711   0.012   9.922 -0.9215 -0.6598  1.3070
  178SOPE   C3420313   5.682  -0.072   9.733  0.3519 -0.3058 -0.2664
  178SOPE   H4X20314   5.770  -0.013   9.700  1.2794 -1.4251  0.1227
  178SOPE   H4Y20315   5.595  -0.013   9.699  0.5650  0.3617  0.3186
  178SOPE   C3520316   5.688  -0.205   9.650 -0.0460 -0.8697 -0.2605
  178SOPE   H5X20317   5.586  -0.249   9.659 -0.6319  0.7935  2.6910
  178SOPE   H5Y20318   5.758  -0.270   9.706  0.4498 -0.7539 -0.7449
  178SOPE   C3620319   5.716  -0.192   9.505  0.1722 -0.2881  0.4076
  178SOPE   H6X20320   5.807  -0.132   9.482 -0.6528  1.1225  0.7164
  178SOPE   H6Y20321   5.634  -0.132   9.460 -0.1621  1.4146  3.0667
  178SOPE   C3720322   5.725  -0.324   9.427  0.1649 -0.0168 -0.2155
  178SOPE   H7X20323   5.626  -0.370   9.446 -0.0416  0.2760 -0.5689
  178SOPE   H7Y20324   5.795  -0.389   9.483  2.0066  1.4267 -0.7236
  178SOPE   C3820325   5.741  -0.310   9.279  0.7423  0.2496 -0.1301
  178SOPE   H8X20326   5.721  -0.407   9.228 -2.2020  0.1909  0.9755
  178SOPE   H8Y20327   5.852  -0.302   9.271  0.6908  0.2511 -0.9650
  178SOPE   C3920328   5.647  -0.219   9.192 -0.2622  0.2232  0.0896
  178SOPE   H9X20329   5.660  -0.114   9.228  0.8741 -0.0430  0.4920
  178SOPE   H9Y20330   5.542  -0.247   9.216 -0.9711  1.6922 -1.1121
  178SOPE  C31020331   5.664  -0.231   9.038  0.3233 -0.2728 -0.3675
  178SOPE  H10X20332   5.651  -0.334   8.998  0.6046 -0.5856  0.3170
  178SOPE  H10Y20333   5.768  -0.225   8.999  0.1950 -2.3223 -1.1527
  178SOPE  C31120334   5.581  -0.119   8.975  0.3393  0.2552 -0.1534
  178SOPE  H11X20335   5.603  -0.018   9.015 -0.3173  0.2908  0.1315
  178SOPE  H11Y20336   5.473  -0.144   8.989  0.8759 -1.8431  0.7478
  178SOPE  C31220337   5.604  -0.120   8.817  0.1295 -0.7654  0.1653
  178SOPE  H12X20338   5.614  -0.220   8.769 -0.3411  0.0081 -1.6532
  178SOPE  H12Y20339   5.690  -0.055   8.789  0.8990 -2.1210 -0.7340
  178SOPE  C31320340   5.482  -0.052   8.744 -0.4734  0.0329 -0.1787
  178SOPE  H13X20341   5.392  -0.113   8.769  0.4848 -0.8339  1.3417
  178SOPE  H13Y20342   5.501  -0.055   8.635  0.3961 -0.2692 -0.0297
  178SOPE  C31420343   5.468   0.098   8.785 -0.2315 -0.5781  0.3008
  178SOPE  H14X20344   5.557   0.153   8.747 -1.5702  1.7677  0.3526
  178SOPE  H14Y20345   5.467   0.105   8.896 -3.8256 -3.3653  0.6197
  178SOPE  C31520346   5.351   0.169   8.711 -0.0226 -0.1347  0.2826
  178SOPE  H15X20347   5.249   0.126   8.712  0.0277 -0.3552 -1.4658
  178SOPE  H15Y20348   5.379   0.183   8.605  2.1459  0.3218  0.8619
  178SOPE  C31620349   5.338   0.317   8.745 -0.3397 -0.3586 -0.1498
  178SOPE  H16X20350   5.340   0.321   8.856 -0.0110 -3.0562  0.0034
  178SOPE  H16Y20351   5.242   0.366   8.715 -0.7989 -1.6525 -0.8551
  178SOPE  C31720352   5.449   0.412   8.704  0.0551 -0.3202 -0.1525
  178SOPE  H17X20353   5.431   0.437   8.597 -4.1310 -0.8366  0.2451
  178SOPE  H17Y20354   5.544   0.358   8.721  1.8369  2.1466 -1.6854
  178SOPE  C31820355   5.442   0.539   8.783  0.8109 -0.9534  0.1401
  178SOPE  H18X20356   5.469   0.524   8.890 -1.4626 -0.5655  0.8283
  178SOPE  H18Y20357   5.345   0.593   8.777  0.8747 -0.9190 -0.6683
  178SOPE  H18Z20358   5.522   0.610   8.752  0.1002 -1.1311 -2.2996
  179SOPE     N20359   4.804   2.470   6.210 -0.0171  0.4474  0.3913
  179SOPE   HN120360   4.808   2.573   6.193  3.6683  0.3829  0.0218
  179SOPE   HN220361   4.715   2.422   6.186  0.2682 -0.6292  1.4214
  179SOPE   HN320362   4.822   2.445   6.309 -1.6430 -2.0908  0.1368
  179SOPE   C1220363   4.926   2.398   6.146  0.3384 -0.1320 -0.6153
  179SOPE  H12A20364   5.016   2.432   6.201 -0.8331  0.7038  0.8604
  179SOPE  H12B20365   4.936   2.425   6.038 -1.4190  2.4836 -0.2191
  179SOPE   C1120366   4.914   2.245   6.153 -0.0419 -0.5991  0.8210
  179SOPE  H11A20367   4.930   2.208   6.257  1.1341 -3.0975 -0.1754
  179SOPE  H11B20368   4.997   2.195   6.100  1.8716  1.2682  1.8826
  179SOPE     P20369   4.707   2.091   6.177  0.0242 -0.2186 -0.0057
  179SOPE   O1320370   4.762   1.966   6.138  0.2798 -0.0734  0.4520
  179SOPE   O1420371   4.563   2.104   6.150  0.4634 -0.7088  0.3558
  179SOPE   O1220372   4.783   2.214   6.108  0.4152 -0.0503 -0.6551
  179SOPE   O1120373   4.730   2.121   6.325  0.1694 -0.6134 -0.0231
  179SOPE    C120374   4.615   2.098   6.422 -0.6126 -0.1379 -0.3121
  179SOPE    HA20375   4.560   2.014   6.373  0.9556  0.9077 -4.2905
  179SOPE    HB20376   4.552   2.189   6.418  1.9353  1.7093 -1.0102
  179SOPE    C220377   4.674   2.067   6.566  0.0454 -0.3722  0.1308
  179SOPE    HS20378   4.751   1.989   6.548  1.8749  0.1657  4.3812
  179SOPE   O2120379   4.566   2.016   6.651 -0.0694 -0.0857  0.0791
  179SOPE   C2120380   4.526   1.890   6.629 -0.3410 -0.3391 -0.1082
  179SOPE   O2220381   4.566   1.818   6.536 -0.3654  0.1925  0.4079
  179SOPE   C2220382   4.433   1.843   6.736  0.2455  0.5546  0.1694
  179SOPE   H2R20383   4.415   1.734   6.723 -1.0227  0.8552 -0.7374
  179SOPE   H2S20384   4.336   1.897   6.734  1.1952  2.3109  0.0226
  179SOPE    C320385   4.755   2.190   6.630 -0.1033 -0.1002  0.4157
  179SOPE    HX20386   4.697   2.281   6.602  1.9509  0.6430 -1.6865
  179SOPE    HY20387   4.851   2.199   6.576 -1.1885  1.0613 -1.4195
  179SOPE   O3120388   4.775   2.174   6.779 -0.2852  0.6193  0.8221
  179SOPE   C3120389   4.855   2.073   6.812  0.2408 -0.3299 -0.3986
  179SOPE   O3220390   4.909   2.000   6.731  0.3317  0.2562  0.5869
  179SOPE   C3220391   4.863   2.063   6.966  0.2942  0.0562 -0.2817
  179SOPE   H2X20392   4.759   2.060   7.007  0.2283 -1.0458 -0.4939
  179SOPE   H2Y20393   4.920   2.151   7.001 -1.6745  0.6745  1.5910
  179SOPE   C2320394   4.504   1.862   6.877  0.0797  0.2438  1.1290
  179SOPE   H3R20395   4.562   1.956   6.884  2.2701 -0.8258 -1.0390
  179SOPE   H3S20396   4.566   1.771   6.886  0.1832  0.0084 -1.2277
  179SOPE   C2420397   4.427   1.848   7.011  0.3610  0.0881 -0.1040
  179SOPE   H4R20398   4.360   1.934   7.034  1.1043  0.4536  0.7314
  179SOPE   H4S20399   4.364   1.756   7.003 -2.0514  1.7142 -1.1104
  179SOPE   C2520400   4.519   1.836   7.126  0.2424 -0.6376 -0.5245
  179SOPE   H5R20401   4.582   1.744   7.122  1.8935  0.2769  1.8515
  179SOPE   H5S20402   4.595   1.918   7.126  1.1758 -1.3980  1.6798
  179SOPE   C2620403   4.449   1.819   7.266 -0.3184 -0.7817 -0.2112
  179SOPE   H6R20404   4.364   1.888   7.286 -2.1106 -3.0282  0.3210
  179SOPE   H6S20405   4.398   1.721   7.266 -1.5866 -0.1477 -0.3174
  179SOPE   C2720406   4.552   1.814   7.378  0.2260 -0.5064 -1.4494
  179SOPE   H7R20407   4.627   1.737   7.351 -2.0649 -3.0977 -0.8452
  179SOPE   H7S20408   4.593   1.917   7.385 -0.9516  0.0241 -2.0731
  179SOPE   C2820409   4.484   1.778   7.515  0.2549  0.4035 -0.5776
  179SOPE   H8R20410   4.423   1.689   7.489  2.5022 -1.5359  0.3741
  179SOPE   H8S20411   4.570   1.748   7.579  1.3317  3.1000 -0.6127
  179SOPE   C2920412   4.412   1.896   7.568  0.3765  0.0730  0.5091
  179SOPE   H9120413   4.356   1.963   7.501 -1.3188  1.4944  3.1667
  179SOPE  C21020414   4.413   1.937   7.696 -0.2174  0.5834 -0.2382
  179SOPE  H10120415   4.341   2.006   7.741 -1.4601 -1.8942  1.8523
  179SOPE  C21120416   4.484   1.887   7.814  0.4482 -0.4481  0.4946
  179SOPE  H11R20417   4.564   1.958   7.841  0.0825  0.6869 -1.2302
  179SOPE  H11S20418   4.527   1.786   7.800 -2.2358 -1.3651 -2.6000
  179SOPE  C21220419   4.394   1.869   7.946 -0.5931  0.8199  0.5613
  179SOPE  H12R20420   4.322   1.790   7.918  0.1259  0.6592 -0.8852
  179SOPE  H12S20421   4.335   1.961   7.967 -2.3330 -0.3071  0.8542
  179SOPE  C21320422   4.471   1.828   8.079 -0.3070 -0.6351  0.2773
  179SOPE  H13R20423   4.536   1.917   8.095 -1.7996  0.7342 -0.8332
  179SOPE  H13S20424   4.532   1.738   8.060 -1.1751 -1.1402 -0.2201
  179SOPE  C21420425   4.384   1.815   8.198 -0.2568  0.0791 -0.1735
  179SOPE  H14R20426   4.318   1.726   8.190  0.9674 -0.8543 -0.2656
  179SOPE  H14S20427   4.329   1.912   8.202  1.1724  0.9833 -1.5900
  179SOPE  C21520428   4.471   1.826   8.322  0.5237  0.4758  0.3854
  179SOPE  H15R20429   4.545   1.908   8.311  0.7123  0.2506 -0.0419
  179SOPE  H15S20430   4.530   1.732   8.318  1.1431  0.7919  1.6097
  179SOPE  C21620431   4.404   1.838   8.457 -0.3952  0.4668 -0.5505
  179SOPE  H16R20432   4.325   1.914   8.468  1.2574  2.2539 -0.5355
  179SOPE  H16S20433   4.481   1.857   8.536  0.6167  1.3935 -1.7224
  179SOPE  C21720434   4.342   1.700   8.493 -0.3657  0.3934  0.2667
  179SOPE  H17R20435   4.414   1.620   8.468 -0.9417 -0.0496 -0.0017
  179SOPE  H17S20436   4.265   1.688   8.413 -0.5410 -3.0732  0.8169
  179SOPE  C21820437   4.304   1.676   8.640 -0.6239 -0.4343 -0.5159
  179SOPE  H18R20438   4.240   1.585   8.640 -3.0941  1.1473  1.4790
  179SOPE  H18S20439   4.243   1.761   8.679  1.2747  0.7666 -0.0556
  179SOPE  H18T20440   4.393   1.662   8.705 -0.3096  2.1168 -0.2730
  179SOPE   C3320441   4.931   1.933   7.024  0.6417  0.4034  0.6107
  179SOPE   H3X20442   5.009   1.903   6.950  0.5747 -1.1260  1.1238
  179SOPE   H3Y20443   4.860   1.847   7.021  0.3235  0.6781 -2.0335
  179SOPE   C3420444   4.989   1.945   7.168  0.0074  0.0022  0.2560
  179SOPE   H4X20445   5.061   2.030   7.174  0.1447 -0.1346  0.5595
  179SOPE   H4Y20446   5.033   1.848   7.201 -1.2879 -1.0234 -0.9329
  179SOPE   C3520447   4.891   1.970   7.285 -0.2156  1.0808  0.3246
  179SOPE   H5X20448   4.821   1.884   7.280  1.8033 -0.6519  0.6385
  179SOPE   H5Y20449   4.837   2.065   7.265 -2.8933 -0.9369 -3.4462
  179SOPE   C3620450   4.968   1.960   7.417  0.1128  0.4898  0.3758
  179SOPE   H6X20451   5.045   2.040   7.423  2.3066 -1.5066  0.2617
  179SOPE   H6Y20452   5.011   1.858   7.425 -2.5024 -0.8183 -0.7420
  179SOPE   C3720453   4.881   1.956   7.543  0.0376 -0.2540 -0.0737
  179SOPE   H7X20454   4.922   1.881   7.614 -2.3102 -1.4051  0.1746
  179SOPE   H7Y20455   4.777   1.921   7.527 -0.6518  0.6919  1.9902
  179SOPE   C3820456   4.885   2.091   7.610  0.0081  0.0136  0.1699
  179SOPE   H8X20457   4.856   2.169   7.536 -0.1629 -0.8069 -0.6591
  179SOPE   H8Y20458   4.983   2.111   7.656 -0.2826  0.0005  0.8061
  179SOPE   C3920459   4.785   2.095   7.728  0.7164  0.3472  0.0109
  179SOPE   H9X20460   4.793   2.009   7.797  0.4793  0.4669  0.1912
  179SOPE   H9Y20461   4.685   2.091   7.681  1.1102  3.6057 -1.4106
  179SOPE  C31020462   4.808   2.227   7.804 -0.5595 -0.3206 -0.2735
  179SOPE  H10X20463   4.802   2.320   7.744 -2.4230  0.3209  0.8117
  179SOPE  H10Y20464   4.910   2.221   7.847 -1.2185 -1.1667  1.2844
  179SOPE  C31120465   4.716   2.255   7.919 -0.0026  0.7069 -0.2532
  179SOPE  H11X20466   4.611   2.229   7.895 -0.0239  0.5007  0.0499
  179SOPE  H11Y20467   4.725   2.364   7.936  0.9701  1.1211 -2.9123
  179SOPE  C31220468   4.754   2.182   8.054  0.3617  0.2529 -0.0009
  179SOPE  H12X20469   4.857   2.212   8.085  0.1538  0.3348  0.6235
  179SOPE  H12Y20470   4.754   2.071   8.045  3.3192  0.1020  0.5667
  179SOPE  C31320471   4.670   2.218   8.178 -0.3419  1.0870 -0.0496
  179SOPE  H13X20472   4.687   2.151   8.264 -0.2629  0.6779 -0.3845
  179SOPE  H13Y20473   4.564   2.209   8.145  0.0283  0.7375 -1.1820
  179SOPE  C31420474   4.695   2.359   8.236  0.0834  0.9005  0.0972
  179SOPE  H14X20475   4.603   2.395   8.287  0.5635  1.1403  0.8189
  179SOPE  H14Y20476   4.708   2.424   8.147 -3.5172 -0.6318 -1.7439
  179SOPE  C31520477   4.820   2.371   8.326  0.4833  0.5318  0.2794
  179SOPE  H15X20478   4.898   2.346   8.251  0.3738  0.6074  0.1417
  179SOPE  H15Y20479   4.824   2.311   8.420  0.6222  0.4887  0.2458
  179SOPE  C31620480   4.852   2.514   8.367 -0.0212  0.4945 -0.6009
  179SOPE  H16X20481   4.942   2.511   8.431 -1.6633  0.5518  1.8623
  179SOPE  H16Y20482   4.773   2.545   8.439  0.2749  1.3473 -0.6303
  179SOPE  C31720483   4.840   2.622   8.267  0.2139  0.2446 -0.2703
  179SOPE  H17X20484   4.730   2.633   8.250 -0.1028  1.7466  2.2479
  179SOPE  H17Y20485   4.900   2.587   8.180  2.8238 -1.6376  2.1360
  179SOPE  C31820486   4.905   2.752   8.310 -0.5284  0.1551  0.6092
  179SOPE  H18X20487   4.853   2.803   8.394  2.9177  1.7754  1.9488
  179SOPE  H18Y20488   4.905   2.820   8.222  1.1293 -1.1291 -0.4519
  179SOPE  H18Z20489   5.014   2.753   8.332 -0.7271 -0.1777  1.6650
  180SOPE     N20490   3.554   4.194   6.010 -0.3526  0.3940  0.1440
  180SOPE   HN120491   3.657   4.183   6.014 -0.0979  1.9444 -1.3764
  180SOPE   HN220492   3.510   4.102   5.986 -1.1246  0.9608 -0.6637
  180SOPE   HN320493   3.531   4.257   5.930 -2.2678  0.5023  0.7349
  180SOPE   C1220494   3.501   4.248   6.144  0.7229 -0.2220 -0.1239
  180SOPE  H12A20495   3.473   4.157   6.202  2.4561 -0.1723  0.8727
  180SOPE  H12B20496   3.413   4.310   6.116  1.9624  1.6270 -0.0663
  180SOPE   C1120497   3.608   4.332   6.200  0.8359 -0.4849 -0.0115
  180SOPE  H11A20498   3.701   4.276   6.176  0.8688 -0.8306  0.8835
  180SOPE  H11B20499   3.585   4.329   6.309 -2.5499 -0.9803 -0.6397
  180SOPE     P20500   3.517   4.581   6.195 -0.2838  0.1039 -0.0578
  180SOPE   O1320501   3.378   4.548   6.167  0.3280 -0.3784 -0.7073
  180SOPE   O1420502   3.570   4.707   6.144  0.4035  0.4752 -0.0060
  180SOPE   O1220503   3.603   4.462   6.139 -0.2859 -0.2644  0.1429
  180SOPE   O1120504   3.547   4.566   6.349  0.1881 -0.1320 -0.1836
  180SOPE    C120505   3.662   4.623   6.410  0.5037 -0.7058 -0.0367
  180SOPE    HA20506   3.633   4.718   6.460  1.6854 -0.6660  0.6136
  180SOPE    HB20507   3.745   4.628   6.337 -0.6798 -0.8192 -1.4267
  180SOPE    C220508   3.709   4.538   6.535  0.0255  0.2557  0.0073
  180SOPE    HS20509   3.717   4.432   6.502 -1.8801  0.4814 -1.3773
  180SOPE   O2120510   3.614   4.545   6.637  0.1695  0.5106  0.2348
  180SOPE   C2120511   3.613   4.455   6.739  0.4708 -0.2386  0.1518
  180SOPE   O2220512   3.682   4.353   6.734  0.0415  0.1191  0.3286
  180SOPE   C2220513   3.526   4.498   6.857  0.6574  0.7282 -0.4268
  180SOPE   H2R20514   3.419   4.468   6.860  0.9565 -0.2954  1.1051
  180SOPE   H2S20515   3.528   4.609   6.853 -0.5959  0.7352 -2.7093
  180SOPE    C320516   3.848   4.575   6.589 -0.6955 -0.2506 -0.0113
  180SOPE    HX20517   3.930   4.544   6.520 -1.1124  0.4396 -0.8337
  180SOPE    HY20518   3.863   4.504   6.674  1.6527 -1.1514 -1.0854
  180SOPE   O3120519   3.868   4.709   6.633  0.2975  0.6948 -0.0282
  180SOPE   C3120520   3.831   4.730   6.762 -0.1526 -0.8379  0.2177
  180SOPE   O3220521   3.829   4.640   6.847  0.5539 -0.0602  0.2197
  180SOPE   C3220522   3.794   4.872   6.770  0.5394 -0.0145  0.2415
  180SOPE   H2X20523   3.716   4.887   6.692  1.5717  1.1895 -0.6041
  180SOPE   H2Y20524   3.886   4.926   6.739 -0.0360  0.5439 -0.5423
  180SOPE   C2320525   3.579   4.448   6.991 -0.3992 -0.0199 -0.3175
  180SOPE   H3R20526   3.684   4.483   7.000 -0.5473 -0.0464  2.4026
  180SOPE   H3S20527   3.562   4.338   6.985 -1.7193  0.2531 -2.3081
  180SOPE   C2420528   3.498   4.489   7.118 -0.3171  0.1248  0.0015
  180SOPE   H4R20529   3.394   4.502   7.082 -0.7598 -0.0084  1.1944
  180SOPE   H4S20530   3.485   4.401   7.184 -0.7698  0.7513  0.7694
  180SOPE   C2520531   3.556   4.619   7.174  0.5018 -0.5991  0.2228
  180SOPE   H5R20532   3.666   4.619   7.162  0.2501  0.0887 -3.2705
  180SOPE   H5S20533   3.517   4.703   7.112  1.2221 -0.9312 -0.6972
  180SOPE   C2620534   3.528   4.651   7.327  0.0427 -0.5359 -1.2648
  180SOPE   H6R20535   3.591   4.575   7.378  1.5770  0.7655 -1.1157
  180SOPE   H6S20536   3.574   4.751   7.345  1.2061 -1.4763  1.6272
  180SOPE   C2720537   3.375   4.647   7.354  0.2722 -0.2705 -0.7432
  180SOPE   H7R20538   3.332   4.710   7.273 -2.9030 -0.1102  0.8874
  180SOPE   H7S20539   3.343   4.543   7.331 -0.3030 -0.4343  0.6921
  180SOPE   C2820540   3.323   4.689   7.494 -0.3228 -0.2878 -0.4715
  180SOPE   H8R20541   3.212   4.692   7.497 -0.2877  1.2518  1.0114
  180SOPE   H8S20542   3.352   4.607   7.563 -1.6821  0.1520  0.6759
  180SOPE   C2920543   3.388   4.822   7.521 -0.0405  0.8310  0.5960
  180SOPE   H9120544   3.370   4.898   7.444  1.1173 -0.0971 -0.6241
  180SOPE  C21020545   3.475   4.852   7.622 -0.1089  1.1026 -0.1788
  180SOPE  H10120546   3.499   4.960   7.625 -0.6540  1.3051 -1.8322
  180SOPE  C21120547   3.520   4.755   7.740 -0.0045  0.1514 -0.0486
  180SOPE  H11R20548   3.631   4.753   7.741 -0.0125 -0.8325 -0.1528
  180SOPE  H11S20549   3.485   4.650   7.732  0.7415 -0.3864  2.7909
  180SOPE  C21220550   3.472   4.818   7.876 -0.2645 -0.0564  0.2013
  180SOPE  H12R20551   3.486   4.742   7.955  2.1103 -1.0947 -1.1315
  180SOPE  H12S20552   3.362   4.834   7.872 -0.4539 -1.1489  0.6414
  180SOPE  C21320553   3.558   4.939   7.910 -0.2187 -0.3921 -0.1411
  180SOPE  H13R20554   3.552   5.021   7.836 -0.5332  2.3175  2.7167
  180SOPE  H13S20555   3.666   4.916   7.927  0.0488  2.0718  1.9974
  180SOPE  C21420556   3.512   4.986   8.049  0.1112 -0.3403 -0.2518
  180SOPE  H14R20557   3.589   5.041   8.108  0.3593 -2.1030  1.1473
  180SOPE  H14S20558   3.480   4.906   8.119  0.3834  1.4497  2.0356
  180SOPE  C21520559   3.400   5.089   8.035  0.5183  0.4108 -0.2113
  180SOPE  H15R20560   3.311   5.044   7.987  0.3756  0.3213  0.1430
  180SOPE  H15S20561   3.437   5.163   7.960  2.7611 -1.1688 -0.7809
  180SOPE  C21620562   3.347   5.150   8.165  0.1789  0.3390  0.1169
  180SOPE  H16R20563   3.304   5.080   8.240 -0.0449  0.4550  0.0971
  180SOPE  H16S20564   3.258   5.206   8.130 -0.6786 -1.1140 -0.0722
  180SOPE  C21720565   3.436   5.230   8.250 -0.1645 -0.2651  0.2667
  180SOPE  H17R20566   3.465   5.317   8.187  3.3307 -1.0663  0.5575
  180SOPE  H17S20567   3.527   5.177   8.284  0.4938  1.3572  1.1225
  180SOPE  C21820568   3.369   5.280   8.374  0.4129  0.1531 -0.3222
  180SOPE  H18R20569   3.432   5.356   8.426 -0.5185 -0.6168  2.0676
  180SOPE  H18S20570   3.353   5.198   8.448  0.2363 -1.0235 -1.6236
  180SOPE  H18T20571   3.274   5.326   8.341  0.9371  1.5282  0.0120
  180SOPE   C3320572   3.744   4.928   6.907  1.0482  0.6033 -0.6612
  180SOPE   H3X20573   3.642   4.894   6.934  1.2829  1.2794  1.2542
  180SOPE   H3Y20574   3.733   5.039   6.904 -0.4226  0.4878 -0.2825
  180SOPE   C3420575   3.833   4.889   7.030  0.4247 -0.3206 -0.8440
  180SOPE   H4X20576   3.935   4.925   7.004  0.5109 -0.4779 -0.7211
  180SOPE   H4Y20577   3.829   4.778   7.040 -0.6230 -0.2072  0.2678
  180SOPE   C3520578   3.786   4.965   7.159  0.1914 -0.1819 -0.9158
  180SOPE   H5X20579   3.676   4.961   7.173  0.2530 -0.6380 -0.5093
  180SOPE   H5Y20580   3.812   5.071   7.138 -1.8775  1.0817  2.0566
  180SOPE   C3620581   3.866   4.935   7.289  0.4644 -0.0519 -0.4268
  180SOPE   H6X20582   3.959   4.993   7.272 -0.2520  1.3473  0.2647
  180SOPE   H6Y20583   3.891   4.827   7.295  3.1178  0.4960 -0.6223
  180SOPE   C3720584   3.798   4.980   7.416  0.4429  0.2133  0.0099
  180SOPE   H7X20585   3.850   4.946   7.508 -1.9186 -1.9361  0.6873
  180SOPE   H7Y20586   3.694   4.940   7.409 -1.3762  4.0897  1.7785
  180SOPE   C3820587   3.790   5.133   7.433  0.0206  0.1926  0.1037
  180SOPE   H8X20588   3.766   5.190   7.341 -1.0513  2.1653  1.5405
  180SOPE   H8Y20589   3.891   5.172   7.457  0.2227  0.8874 -1.6771
  180SOPE   C3920590   3.698   5.180   7.543  0.9957  0.2023  0.0474
  180SOPE   H9X20591   3.616   5.106   7.556  1.1182 -0.3269 -1.9592
  180SOPE   H9Y20592   3.651   5.279   7.525 -0.7849 -0.7656 -0.9213
  180SOPE  C31020593   3.765   5.191   7.680  0.3281  0.5862 -0.7905
  180SOPE  H10X20594   3.866   5.234   7.668  0.2216  0.9345 -0.4441
  180SOPE  H10Y20595   3.779   5.087   7.716 -1.8681  0.4415 -0.1749
  180SOPE  C31120596   3.680   5.278   7.772  0.4495 -0.3406 -0.2727
  180SOPE  H11X20597   3.573   5.248   7.772 -0.0201  1.2362 -0.9871
  180SOPE  H11Y20598   3.686   5.380   7.730  2.4275 -0.5687 -0.6575
  180SOPE  C31220599   3.744   5.280   7.910 -0.1381 -0.4025  0.5563
  180SOPE  H12X20600   3.784   5.183   7.943  0.0230 -0.7094 -0.5010
  180SOPE  H12Y20601   3.665   5.310   7.982 -2.6678 -2.3939 -1.2060
  180SOPE  C31320602   3.860   5.384   7.923 -0.1351  0.1829  0.5177
  180SOPE  H13X20603   3.810   5.482   7.906 -0.4880 -0.1297 -0.2995
  180SOPE  H13Y20604   3.933   5.363   7.842 -3.5865 -0.0969 -2.7658
  180SOPE  C31420605   3.932   5.383   8.065  0.2942 -0.0012 -0.0095
  180SOPE  H14X20606   3.964   5.277   8.078 -0.5821 -0.0772  1.6419
  180SOPE  H14Y20607   3.868   5.411   8.151  1.2112  1.1763  0.3096
  180SOPE  C31520608   4.060   5.472   8.084 -0.1810  0.1709 -0.1923
  180SOPE  H15X20609   4.026   5.578   8.082 -0.5707  0.0646  0.5866
  180SOPE  H15Y20610   4.124   5.450   7.996 -0.1262  0.8192 -0.3210
  180SOPE  C31620611   4.135   5.448   8.215 -0.0954  0.2580  0.5874
  180SOPE  H16X20612   4.180   5.346   8.209 -0.2088  0.2049  0.6351
  180SOPE  H16Y20613   4.067   5.461   8.301  0.7935  0.1118  1.3287
  180SOPE  C31720614   4.251   5.551   8.225 -0.2328 -0.3309  0.0141
  180SOPE  H17X20615   4.199   5.648   8.213 -0.1456 -0.5941 -4.2485
  180SOPE  H17Y20616   4.303   5.543   8.127 -0.9009  0.6122 -0.4309
  180SOPE  C31820617   4.344   5.543   8.347  0.0671 -0.2789  0.2122
  180SOPE  H18X20618   4.291   5.505   8.436 -1.0139  0.3541 -0.1426
  180SOPE  H18Y20619   4.379   5.648   8.363 -1.9805  0.1628  2.2645
  180SOPE  H18Z20620   4.434   5.482   8.324  1.2678  1.6464 -0.4402
  181SOPE     N20621   1.895   0.905   6.066  0.2254  1.0776 -0.3741
  181SOPE   HN120622   1.954   0.820   6.079 -1.0650  0.1755 -0.1431
  181SOPE   HN220623   1.795   0.885   6.046 -0.4947  0.0217  3.3723
  181SOPE   HN320624   1.923   0.969   5.989 -0.4204  0.7922 -0.8648
  181SOPE   C1220625   1.897   0.980   6.197  0.0931  0.2597  0.0834
  181SOPE  H12A20626   2.001   1.019   6.203 -0.0610  0.8591 -0.9161
  181SOPE  H12B20627   1.872   0.907   6.277  1.2644 -1.3170 -0.9331
  181SOPE   C1120628   1.793   1.095   6.190 -0.2496  0.2713 -0.1682
  181SOPE  H11A20629   1.796   1.143   6.290  0.3396 -0.7543  0.3241
  181SOPE  H11B20630   1.692   1.048   6.181 -0.4104  0.6394 -0.3164
  181SOPE     P20631   1.744   1.323   6.061  0.2212 -0.0909 -0.0473
  181SOPE   O1320632   1.604   1.282   6.066  0.3256 -0.6574  0.2070
  181SOPE   O1420633   1.788   1.398   5.945 -0.3426 -0.3421  0.4161
  181SOPE   O1220634   1.833   1.190   6.085 -0.3173 -0.1194  0.5732
  181SOPE   O1120635   1.780   1.411   6.192  0.2704  0.5388  0.2182
  181SOPE    C120636   1.919   1.420   6.229  0.2515  1.0478  0.2218
  181SOPE    HA20637   1.965   1.521   6.220 -0.6300  1.4630  0.2427
  181SOPE    HB20638   1.994   1.348   6.190 -0.8588 -1.0982  1.8189
  181SOPE    C220639   1.928   1.396   6.378  0.2224 -0.1251 -0.4274
  181SOPE    HS20640   1.853   1.316   6.396  0.5630 -0.3294  0.1352
  181SOPE   O2120641   1.877   1.518   6.438 -0.5379 -0.0929 -0.1762
  181SOPE   C2120642   1.956   1.620   6.471  0.9131 -0.1708  0.0577
  181SOPE   O2220643   2.071   1.624   6.435 -0.1060  0.0795  0.6027
  181SOPE   C2220644   1.873   1.717   6.556 -0.1128 -0.3630  0.0733
  181SOPE   H2R20645   1.772   1.719   6.509 -0.1633  1.4364  0.1578
  181SOPE   H2S20646   1.913   1.821   6.554  3.6051 -1.5838  2.6717
  181SOPE    C320647   2.067   1.349   6.420  0.0495  0.6518  0.1064
  181SOPE    HX20648   2.141   1.418   6.374 -0.0200 -0.5005 -1.8227
  181SOPE    HY20649   2.073   1.244   6.384  1.4060 -0.5250  3.3709
  181SOPE   O3120650   2.075   1.338   6.562  0.1715  0.1004  0.4022
  181SOPE   C3120651   2.200   1.315   6.610  0.7810  0.1271 -0.4413
  181SOPE   O3220652   2.297   1.301   6.535  0.3786 -0.2206 -0.1109
  181SOPE   C3220653   2.202   1.325   6.772  0.0382  0.2181  0.6180
  181SOPE   H2X20654   2.144   1.247   6.823  1.3963  1.3136  4.1308
  181SOPE   H2Y20655   2.158   1.426   6.789  0.2508  0.0903  1.9944
  181SOPE   C2320656   1.855   1.675   6.704 -0.6058  0.6881  0.2290
  181SOPE   H3R20657   1.955   1.664   6.752 -0.5949 -3.0546 -0.3812
  181SOPE   H3S20658   1.815   1.573   6.719  3.4897 -1.1217  0.1892
  181SOPE   C2420659   1.770   1.762   6.792  0.0617  0.2423 -0.2844
  181SOPE   H4R20660   1.785   1.870   6.774  0.2372  0.5357  1.4749
  181SOPE   H4S20661   1.665   1.741   6.764  0.6393  0.4557 -2.8283
  181SOPE   C2520662   1.802   1.724   6.947 -0.3195  0.6842  0.1244
  181SOPE   H5R20663   1.801   1.613   6.948  1.2691  0.6234 -0.8532
  181SOPE   H5S20664   1.904   1.765   6.964 -0.4863  1.3243 -0.3594
  181SOPE   C2620665   1.705   1.787   7.043 -0.1000 -0.1580  0.2245
  181SOPE   H6R20666   1.731   1.896   7.043 -1.0928  0.0824  1.0170
  181SOPE   H6S20667   1.597   1.784   7.019 -0.1560  1.1768  0.1925
  181SOPE   C2720668   1.726   1.731   7.185  0.5149 -0.4907 -0.3809
  181SOPE   H7R20669   1.698   1.625   7.200 -2.9310  0.6230  2.7586
  181SOPE   H7S20670   1.832   1.741   7.219  0.5490 -1.0415 -0.3237
  181SOPE   C2820671   1.638   1.806   7.290  0.5978 -0.0062  0.5570
  181SOPE   H8R20672   1.541   1.832   7.242  1.5838  1.8366 -0.5325
  181SOPE   H8S20673   1.612   1.734   7.371 -2.0841 -0.1613 -0.3453
  181SOPE   C2920674   1.705   1.925   7.353  0.5155 -0.4866 -0.5760
  181SOPE   H9120675   1.755   1.992   7.281  2.7292 -1.4022  0.0414
  181SOPE  C21020676   1.717   1.955   7.484  0.0009  0.2844 -0.4292
  181SOPE  H10120677   1.775   2.043   7.518 -0.1009 -0.2104  1.1104
  181SOPE  C21120678   1.662   1.873   7.600 -0.2765  0.3499 -0.2757
  181SOPE  H11R20679   1.706   1.771   7.592 -0.6860 -0.0569  2.0452
  181SOPE  H11S20680   1.551   1.866   7.592 -0.5795  1.0188  2.3450
  181SOPE  C21220681   1.703   1.911   7.747 -0.3788  0.1973  0.0231
  181SOPE  H12R20682   1.712   2.020   7.761  0.3296  0.0617  0.7165
  181SOPE  H12S20683   1.792   1.853   7.782 -2.3023 -2.3740  0.9935
  181SOPE  C21320684   1.595   1.858   7.852  0.0086 -0.1932  0.3159
  181SOPE  H13R20685   1.606   1.748   7.866 -1.9181 -0.1569  2.8711
  181SOPE  H13S20686   1.488   1.869   7.825  0.6793  2.9522 -1.5696
  181SOPE  C21420687   1.620   1.909   7.992 -0.1098 -0.6387  0.4793
  181SOPE  H14R20688   1.618   2.019   7.978  2.2209 -0.0931  3.4304
  181SOPE  H14S20689   1.726   1.895   8.024  0.4402  1.4060 -0.2501
  181SOPE  C21520690   1.519   1.854   8.088 -0.0075 -0.5620 -0.6604
  181SOPE  H15R20691   1.535   1.745   8.101  2.5079 -0.0859  0.7110
  181SOPE  H15S20692   1.422   1.871   8.035  0.3909 -1.5486 -1.7440
  181SOPE  C21620693   1.517   1.921   8.224 -0.4272  0.3174 -0.3733
  181SOPE  H16R20694   1.622   1.931   8.258  0.3063 -0.3545 -2.3468
  181SOPE  H16S20695   1.472   1.851   8.298 -0.8134  1.4038  0.4594
  181SOPE  C21720696   1.439   2.054   8.219  0.0090  0.0463  0.4024
  181SOPE  H17R20697   1.335   2.027   8.188  0.4941 -0.8081 -0.5405
  181SOPE  H17S20698   1.471   2.116   8.132 -0.7513  0.1258  0.1720
  181SOPE  C21820699   1.434   2.135   8.346 -0.2167  0.2626  0.5655
  181SOPE  H18R20700   1.534   2.178   8.368  0.4921 -0.4524 -1.1334
  181SOPE  H18S20701   1.392   2.066   8.423 -0.3586 -0.6630 -0.3198
  181SOPE  H18T20702   1.362   2.219   8.332 -0.0270  0.0813 -1.9539
  181SOPE   C3320703   2.349   1.311   6.816 -1.0184  0.0934  0.2604
  181SOPE   H3X20704   2.405   1.395   6.772  2.5807 -2.4191 -0.3972
  181SOPE   H3Y20705   2.404   1.221   6.781  0.0386  0.3994  1.0835
  181SOPE   C3420706   2.367   1.318   6.968  0.6524 -0.2427  0.4036
  181SOPE   H4X20707   2.315   1.237   7.023  1.3079 -0.6565  0.4254
  181SOPE   H4Y20708   2.315   1.409   7.003  0.0682 -1.3176  2.4811
  181SOPE   C3520709   2.513   1.311   7.002 -0.1614 -0.6328  0.3531
  181SOPE   H5X20710   2.566   1.392   6.947 -0.3434 -0.2185  0.7937
  181SOPE   H5Y20711   2.563   1.221   6.959  0.7451 -1.4398  2.9367
  181SOPE   C3620712   2.542   1.303   7.155  0.1569 -0.0756 -0.2235
  181SOPE   H6X20713   2.649   1.332   7.165 -0.3832  1.9853 -0.0488
  181SOPE   H6Y20714   2.527   1.196   7.180  2.7099 -1.0965 -2.4985
  181SOPE   C3720715   2.457   1.398   7.229  0.4669 -0.3754 -0.0546
  181SOPE   H7X20716   2.350   1.375   7.209  0.7986  0.7749 -4.1408
  181SOPE   H7Y20717   2.479   1.494   7.177  1.0705 -1.6478 -2.3080
  181SOPE   C3820718   2.496   1.403   7.379  0.1457 -0.0818 -0.1230
  181SOPE   H8X20719   2.604   1.424   7.397 -0.3843  0.9517  2.2681
  181SOPE   H8Y20720   2.504   1.299   7.417  1.2516 -0.2056 -0.6589
  181SOPE   C3920721   2.393   1.480   7.462 -0.2816 -0.6407 -0.3173
  181SOPE   H9X20722   2.292   1.457   7.424 -1.5188 -0.0706  2.3632
  181SOPE   H9Y20723   2.408   1.589   7.445  1.8782 -0.6773  0.9566
  181SOPE  C31020724   2.394   1.456   7.614  0.0441 -0.0540 -0.0813
  181SOPE  H10X20725   2.343   1.358   7.629 -0.3394  0.0298 -0.7815
  181SOPE  H10Y20726   2.326   1.533   7.656  2.6660  1.8072  0.9520
  181SOPE  C31120727   2.528   1.476   7.692 -0.0988 -0.2618 -0.5205
  181SOPE  H11X20728   2.576   1.573   7.666 -0.9767  0.4119  0.2999
  181SOPE  H11Y20729   2.608   1.407   7.655  1.7423  1.8105 -0.6145
  181SOPE  C31220730   2.513   1.468   7.846  0.0418 -0.0415  0.4157
  181SOPE  H12X20731   2.610   1.473   7.900  0.2462 -1.4025  0.2106
  181SOPE  H12Y20732   2.463   1.372   7.871 -1.0095 -0.0673 -1.5492
  181SOPE  C31320733   2.448   1.602   7.889 -1.1549 -0.3092 -0.0631
  181SOPE  H13X20734   2.339   1.585   7.878 -1.3171 -1.7950  2.8014
  181SOPE  H13Y20735   2.479   1.681   7.818 -1.2782  0.5291  0.7981
  181SOPE  C31420736   2.453   1.650   8.035 -0.3376  0.1883 -0.0821
  181SOPE  H14X20737   2.442   1.560   8.099 -1.8560 -0.3180 -0.9934
  181SOPE  H14Y20738   2.368   1.719   8.054 -0.8198 -0.4297  0.0499
  181SOPE  C31520739   2.598   1.705   8.064 -0.2019 -0.1881 -0.2009
  181SOPE  H15X20740   2.624   1.768   7.976 -0.3558  0.3897  0.1589
  181SOPE  H15Y20741   2.661   1.615   8.052  0.3454  0.4583 -2.8516
  181SOPE  C31620742   2.610   1.787   8.191  0.0159 -0.2913 -0.1283
  181SOPE  H16X20743   2.547   1.878   8.194  1.9042  1.0485  0.3341
  181SOPE  H16Y20744   2.714   1.825   8.196  0.4458 -1.5080  0.7361
  181SOPE  C31720745   2.596   1.723   8.327  0.6287 -0.6283 -0.1654
  181SOPE  H17X20746   2.488   1.698   8.335 -0.2814  2.9517  0.1876
  181SOPE  H17Y20747   2.610   1.797   8.408  0.0514  1.4640 -1.8846
  181SOPE  C31820748   2.674   1.594   8.360 -0.2273  0.0401 -0.1816
  181SOPE  H18X20749   2.667   1.517   8.280  0.0104  0.9116 -1.0534
  181SOPE  H18Y20750   2.645   1.543   8.454  1.2925 -1.3733 -0.4306
  181SOPE  H18Z20751   2.781   1.612   8.382 -0.0639 -0.8536 -0.1962
  182SOPE     N20752   3.182   3.885   6.338 -0.0904 -0.2343  0.0225
  182SOPE   HN120753   3.245   3.809   6.305  1.9744  0.6487  1.6295
  182SOPE   HN220754   3.113   3.909   6.265 -1.1282  0.0753  1.0723
  182SOPE   HN320755   3.239   3.970   6.359  0.5196 -0.7451  0.4775
  182SOPE   C1220756   3.127   3.835   6.468 -0.4533 -0.0076 -0.2132
  182SOPE  H12A20757   3.067   3.920   6.507 -2.3495 -2.1926  1.9256
  182SOPE  H12B20758   3.216   3.817   6.532 -0.6925  3.4218  1.3166
  182SOPE   C1120759   3.040   3.713   6.454  0.0170 -0.2579  0.5353
  182SOPE  H11A20760   2.945   3.737   6.401 -0.6547 -2.7546  0.4508
  182SOPE  H11B20761   3.018   3.681   6.558  2.6578  0.5341  1.4218
  182SOPE     P20762   3.026   3.489   6.325 -0.0932  0.3321  0.2965
  182SOPE   O1320763   3.118   3.396   6.256 -0.2825  0.3772 -0.1830
  182SOPE   O1420764   2.914   3.531   6.237  0.1142 -0.4622 -0.0494
  182SOPE   O1220765   3.110   3.621   6.373  0.2499 -0.3322 -0.1270
  182SOPE   O1120766   2.984   3.420   6.458 -0.1215 -0.6389  0.0058
  182SOPE    C120767   3.071   3.369   6.552  0.6263  0.0182 -0.2476
  182SOPE    HA20768   3.118   3.452   6.607 -0.6224  0.1556  0.6489
  182SOPE    HB20769   3.155   3.312   6.506  1.0598 -0.8791  1.5849
  182SOPE    C220770   3.001   3.279   6.654  0.5693  0.1978 -0.5855
  182SOPE    HS20771   3.082   3.234   6.716 -0.4583 -0.7903  0.0802
  182SOPE   O2120772   2.927   3.171   6.593  0.3933 -0.0070 -0.3441
  182SOPE   C2120773   3.001   3.059   6.565  0.9150  0.0486  0.1010
  182SOPE   O2220774   3.119   3.054   6.548 -0.2289 -0.4089  0.2492
  182SOPE   C2220775   2.907   2.939   6.537  0.8603 -0.1074 -0.0723
  182SOPE   H2R20776   2.892   2.947   6.427 -1.2192  0.9976  0.2412
  182SOPE   H2S20777   2.815   2.959   6.596  2.0415 -0.9433  2.1744
  182SOPE    C320778   2.910   3.373   6.737  0.0496  0.1083  0.0015
  182SOPE    HX20779   2.832   3.415   6.669  1.6958 -0.5962 -2.4596
  182SOPE    HY20780   2.973   3.459   6.768  1.8306 -0.7264 -1.1694
  182SOPE   O3120781   2.864   3.287   6.843 -0.0287 -0.3076 -0.3738
  182SOPE   C3120782   2.747   3.223   6.813 -0.0772  0.6990  0.0383
  182SOPE   O3220783   2.681   3.229   6.714 -0.4293 -0.3442  0.0151
  182SOPE   C3220784   2.711   3.130   6.934 -0.0068 -0.9837  0.0373
  182SOPE   H2X20785   2.774   3.143   7.024 -0.2138 -1.8012  0.3045
  182SOPE   H2Y20786   2.722   3.028   6.892 -1.6950 -0.1134 -2.8281
  182SOPE   C2320787   2.965   2.800   6.581  0.1899 -0.5475  0.0564
  182SOPE   H3R20788   3.065   2.780   6.539 -0.1486 -0.8262 -0.6277
  182SOPE   H3S20789   2.896   2.723   6.540 -0.4417 -0.7450  1.4099
  182SOPE   C2420790   2.976   2.776   6.726 -0.1497 -0.4921 -0.9495
  182SOPE   H4R20791   3.034   2.682   6.734  1.4115  0.4103 -1.3427
  182SOPE   H4S20792   3.026   2.859   6.779 -0.7756 -0.3880 -0.5110
  182SOPE   C2520793   2.842   2.760   6.799 -0.0321  0.3446  0.0824
  182SOPE   H5R20794   2.768   2.841   6.783 -0.6384 -0.5403 -1.8216
  182SOPE   H5S20795   2.795   2.669   6.756  0.2359 -0.4659  1.4073
  182SOPE   C2620796   2.863   2.739   6.947  0.3959 -1.1314 -0.0757
  182SOPE   H6R20797   2.930   2.653   6.968  2.1463  0.5096  1.4809
  182SOPE   H6S20798   2.909   2.827   6.996 -0.9212 -0.2169 -0.4333
  182SOPE   C2720799   2.736   2.714   7.026  0.2467 -0.1465 -0.5215
  182SOPE   H7R20800   2.645   2.745   6.972  0.4929  0.4648 -0.5945
  182SOPE   H7S20801   2.732   2.604   7.040  0.6800 -0.3001 -1.5202
  182SOPE   C2820802   2.744   2.777   7.170  0.0628  0.3351  0.1966
  182SOPE   H8R20803   2.834   2.738   7.222 -0.0279 -2.3027 -1.4259
  182SOPE   H8S20804   2.755   2.887   7.155 -0.6003  0.1586 -2.0146
  182SOPE   C2920805   2.620   2.739   7.244 -0.1497 -1.1468  0.1188
  182SOPE   H9120806   2.533   2.701   7.189 -0.9314 -0.5523  0.8950
  182SOPE  C21020807   2.596   2.756   7.373 -0.4901 -0.7247  0.3579
  182SOPE  H10120808   2.496   2.745   7.419 -1.3248  1.9157 -0.6551
  182SOPE  C21120809   2.706   2.802   7.466  0.4188  0.2537 -0.9155
  182SOPE  H11R20810   2.676   2.894   7.521 -0.7374 -0.9854  0.6427
  182SOPE  H11S20811   2.803   2.824   7.415  0.4903  0.2682 -0.7764
  182SOPE  C21220812   2.727   2.685   7.571  0.6994  0.1099 -0.2168
  182SOPE  H12R20813   2.797   2.609   7.532  0.1565 -0.3433 -0.3219
  182SOPE  H12S20814   2.632   2.651   7.618  1.7754 -0.0489  2.0099
  182SOPE  C21320815   2.810   2.743   7.692  0.5188 -0.0433  0.2123
  182SOPE  H13R20816   2.757   2.836   7.724  0.3140  0.5816 -1.8107
  182SOPE  H13S20817   2.916   2.770   7.673  1.0424  0.6973  3.4948
  182SOPE  C21420818   2.815   2.658   7.824 -0.3359  0.8764 -0.6332
  182SOPE  H14R20819   2.867   2.560   7.821  0.7966  1.2532  2.6120
  182SOPE  H14S20820   2.710   2.645   7.859 -0.3619  0.1640 -0.9675
  182SOPE  C21520821   2.899   2.721   7.945 -0.0373 -0.0206 -0.1693
  182SOPE  H15R20822   2.997   2.750   7.902  0.4855 -2.3398 -0.6734
  182SOPE  H15S20823   2.928   2.638   8.015  0.9527 -0.1123 -0.6630
  182SOPE  C21620824   2.830   2.831   8.029 -0.5822  0.2635  0.0026
  182SOPE  H16R20825   2.764   2.779   8.101 -1.0407  3.0119  1.7479
  182SOPE  H16S20826   2.770   2.895   7.960 -1.1930 -0.8388 -0.5089
  182SOPE  C21720827   2.934   2.915   8.100  1.2383  0.3014 -0.2711
  182SOPE  H17R20828   2.892   3.016   8.080 -3.0287 -1.6790 -2.3452
  182SOPE  H17S20829   3.035   2.906   8.054  0.6796 -2.1096 -1.1254
  182SOPE  C21820830   2.958   2.871   8.246  0.0260  0.4860 -0.2213
  182SOPE  H18R20831   3.001   2.768   8.244 -1.3783 -0.1281 -0.2637
  182SOPE  H18S20832   2.862   2.867   8.303 -0.8397  0.8069 -1.6141
  182SOPE  H18T20833   3.029   2.938   8.299  0.5603 -1.1635  1.2441
  182SOPE   C3320834   2.559   3.149   6.969  0.0706 -0.1172 -0.4531
  182SOPE   H3X20835   2.486   3.135   6.886 -1.7945  1.9995  0.7062
  182SOPE   H3Y20836   2.571   3.257   6.992  2.2083 -0.4367  0.1549
  182SOPE   C3420837   2.505   3.078   7.100 -0.3108  0.6603  0.4890
  182SOPE   H4X20838   2.579   3.114   7.174 -0.1668 -1.2802  1.3357
  182SOPE   H4Y20839   2.515   2.967   7.094 -1.0575  0.6192 -0.3810
  182SOPE   C3520840   2.371   3.132   7.143  0.1637  0.4899  0.7979
  182SOPE   H5X20841   2.292   3.123   7.065  1.1171  1.6276 -0.3246
  182SOPE   H5Y20842   2.378   3.241   7.162 -1.8231  0.1706  4.1268
  182SOPE   C3620843   2.314   3.063   7.275 -1.2038  0.2882  0.0046
  182SOPE   H6X20844   2.359   2.962   7.277  0.2135  0.8667 -0.7251
  182SOPE   H6Y20845   2.205   3.058   7.259 -1.3049  3.1056 -0.8102
  182SOPE   C3720846   2.352   3.139   7.397 -0.1138 -0.4808 -0.3556
  182SOPE   H7X20847   2.301   3.237   7.404 -0.1024 -0.4840 -0.2154
  182SOPE   H7Y20848   2.460   3.164   7.389  0.3855 -2.4822 -0.6087
  182SOPE   C3820849   2.330   3.049   7.523  0.8784 -0.2339  0.2076
  182SOPE   H8X20850   2.377   2.949   7.510  1.6369  0.0611  0.5822
  182SOPE   H8Y20851   2.220   3.037   7.533  1.0408 -1.1555  1.0584
  182SOPE   C3920852   2.394   3.111   7.643  0.1319 -0.8063  0.3734
  182SOPE   H9X20853   2.371   3.219   7.627  1.1509 -0.5731  0.3863
  182SOPE   H9Y20854   2.504   3.099   7.650  0.1416  0.0046  1.9479
  182SOPE  C31020855   2.342   3.060   7.778 -0.2065  0.7315 -0.4147
  182SOPE  H10X20856   2.342   2.949   7.780  2.9111  0.5936 -2.1749
  182SOPE  H10Y20857   2.239   3.100   7.789  0.2306  1.6421  0.6700
  182SOPE  C31120858   2.423   3.102   7.899 -0.1251 -0.1811 -0.0472
  182SOPE  H11X20859   2.452   3.209   7.896 -0.0193 -0.2261 -0.7418
  182SOPE  H11Y20860   2.520   3.048   7.900 -0.0939 -0.1664 -1.2461
  182SOPE  C31220861   2.351   3.074   8.022  0.0353 -0.5624 -0.1882
  182SOPE  H12X20862   2.299   2.976   8.014 -1.6214  0.1101  1.4828
  182SOPE  H12Y20863   2.274   3.153   8.036  0.4761 -0.1424 -0.0999
  182SOPE  C31320864   2.448   3.086   8.151 -0.1439  1.0810  0.3210
  182SOPE  H13X20865   2.524   3.006   8.135  0.1498  1.3468  0.3746
  182SOPE  H13Y20866   2.386   3.063   8.240 -1.4246  2.5587 -0.1547
  182SOPE  C31420867   2.500   3.231   8.180 -0.2936 -0.4287  0.3158
  182SOPE  H14X20868   2.423   3.310   8.165  2.3903  2.3093 -0.2400
  182SOPE  H14Y20869   2.571   3.255   8.098 -1.3302  1.8477  0.0177
  182SOPE  C31520870   2.564   3.255   8.322 -0.6438 -0.0173 -0.4740
  182SOPE  H15X20871   2.485   3.267   8.399 -1.6893  0.0702 -1.5297
  182SOPE  H15Y20872   2.614   3.354   8.332 -0.1297 -0.5121  3.1761
  182SOPE  C31620873   2.670   3.150   8.359 -0.6241  0.2090  0.4853
  182SOPE  H16X20874   2.711   3.090   8.275  0.1570  1.2432  0.1003
  182SOPE  H16Y20875   2.620   3.073   8.421 -1.2035  0.4997  0.3879
  182SOPE  C31720876   2.788   3.221   8.431 -0.2775 -0.9656 -0.0884
  182SOPE  H17X20877   2.843   3.281   8.355  1.0935 -1.0012  0.8305
  182SOPE  H17Y20878   2.856   3.143   8.470 -0.7111 -0.7307  1.2174
  182SOPE  C31820879   2.756   3.298   8.561 -0.0523 -0.0646  0.1150
  182SOPE  H18X20880   2.702   3.248   8.643  0.3490 -0.3316  0.2231
  182SOPE  H18Y20881   2.689   3.385   8.547  2.1599  2.0122  1.5200
  182SOPE  H18Z20882   2.851   3.330   8.609  0.2453 -0.6739 -0.0584
  183SOPE     N20883   5.142   0.175   6.301  0.3420  0.2980  0.0266
  183SOPE   HN120884   5.083   0.221   6.228  0.3392 -0.4995 -0.4921
  183SOPE   HN220885   5.244   0.191   6.291  0.6327 -1.4450 -0.0307
  183SOPE   HN320886   5.133   0.073   6.281  1.7968 -0.0588  1.0408
  183SOPE   C1220887   5.079   0.200   6.430 -0.6955 -0.1876 -0.2469
  183SOPE  H12A20888   5.052   0.308   6.440 -0.1666 -0.0938  0.2642
  183SOPE  H12B20889   5.144   0.173   6.516 -1.2438  1.2850  0.6591
  183SOPE   C1120890   4.949   0.124   6.440 -0.1217 -0.8326  0.5491
  183SOPE  H11A20891   4.900   0.152   6.535 -2.8285  0.5535 -1.1485
  183SOPE  H11B20892   4.961   0.013   6.445  0.3422 -0.7444  4.1366
  183SOPE     P20893   4.748   0.260   6.336  0.1468  0.1334 -0.1575
  183SOPE   O1320894   4.622   0.197   6.299  0.5075 -0.1031  0.2549
  183SOPE   O1420895   4.795   0.368   6.251  0.0790  0.3146  0.4847
  183SOPE   O1220896   4.866   0.149   6.327  0.1564  0.1572 -0.2013
  183SOPE   O1120897   4.745   0.305   6.483  0.3955 -0.2799  0.0043
  183SOPE    C120898   4.624   0.342   6.543  0.0160  0.8110 -0.4843
  183SOPE    HA20899   4.533   0.343   6.480  0.8155  1.0413 -1.6634
  183SOPE    HB20900   4.625   0.446   6.582 -1.1107  1.5580 -2.3114
  183SOPE    C220901   4.604   0.240   6.662  0.6696 -0.1763 -0.3346
  183SOPE    HS20902   4.578   0.142   6.617 -2.0254  0.1176  0.4531
  183SOPE   O2120903   4.489   0.293   6.737 -0.3661 -0.3808  0.1533
  183SOPE   C2120904   4.407   0.205   6.780 -0.3201 -0.1141 -0.9525
  183SOPE   O2220905   4.406   0.085   6.755  0.6659  0.2251  0.0253
  183SOPE   C2220906   4.308   0.277   6.875  0.3272  0.2121  0.8829
  183SOPE   H2R20907   4.223   0.210   6.903 -1.5890  2.5327  0.9788
  183SOPE   H2S20908   4.265   0.355   6.809 -0.4774 -0.3994  0.6649
  183SOPE    C320909   4.723   0.232   6.749  0.3359  1.0789 -0.1465
  183SOPE    HX20910   4.744   0.334   6.787  0.0355  1.0560  0.0832
  183SOPE    HY20911   4.817   0.201   6.699 -0.0801 -0.4940 -0.0263
  183SOPE   O3120912   4.700   0.144   6.862  0.2842  0.0718  0.0976
  183SOPE   C3120913   4.694   0.013   6.836 -0.4378  0.0199  0.6733
  183SOPE   O3220914   4.724  -0.041   6.730 -0.3527  0.2915  0.0644
  183SOPE   C3220915   4.673  -0.058   6.967  0.1272  0.5048 -0.3632
  183SOPE   H2X20916   4.576  -0.038   7.019 -0.5075 -0.9185 -0.9562
  183SOPE   H2Y20917   4.752  -0.013   7.030 -0.2360  0.5161  0.0929
  183SOPE   C2320918   4.375   0.327   7.003 -0.5569 -0.4090  0.2291
  183SOPE   H3R20919   4.462   0.388   6.971 -0.2146 -1.6526 -1.3488
  183SOPE   H3S20920   4.407   0.240   7.065  0.3891  0.0100  0.3551
  183SOPE   C2420921   4.278   0.417   7.087  0.3103  0.0006  0.3390
  183SOPE   H4R20922   4.344   0.449   7.171  1.1557 -3.1986  1.0353
  183SOPE   H4S20923   4.250   0.505   7.025 -2.2376  0.0296  1.4036
  183SOPE   C2520924   4.152   0.351   7.120 -0.1785  0.6330  0.6107
  183SOPE   H5R20925   4.082   0.347   7.035 -2.3693 -1.9032  2.3635
  183SOPE   H5S20926   4.175   0.244   7.143 -1.7869 -0.5389 -2.6706
  183SOPE   C2620927   4.079   0.409   7.247 -0.1816 -0.2792  0.2667
  183SOPE   H6R20928   4.144   0.382   7.333 -1.7204 -0.2872  1.4838
  183SOPE   H6S20929   4.075   0.519   7.228 -0.5840 -0.3866 -0.2855
  183SOPE   C2720930   3.940   0.347   7.278  0.0965  0.2854  0.0731
  183SOPE   H7R20931   3.884   0.413   7.348 -1.5372 -0.0881 -0.8544
  183SOPE   H7S20932   3.892   0.364   7.180  0.0470 -1.2954 -0.1957
  183SOPE   C2820933   3.935   0.192   7.309  0.7576  0.1958  0.3885
  183SOPE   H8R20934   3.978   0.149   7.216 -1.1030  1.3085 -1.0610
  183SOPE   H8S20935   4.002   0.152   7.388  1.1082 -1.0191 -0.4914
  183SOPE   C2920936   3.789   0.145   7.330  0.3333 -0.0272 -0.2380
  183SOPE   H9120937   3.746   0.105   7.237 -0.3075  0.6514 -0.2430
  183SOPE  C21020938   3.719   0.154   7.448 -0.1091  0.6041 -0.0103
  183SOPE  H10120939   3.618   0.113   7.453  0.4047 -1.0972 -2.0604
  183SOPE  C21120940   3.771   0.209   7.579 -0.2554 -0.2365  0.6638
  183SOPE  H11R20941   3.730   0.310   7.601  0.5954  0.1800  0.3635
  183SOPE  H11S20942   3.879   0.228   7.563 -0.5188 -1.5380 -4.2530
  183SOPE  C21220943   3.752   0.118   7.702  0.0898 -0.3848 -0.1170
  183SOPE  H12R20944   3.797   0.020   7.675  0.4212 -0.5018  0.8090
  183SOPE  H12S20945   3.644   0.098   7.715 -0.1507  1.0752  0.2969
  183SOPE  C21320946   3.818   0.166   7.828 -0.2166  0.7028  1.2174
  183SOPE  H13R20947   3.928   0.171   7.814 -0.3027 -1.2387 -0.6706
  183SOPE  H13S20948   3.801   0.101   7.917  4.5673 -1.8072  0.6533
  183SOPE  C21420949   3.762   0.310   7.866 -0.1468 -0.0380  0.2086
  183SOPE  H14R20950   3.651   0.310   7.855 -0.1810  1.7949  0.2796
  183SOPE  H14S20951   3.797   0.376   7.784 -1.0545 -1.1546 -1.1445
  183SOPE  C21520952   3.806   0.344   8.004  0.1900 -0.9778 -0.4013
  183SOPE  H15R20953   3.916   0.355   8.009  0.1036 -0.5171  0.9167
  183SOPE  H15S20954   3.773   0.275   8.085  1.2763 -1.5590 -0.4341
  183SOPE  C21620955   3.760   0.486   8.036 -0.0639  0.2481  0.0972
  183SOPE  H16R20956   3.649   0.489   8.045  0.0246  0.1046  1.5307
  183SOPE  H16S20957   3.793   0.556   7.957  0.9925  2.3656  2.2708
  183SOPE  C21720958   3.804   0.550   8.170 -0.5982  0.3299  0.3704
  183SOPE  H17R20959   3.914   0.565   8.177 -0.5227 -0.3362  0.7234
  183SOPE  H17S20960   3.782   0.489   8.260  1.2432 -1.3488 -0.2596
  183SOPE  C21820961   3.734   0.685   8.189 -0.6110  0.1188 -0.2785
  183SOPE  H18R20962   3.763   0.752   8.105  1.7910 -0.8454 -0.3196
  183SOPE  H18S20963   3.768   0.717   8.290 -1.3026 -0.4435  0.1406
  183SOPE  H18T20964   3.623   0.680   8.191 -0.6538  0.2145 -1.4441
  183SOPE   C3320965   4.688  -0.213   6.950  0.0061 -0.7810 -0.3775
  183SOPE   H3X20966   4.783  -0.244   6.901 -0.0289  1.2265 -1.8360
  183SOPE   H3Y20967   4.604  -0.247   6.885  0.5001 -0.8242 -1.0071
  183SOPE   C3420968   4.684  -0.299   7.075 -0.6505 -0.7376  0.2715
  183SOPE   H4X20969   4.669  -0.404   7.045  1.9673 -1.3864  0.9839
  183SOPE   H4Y20970   4.597  -0.268   7.137  0.0723 -0.6097  1.2444
  183SOPE   C3520971   4.809  -0.281   7.158 -0.0760  0.9944  0.4319
  183SOPE   H5X20972   4.844  -0.177   7.176  1.9538  0.7310 -1.6111
  183SOPE   H5Y20973   4.885  -0.331   7.095  0.0359 -0.1348  1.4101
  183SOPE   C3620974   4.806  -0.347   7.293 -0.0653  0.7003 -0.4699
  183SOPE   H6X20975   4.824  -0.455   7.279 -1.8369  0.4529 -1.0853
  183SOPE   H6Y20976   4.700  -0.335   7.325 -0.7845 -1.6900 -1.7801
  183SOPE   C3720977   4.910  -0.292   7.388  0.0116 -0.5710  0.3566
  183SOPE   H7X20978   5.004  -0.292   7.328  0.0732  0.4165  0.4382
  183SOPE   H7Y20979   4.924  -0.357   7.477 -0.6871  1.2120  1.8301
  183SOPE   C3820980   4.881  -0.146   7.435  0.3410  0.1997  0.7373
  183SOPE   H8X20981   4.775  -0.156   7.467  0.7261 -1.9800  1.5181
  183SOPE   H8Y20982   4.888  -0.082   7.344  1.9914 -0.1991  0.5527
  183SOPE   C3920983   4.975  -0.100   7.546  0.1358 -0.3010 -0.0058
  183SOPE   H9X20984   4.956  -0.167   7.633 -2.4479 -1.1028 -1.0771
  183SOPE   H9Y20985   4.953   0.003   7.581 -1.5393 -0.7224  0.2979
  183SOPE  C31020986   5.128  -0.107   7.517 -0.5437 -0.0015 -0.4081
  183SOPE  H10X20987   5.159  -0.033   7.440 -2.6070 -0.0639 -1.3736
  183SOPE  H10Y20988   5.171  -0.208   7.497 -0.4074 -0.2850  1.2060
  183SOPE  C31120989   5.194  -0.043   7.647 -0.6375  0.0935  0.7647
  183SOPE  H11X20990   5.150   0.057   7.666 -2.8704 -0.5187 -0.7605
  183SOPE  H11Y20991   5.300  -0.036   7.617 -0.8012 -0.7897 -0.0969
  183SOPE  C31220992   5.196  -0.134   7.774  0.4267  0.2272  0.4174
  183SOPE  H12X20993   5.239  -0.233   7.749  1.3693  0.4774  0.9828
  183SOPE  H12Y20994   5.086  -0.143   7.787  0.2264  1.0388 -0.5764
  183SOPE  C31320995   5.258  -0.078   7.894  0.1399 -0.2604 -0.8337
  183SOPE  H13X20996   5.209   0.018   7.923 -0.3657 -1.1018  1.2655
  183SOPE  H13Y20997   5.361  -0.043   7.871  0.1876  1.5330  1.6939
  183SOPE  C31420998   5.259  -0.173   8.017  0.3710 -0.1788 -0.2567
  183SOPE  H14X20999   5.312  -0.265   7.985 -1.9897 -1.6977 -0.0375
  183SOPE  H14Y21000   5.155  -0.197   8.046  0.1765  1.3499  0.4453
  183SOPE  C31521001   5.317  -0.110   8.150  0.7167  0.5149  0.7042
  183SOPE  H15X21002   5.428  -0.105   8.138  0.7790 -2.5249 -1.2185
  183SOPE  H15Y21003   5.291  -0.189   8.225 -0.8771 -0.2934 -0.6362
  183SOPE  C31621004   5.272   0.024   8.197  0.4262  0.3224 -0.2745
  183SOPE  H16X21005   5.299   0.104   8.124 -1.5756  1.5919  0.2896
  183SOPE  H16Y21006   5.329   0.056   8.286 -2.5092  0.2393  1.7700
  183SOPE  C31721007   5.126   0.024   8.249  0.1760 -0.3077 -0.6784
  183SOPE  H17X21008   5.089  -0.073   8.288  0.7887  0.3634  1.7240
  183SOPE  H17Y21009   5.065   0.053   8.161  0.2514 -1.0440 -0.9827
  183SOPE  C31821010   5.094   0.125   8.357 -0.0656  0.3649 -0.0817
  183SOPE  H18X21011   4.985   0.140   8.373  0.2496  0.9876  1.7869
  183SOPE  H18Y21012   5.139   0.223   8.332  1.4664 -0.5673 -1.1966
  183SOPE  H18Z21013   5.125   0.093   8.459 -0.1660 -1.6074 -0.6191
  184SOPE     N21014   0.751   2.628   6.450 -0.0034  1.0161  0.2555
  184SOPE   HN121015   0.706   2.622   6.357  1.2405  1.0194 -0.3645
  184SOPE   HN221016   0.844   2.582   6.436 -0.3648  0.6816 -1.2346
  184SOPE   HN321017   0.696   2.568   6.515 -0.6402  0.6979 -0.5568
  184SOPE   C1221018   0.760   2.761   6.512  0.1055  0.7286 -0.1262
  184SOPE  H12A21019   0.843   2.817   6.463  1.4406 -1.7944 -0.9282
  184SOPE  H12B21020   0.784   2.754   6.620 -1.0708  0.5096  0.1332
  184SOPE   C1121021   0.625   2.832   6.505  0.6767  0.5261  0.1355
  184SOPE  H11A21022   0.631   2.927   6.562  0.2010  0.8279 -0.3057
  184SOPE  H11B21023   0.554   2.763   6.556  0.5444 -0.0053 -0.7396
  184SOPE     P21024   0.449   2.910   6.331  0.1155 -0.2424  0.0979
  184SOPE   O1321025   0.386   2.806   6.242 -0.1054 -0.2970 -0.1155
  184SOPE   O1421026   0.481   3.045   6.276  0.4205 -0.7151  0.2264
  184SOPE   O1221027   0.590   2.854   6.370 -0.1425  0.0025 -0.8722
  184SOPE   O1121028   0.369   2.926   6.468 -0.1579  0.2708 -0.3224
  184SOPE    C121029   0.311   3.048   6.511  0.1323 -0.5382  0.7399
  184SOPE    HA21030   0.206   3.032   6.545 -0.7052  1.4637 -0.7135
  184SOPE    HB21031   0.299   3.117   6.425  0.3372 -0.3629  0.8502
  184SOPE    C221032   0.392   3.119   6.622 -0.5584  0.1336  0.0281
  184SOPE    HS21033   0.497   3.110   6.588 -0.3667  1.4054  0.2260
  184SOPE   O2121034   0.356   3.056   6.749  0.0452  0.2062  0.4499
  184SOPE   C2121035   0.457   3.027   6.823 -0.7985  0.6430  0.0906
  184SOPE   O2221036   0.571   3.066   6.802 -0.4230 -0.7453  0.4810
  184SOPE   C2221037   0.417   2.929   6.932 -0.4255  0.2218 -0.0337
  184SOPE   H2R21038   0.365   2.841   6.888  1.6939 -0.8693 -0.5187
  184SOPE   H2S21039   0.354   2.984   7.005  0.5934  2.0695 -0.4991
  184SOPE    C321040   0.363   3.263   6.639  0.4828  0.2041  0.7043
  184SOPE    HX21041   0.252   3.271   6.651  0.2935  0.5419 -1.0053
  184SOPE    HY21042   0.384   3.325   6.549  1.7829  0.8979  1.4548
  184SOPE   O3121043   0.437   3.327   6.749  0.2992 -0.2262  0.3543
  184SOPE   C3121044   0.566   3.374   6.736  0.1546  0.5272 -0.4506
  184SOPE   O3221045   0.630   3.348   6.634 -0.0410  0.1615  0.5977
  184SOPE   C3221046   0.609   3.469   6.849 -0.0316  0.2724  0.8409
  184SOPE   H2X21047   0.559   3.563   6.821 -1.0498 -0.6896 -0.7065
  184SOPE   H2Y21048   0.719   3.481   6.837 -0.2328  1.2782 -0.1406
  184SOPE   C2321049   0.542   2.858   6.995  0.0540  0.5886 -0.4755
  184SOPE   H3R21050   0.627   2.928   7.008  0.4936  0.0670 -0.5000
  184SOPE   H3S21051   0.570   2.777   6.924 -0.0613  0.8835 -0.8607
  184SOPE   C2421052   0.502   2.796   7.130  1.0487 -0.0075 -0.2604
  184SOPE   H4R21053   0.417   2.727   7.112 -1.3754  2.6461  0.2545
  184SOPE   H4S21054   0.590   2.744   7.175  1.2245  0.6851  0.2080
  184SOPE   C2521055   0.477   2.900   7.239 -0.0114 -0.1774  0.9011
  184SOPE   H5R21056   0.552   2.982   7.241 -0.7320  0.4936  0.7135
  184SOPE   H5S21057   0.378   2.947   7.224  0.5146  0.9854  0.9707
  184SOPE   C2621058   0.493   2.830   7.376  0.4366 -0.0064 -0.7871
  184SOPE   H6R21059   0.434   2.736   7.372 -1.0089  0.8937 -2.0992
  184SOPE   H6S21060   0.594   2.792   7.404 -1.0454 -1.2128  3.7098
  184SOPE   C2721061   0.468   2.916   7.502  0.3777  0.1489  0.3288
  184SOPE   H7R21062   0.543   2.999   7.501  1.4317 -0.7179  2.4442
  184SOPE   H7S21063   0.367   2.959   7.485  0.0297 -1.0197 -0.6973
  184SOPE   C2821064   0.468   2.833   7.628  0.5895  0.0789  0.4323
  184SOPE   H8R21065   0.398   2.750   7.603 -1.3354  1.2456  1.6960
  184SOPE   H8S21066   0.565   2.783   7.650  0.1899 -1.2024 -0.5952
  184SOPE   C2921067   0.420   2.905   7.746 -0.1258 -0.8799  0.7899
  184SOPE   H9121068   0.485   2.989   7.776  3.3348 -3.8384  2.2831
  184SOPE  C21021069   0.321   2.885   7.826 -0.0833  0.1409 -0.5458
  184SOPE  H10121070   0.291   2.953   7.907  0.8886 -1.0970  0.9096
  184SOPE  C21121071   0.221   2.770   7.820 -0.6299  0.5119  0.0037
  184SOPE  H11R21072   0.253   2.696   7.742 -2.1493  0.9883 -1.1175
  184SOPE  H11S21073   0.123   2.807   7.784 -0.4635  1.2386  0.2834
  184SOPE  C21221074   0.215   2.704   7.963 -0.6825 -0.1542 -0.2131
  184SOPE  H12R21075   0.311   2.690   8.015 -0.4352  1.0063 -0.3365
  184SOPE  H12S21076   0.171   2.602   7.956  0.2729 -0.4919 -2.1104
  184SOPE  C21321077   0.131   2.781   8.064 -0.0403 -0.2672  0.1319
  184SOPE  H13R21078   0.165   2.884   8.091  1.3373 -0.3851 -1.0598
  184SOPE  H13S21079   0.126   2.727   8.160  0.7346 -0.6644 -0.0427
  184SOPE  C21421080  -0.017   2.807   8.019 -0.0646  0.9375 -0.6225
  184SOPE  H14R21081  -0.064   2.715   7.978  1.4150  0.9584 -2.4844
  184SOPE  H14S21082  -0.014   2.873   7.930 -1.5900  0.5494 -0.9863
  184SOPE  C21521083  -0.103   2.882   8.125 -0.3895 -0.5657 -0.1902
  184SOPE  H15R21084  -0.044   2.975   8.135 -0.2166 -0.6297 -0.5940
  184SOPE  H15S21085  -0.121   2.832   8.223  1.1073 -1.2927 -0.2514
  184SOPE  C21621086  -0.245   2.926   8.080  0.2884 -0.0947  0.6926
  184SOPE  H16R21087  -0.303   2.832   8.068 -0.7903  0.5284  0.8985
  184SOPE  H16S21088  -0.245   2.986   7.987 -1.9404  0.9222  1.2835
  184SOPE  C21721089  -0.320   3.008   8.190 -0.0930  0.1891 -0.5737
  184SOPE  H17R21090  -0.296   2.952   8.283  3.6535  1.3207 -0.7158
  184SOPE  H17S21091  -0.431   3.010   8.178 -0.0186 -1.7780 -2.2330
  184SOPE  C21821092  -0.271   3.150   8.211 -0.6575  0.2176  0.1144
  184SOPE  H18R21093  -0.165   3.145   8.242 -0.1018 -0.4719 -1.7765
  184SOPE  H18S21094  -0.335   3.210   8.280  0.8103 -0.0791  1.8008
  184SOPE  H18T21095  -0.258   3.202   8.113 -1.0443 -1.0426 -0.6275
  184SOPE   C3321096   0.558   3.435   6.986 -0.5944  0.0734 -0.2283
  184SOPE   H3X21097   0.453   3.399   6.989 -0.0516 -1.5216  1.5223
  184SOPE   H3Y21098   0.566   3.515   7.063 -0.4343 -1.2135  1.1430
  184SOPE   C3421099   0.632   3.314   7.040 -0.4161  0.1854 -0.3154
  184SOPE   H4X21100   0.740   3.339   7.047  0.4099 -1.6649 -3.7876
  184SOPE   H4Y21101   0.636   3.220   6.980 -0.3251 -0.9759  1.4404
  184SOPE   C3521102   0.589   3.275   7.192  0.3630 -0.2065 -0.5526
  184SOPE   H5X21103   0.593   3.165   7.201  1.9536 -0.2116 -1.0677
  184SOPE   H5Y21104   0.481   3.295   7.206  0.4704 -1.2290  2.1726
  184SOPE   C3621105   0.683   3.328   7.303  0.6784 -0.8046  0.6534
  184SOPE   H6X21106   0.676   3.437   7.287  0.4121 -0.9231 -0.0529
  184SOPE   H6Y21107   0.785   3.300   7.270  0.5333  0.8848 -1.3620
  184SOPE   C3721108   0.656   3.281   7.442  0.1576 -0.9619 -0.1556
  184SOPE   H7X21109   0.728   3.326   7.514  1.3274 -0.4912 -1.5636
  184SOPE   H7Y21110   0.666   3.171   7.448 -0.1720 -0.9156  1.9753
  184SOPE   C3821111   0.507   3.309   7.485 -0.2118  0.6602 -0.2428
  184SOPE   H8X21112   0.437   3.253   7.419  0.0984  2.1973 -1.9492
  184SOPE   H8Y21113   0.493   3.417   7.463 -1.2667  0.1813 -2.1398
  184SOPE   C3921114   0.482   3.300   7.640  0.1250  0.5078 -0.0805
  184SOPE   H9X21115   0.498   3.198   7.681  0.8147  1.0505  1.0354
  184SOPE   H9Y21116   0.373   3.314   7.651  0.1554  0.8573 -0.2190
  184SOPE  C31021117   0.556   3.401   7.728  0.2980  0.5856  0.7272
  184SOPE  H10X21118   0.534   3.497   7.678  1.5543 -0.1274 -1.3049
  184SOPE  H10Y21119   0.667   3.391   7.721  0.5478 -1.2487  4.5823
  184SOPE  C31121120   0.518   3.398   7.874 -0.6508 -0.0825  0.5487
  184SOPE  H11X21121   0.527   3.295   7.916  1.4721  0.4181  1.4556
  184SOPE  H11Y21122   0.412   3.432   7.878 -0.5122  0.5108 -0.4488
  184SOPE  C31221123   0.598   3.496   7.965 -0.4310  0.0792  0.2820
  184SOPE  H12X21124   0.570   3.598   7.931 -0.2437 -0.0607 -0.3198
  184SOPE  H12Y21125   0.706   3.483   7.939  0.6019  2.5206  2.8267
  184SOPE  C31321126   0.564   3.481   8.115 -0.0513 -0.6690 -0.2577
  184SOPE  H13X21127   0.593   3.376   8.139  0.1431 -0.2439  1.4348
  184SOPE  H13Y21128   0.453   3.482   8.126 -0.0526 -0.1603 -0.2907
  184SOPE  C31421129   0.640   3.577   8.209  0.1031  0.3024 -0.1550
  184SOPE  H14X21130   0.626   3.668   8.147 -1.8948 -0.4399 -0.8792
  184SOPE  H14Y21131   0.750   3.564   8.205  0.0850 -0.5091  1.1814
  184SOPE  C31521132   0.570   3.596   8.351  0.5705 -0.0401  0.3582
  184SOPE  H15X21133   0.460   3.615   8.344  1.0218  2.9737  0.1129
  184SOPE  H15Y21134   0.605   3.689   8.401  1.2206  1.3912 -2.5576
  184SOPE  C31621135   0.574   3.470   8.444 -0.4672  0.0779  0.1755
  184SOPE  H16X21136   0.681   3.440   8.440 -0.1771  1.0728  0.0187
  184SOPE  H16Y21137   0.508   3.393   8.399  0.0923 -0.2327 -0.1215
  184SOPE  C31721138   0.519   3.490   8.584 -0.0703  0.6781  0.0063
  184SOPE  H17X21139   0.587   3.565   8.632  1.0325 -0.2339 -0.0780
  184SOPE  H17Y21140   0.530   3.404   8.654  1.9859  1.7161  1.0728
  184SOPE  C31821141   0.377   3.546   8.606 -0.5923  0.0005  0.7065
  184SOPE  H18X21142   0.373   3.656   8.621 -1.7292 -0.1274  1.4952
  184SOPE  H18Y21143   0.324   3.498   8.691  0.4343 -1.1096  0.7434
  184SOPE  H18Z21144   0.307   3.513   8.526  0.4426 -1.4199  0.3595
  185SAPI   C1221145   3.555   1.365  10.998 -1.1646  0.3607 -0.2669
  185SAPI    H221146   3.597   1.344  10.898 -0.3875 -0.0096  0.1308
  185SAPI    O221147   3.631   1.470  11.059 -0.5322 -0.0846 -0.2735
  185SAPI   HO221148   3.719   1.469  11.021 -0.6433 -0.1620 -0.5316
  185SAPI   C1321149   3.413   1.418  10.984 -0.5971 -0.6535  0.3596
  185SAPI    H321150   3.344   1.339  10.946 -2.5756  0.5703  1.2545
  185SAPI    O321151   3.411   1.532  10.902 -0.1262 -0.6966 -0.4088
  185SAPI   HO321152   3.470   1.601  10.934 -2.6524  1.2802  0.3419
  185SAPI   C1421153   3.361   1.453  11.121 -0.0206  0.5558 -0.6404
  185SAPI    H421154   3.423   1.527  11.176  0.3913 -0.1748 -0.1023
  185SAPI    O421155   3.223   1.494  11.128 -0.0907  0.5863 -0.3523
  185SAPI   HO421156   3.173   1.429  11.078 -0.4433  1.5256 -1.2647
  185SAPI   C1521157   3.369   1.328  11.212 -0.1393 -0.8091 -0.2007
  185SAPI    H521158   3.307   1.254  11.157 -1.0944 -0.2312  0.0753
  185SAPI    O521159   3.317   1.348  11.341  0.6387  0.5983  0.5480
  185SAPI   HO521160   3.396   1.380  11.385  1.7361 -0.5384 -0.5010
  185SAPI   C1621161   3.511   1.276  11.217  0.0476  0.4403 -0.2151
  185SAPI    H621162   3.572   1.352  11.270  1.4688 -0.8047  0.0228
  185SAPI    O621163   3.518   1.153  11.292 -0.7092 -0.1543 -0.0295
  185SAPI   HO621164   3.596   1.107  11.259 -1.1234 -1.9599  1.3504
  185SAPI   C1121165   3.555   1.243  11.078  0.1078  0.4654  0.6412
  185SAPI    H121166   3.481   1.171  11.039 -0.8148  2.6732 -2.0259
  185SAPI     P21167   3.731   1.062  10.998 -0.4214  0.0662  0.2254
  185SAPI   O1321168   3.617   0.967  11.001 -0.4334 -0.1734  0.0017
  185SAPI   O1421169   3.863   1.012  11.052  0.1392 -0.8310  0.2504
  185SAPI   O1221170   3.693   1.201  11.080 -0.1374  0.3536 -0.5623
  185SAPI   O1121171   3.763   1.114  10.854  0.0536  0.2161 -0.6284
  185SAPI    C121172   3.873   1.197  10.816  0.3476  0.4338 -0.2797
  185SAPI    HA21173   3.818   1.290  10.793  1.1191  1.7068  2.5786
  185SAPI    HB21174   3.941   1.221  10.901 -0.5749 -0.6284  0.8023
  185SAPI    C221175   3.948   1.149  10.684 -0.4458 -0.1797 -0.6255
  185SAPI    HS21176   4.012   1.232  10.648 -0.9953  0.7147  0.3826
  185SAPI   O2121177   3.865   1.095  10.585 -0.1790  0.4330  0.0969
  185SAPI   C2121178   3.804   1.193  10.513  0.0040  0.3040  0.3237
  185SAPI   O2221179   3.817   1.314  10.528 -0.0550  0.3290  0.4116
  185SAPI   C2221180   3.726   1.122  10.398  0.1137  0.1372 -0.0805
  185SAPI   H2R21181   3.790   1.085  10.315 -2.2110  1.1454 -2.4895
  185SAPI   H2S21182   3.680   1.038  10.454 -0.0927  1.0365  1.1442
  185SAPI    C321183   4.040   1.026  10.728 -0.1755 -0.1060  0.3107
  185SAPI    HX21184   3.989   0.931  10.753  1.5907 -0.4758  2.8891
  185SAPI    HY21185   4.082   1.032  10.831 -2.8104 -0.4181  1.4773
  185SAPI   O3121186   4.154   1.013  10.642 -0.4906 -0.2964  0.1142
  185SAPI   C3121187   4.129   0.948  10.531  0.4040 -0.6888  0.4589
  185SAPI   O3221188   4.023   0.890  10.510  0.3706  0.5365  0.4559
  185SAPI   C3221189   4.249   0.965  10.437 -0.2669 -0.4185 -0.3758
  185SAPI   H2X21190   4.331   0.992  10.508 -1.3744 -0.8943  1.1473
  185SAPI   H2Y21191   4.229   1.048  10.367  0.7818 -0.0411 -0.2495
  185SAPI   C2321192   3.611   1.207  10.342 -0.4315  0.4344  0.4270
  185SAPI   H3R21193   3.657   1.290  10.283 -0.1077  1.0753  1.5470
  185SAPI   H3S21194   3.542   1.254  10.415 -0.9844  0.1069  0.1242
  185SAPI   C2421195   3.518   1.125  10.249 -0.7468 -0.1184 -0.5449
  185SAPI   H4R21196   3.487   1.034  10.304  2.7819 -0.7845  0.6131
  185SAPI   H4S21197   3.582   1.091  10.164  0.2403 -1.4802  0.7028
  185SAPI   C2521198   3.396   1.210  10.214 -0.2193  0.6416 -0.2335
  185SAPI   H5R21199   3.317   1.212  10.291  0.9161  0.4565  0.9860
  185SAPI   C2621200   3.376   1.264  10.097  0.1416 -0.1858  0.2871
  185SAPI   H6R21201   3.283   1.317  10.077 -0.4221 -0.9871  0.7155
  185SAPI   C2721202   3.467   1.255   9.972  0.2072 -0.2081  0.5073
  185SAPI   H7R21203   3.492   1.147   9.958 -0.1351 -0.3434  0.9334
  185SAPI   H7S21204   3.563   1.310   9.983 -0.1719  0.7363 -0.7341
  185SAPI   C2821205   3.397   1.300   9.846 -0.1959  0.1358  0.5252
  185SAPI   H8R21206   3.383   1.409   9.832  0.3143  0.1938  0.4311
  185SAPI   C2921207   3.336   1.231   9.750  0.6088 -0.9095  0.6722
  185SAPI   H9R21208   3.292   1.288   9.667 -2.4196 -2.0432  1.3354
  185SAPI  C21021209   3.312   1.087   9.739  0.2688  0.4708 -0.3339
  185SAPI  H10R21210   3.278   1.065   9.842  0.8690  0.3178 -0.1651
  185SAPI  H10S21211   3.418   1.055   9.732  0.7315  1.8561  0.0987
  185SAPI  C21121212   3.223   1.020   9.632 -0.5260 -0.0557 -0.5462
  185SAPI  H11R21213   3.129   0.977   9.670 -2.3293  2.4669 -1.8489
  185SAPI  C21221214   3.244   0.998   9.506 -0.0870  0.4657 -0.1164
  185SAPI  H12R21215   3.166   0.942   9.453  0.7278 -0.1069 -0.7336
  185SAPI  C21321216   3.369   1.033   9.427  0.0871 -0.6419  1.0723
  185SAPI  H13R21217   3.447   0.978   9.484  0.7043 -1.3118 -0.3479
  185SAPI  H13S21218   3.379   1.143   9.426  2.3523 -0.7519 -1.2468
  185SAPI  C21421219   3.357   0.996   9.280  0.0868  0.2831  0.4006
  185SAPI  H14R21220   3.418   0.911   9.248 -1.2469  0.0652 -1.7255
  185SAPI  C21521221   3.283   1.061   9.188 -0.4721 -0.3885  0.8665
  185SAPI  H15R21222   3.282   1.037   9.081 -1.0515  0.3790  0.6942
  185SAPI  C21621223   3.186   1.180   9.212 -0.0896  0.1191 -0.3925
  185SAPI  H16R21224   3.170   1.193   9.321  0.5029 -0.4998 -0.2311
  185SAPI  H16S21225   3.084   1.160   9.174 -0.0150  1.1839 -1.2186
  185SAPI  C21721226   3.225   1.312   9.152 -0.2051 -0.6471 -0.4218
  185SAPI  H17R21227   3.309   1.356   9.210  0.1391 -2.0525  0.1918
  185SAPI  H17S21228   3.134   1.376   9.155  1.2036  1.4395  0.6757
  185SAPI  C21821229   3.276   1.302   9.005 -0.6218 -0.2166  0.6234
  185SAPI  H18R21230   3.204   1.234   8.955  1.0915 -2.6247  1.2665
  185SAPI  H18S21231   3.373   1.250   8.995 -0.1642  0.7521 -0.2108
  185SAPI  C21921232   3.291   1.440   8.939 -0.1751  0.1142  0.0183
  185SAPI  H19R21233   3.369   1.492   8.998  0.3636  0.2419 -0.8049
  185SAPI  H19S21234   3.196   1.496   8.957 -0.4355 -0.6024  0.9852
  185SAPI  C22021235   3.345   1.440   8.796  1.0996 -0.3512  0.2208
  185SAPI  H20R21236   3.325   1.542   8.758 -0.7015 -1.2764 -1.4394
  185SAPI  H20S21237   3.284   1.367   8.739 -1.0097  0.0637  1.7979
  185SAPI  H20T21238   3.453   1.413   8.799  1.0298 -0.8302 -1.1722
  185SAPI   C3321239   4.285   0.823  10.365 -0.3241 -0.9713  0.2773
  185SAPI   H3X21240   4.196   0.800  10.303 -1.4449  1.1353  1.0085
  185SAPI   H3Y21241   4.281   0.740  10.439 -1.3243 -1.9833 -0.8895
  185SAPI   C3421242   4.417   0.821  10.286 -0.7743 -0.4591  0.0522
  185SAPI   H4X21243   4.432   0.721  10.241 -1.1713 -0.1038 -0.9130
  185SAPI   H4Y21244   4.498   0.830  10.361 -1.9354 -0.5942  1.3570
  185SAPI   C3521245   4.439   0.931  10.178 -0.1944 -0.5828  0.3050
  185SAPI   H5X21246   4.543   0.908  10.147 -0.1879  0.6899 -0.7172
  185SAPI   H5Y21247   4.432   1.034  10.219 -1.6840 -1.1531  1.6063
  185SAPI   C3621248   4.340   0.931  10.056 -0.0917  0.1280  0.4274
  185SAPI   H6X21249   4.243   0.972  10.091 -0.7511  1.2459 -2.4316
  185SAPI   H6Y21250   4.326   0.823  10.033 -2.8911  0.2528  1.2529
  185SAPI   C3721251   4.365   1.014   9.927  0.0223  1.0444  0.1649
  185SAPI   H7X21252   4.463   0.985   9.883 -0.7539  0.1996 -1.0733
  185SAPI   H7Y21253   4.361   1.117   9.968 -3.6878  0.8811  0.5661
  185SAPI   C3821254   4.263   1.001   9.816  0.1697  0.8501  0.4892
  185SAPI   H8X21255   4.166   1.044   9.849  0.0372 -0.7255  2.3441
  185SAPI   H8Y21256   4.245   0.894   9.793  0.3570  0.9030  0.0880
  185SAPI   C3921257   4.310   1.082   9.689 -0.1745  0.6633 -0.2534
  185SAPI   H9X21258   4.417   1.063   9.666 -0.0517  2.0485 -0.9250
  185SAPI   H9Y21259   4.294   1.190   9.710 -0.6155  0.5245  0.1193
  185SAPI  C31021260   4.228   1.036   9.570 -0.5115  0.3340  0.4757
  185SAPI  H10X21261   4.124   1.015   9.601 -0.3963 -1.1353 -0.0673
  185SAPI  H10Y21262   4.283   0.947   9.532  1.2663  1.9186 -0.8803
  185SAPI  C31121263   4.218   1.141   9.459 -1.0652  0.7402  0.3056
  185SAPI  H11X21264   4.324   1.158   9.432 -0.9528  2.0246  1.4695
  185SAPI  H11Y21265   4.191   1.240   9.502  1.1002  0.9911  1.2043
  185SAPI  C31221266   4.141   1.102   9.325 -0.2089 -0.0964  0.1034
  185SAPI  H12X21267   4.132   1.193   9.261 -1.6872  1.2353  2.0921
  185SAPI  H12Y21268   4.040   1.072   9.360 -0.4277  0.2716 -0.2075
  185SAPI  C31321269   4.204   1.000   9.235  0.2250  0.5993  0.5822
  185SAPI  H13X21270   4.248   0.916   9.293 -0.2032 -0.2792 -0.3317
  185SAPI  H13Y21271   4.294   1.045   9.187 -0.0209 -0.1548 -0.6295
  185SAPI  C31421272   4.125   0.952   9.114  0.5359  0.4026 -0.3942
  185SAPI  H14X21273   4.094   1.050   9.071 -0.9076  0.0641 -0.1798
  185SAPI  H14Y21274   4.035   0.895   9.144  1.5238 -1.5657 -1.0128
  185SAPI  C31521275   4.213   0.878   9.017 -0.1659 -0.6981 -0.3492
  185SAPI  H15X21276   4.246   0.783   9.064 -0.7098 -1.2178 -0.9884
  185SAPI  H15Y21277   4.296   0.944   8.983 -0.8094  0.9074  1.0594
  185SAPI  C31621278   4.136   0.839   8.888  1.0236 -0.6830 -0.1903
  185SAPI  H16X21279   4.156   0.924   8.819  0.1147  2.0569  2.6780
  185SAPI  H16Y21280   4.031   0.821   8.918  0.6943  0.2805 -0.7143
  185SAPI  C31721281   4.175   0.703   8.829 -1.0344 -0.4797 -0.5090
  185SAPI  H17X21282   4.149   0.618   8.895 -0.3025 -0.7097 -0.4971
  185SAPI  H17Y21283   4.286   0.701   8.822 -0.9156 -1.4723  1.0808
  185SAPI  C31821284   4.096   0.673   8.704  0.0408 -0.1754 -0.8083
  185SAPI  H18X21285   3.986   0.685   8.715  0.2404  0.1547  1.2037
  185SAPI  H18Y21286   4.121   0.572   8.665  0.5709 -0.1550 -0.5273
  185SAPI  H18Z21287   4.116   0.749   8.626 -1.5792  0.3626 -0.7480
  186SAPI   C1221288   4.438   1.831  11.158  0.5786  0.3536 -0.0421
  186SAPI    H221289   4.359   1.761  11.123  1.2990 -1.6839  2.1210
  186SAPI    O221290   4.386   1.935  11.241 -0.0872  0.3283 -0.0202
  186SAPI   HO221291   4.311   1.974  11.195 -0.2567  0.2413  0.1849
  186SAPI   C1321292   4.539   1.742  11.237  0.2734 -1.1111  0.1652
  186SAPI    H321293   4.578   1.661  11.172  1.6032 -0.8061  0.5590
  186SAPI    O321294   4.486   1.684  11.356  0.1499  0.5783 -0.0323
  186SAPI   HO321295   4.566   1.680  11.410  0.7989  0.3040 -0.9798
  186SAPI   C1421296   4.657   1.832  11.271  0.0076 -0.2458  0.2125
  186SAPI    H421297   4.626   1.920  11.330  2.0406  0.9781 -0.4459
  186SAPI    O421298   4.753   1.759  11.350 -0.3793  0.0758  0.2823
  186SAPI   HO421299   4.844   1.780  11.327 -0.8992  2.1319 -0.0588
  186SAPI   C1521300   4.721   1.886  11.145 -0.0109  0.0774 -0.5375
  186SAPI    H521301   4.739   1.800  11.079  1.3762  0.4147 -0.6198
  186SAPI    O521302   4.844   1.953  11.161 -0.3053  0.3101  0.4912
  186SAPI   HO521303   4.890   1.927  11.081 -0.5521  1.7841 -0.1540
  186SAPI   C1621304   4.618   1.971  11.066 -0.1681  0.2612  0.0150
  186SAPI    H621305   4.588   2.063  11.120 -0.6341  0.7461 -1.0378
  186SAPI    O621306   4.680   2.014  10.946  0.5856  0.0933 -0.1002
  186SAPI   HO621307   4.654   1.959  10.872 -0.2000  1.3697 -0.8110
  186SAPI   C1121308   4.498   1.892  11.029  0.5236  0.2573 -0.3433
  186SAPI    H121309   4.521   1.804  10.966  0.4883  0.8239 -1.1640
  186SAPI     P21310   4.346   1.965  10.814 -0.3174  0.0061 -0.0861
  186SAPI   O1321311   4.289   2.098  10.774 -0.8492 -0.4919  0.0011
  186SAPI   O1421312   4.258   1.847  10.801 -0.3373 -0.1428  0.7519
  186SAPI   O1221313   4.402   1.979  10.961 -0.0996  0.0211  0.0990
  186SAPI   O1121314   4.486   1.947  10.737 -0.1202 -0.1745  0.6018
  186SAPI    C121315   4.533   2.037  10.639 -0.0350  0.4705  0.2874
  186SAPI    HA21316   4.514   2.143  10.665  1.1920  0.8673 -0.3481
  186SAPI    HB21317   4.641   2.019  10.622 -0.0072 -1.8981  2.4650
  186SAPI    C221318   4.458   2.010  10.505  0.5029 -0.4093 -0.4175
  186SAPI    HS21319   4.349   2.029  10.511  0.6763  1.0632 -1.2825
  186SAPI   O2121320   4.495   1.874  10.468 -0.8892  0.6411 -0.4987
  186SAPI   C2121321   4.394   1.809  10.410 -0.3503 -0.5008  0.4538
  186SAPI   O2221322   4.282   1.852  10.387  0.2031 -0.1725 -0.2853
  186SAPI   C2221323   4.456   1.689  10.343 -0.2355  1.1404 -0.5289
  186SAPI   H2R21324   4.537   1.730  10.279  1.0165  0.1893  0.3951
  186SAPI   H2S21325   4.503   1.623  10.419 -2.3274  1.3881  1.0436
  186SAPI    C321326   4.510   2.108  10.388  0.2602 -0.9122  0.2026
  186SAPI    HX21327   4.621   2.103  10.381  0.2627  0.1868 -1.0404
  186SAPI    HY21328   4.475   2.210  10.416 -1.6562 -0.7056 -2.5909
  186SAPI   O3121329   4.447   2.064  10.268  0.0826  0.0508  1.0399
  186SAPI   C3121330   4.527   2.017  10.171 -0.0804 -0.0945 -0.4815
  186SAPI   O3221331   4.653   2.014  10.183  0.5288  0.1905  0.6119
  186SAPI   C3221332   4.442   1.971  10.051  0.0154  0.3989 -0.2124
  186SAPI   H2X21333   4.353   2.035  10.035 -1.3388 -0.9625  1.4906
  186SAPI   H2Y21334   4.400   1.869  10.060 -2.0457  0.8689 -3.0952
  186SAPI   C2321335   4.346   1.614  10.264 -0.3993 -0.0422 -0.3860
  186SAPI   H3R21336   4.279   1.685  10.212 -1.2856  0.4875  1.4038
  186SAPI   H3S21337   4.274   1.567  10.334 -0.2357  0.1610 -0.0777
  186SAPI   C2421338   4.414   1.503  10.174 -0.1497 -0.1885 -0.3666
  186SAPI   H4R21339   4.465   1.428  10.239 -1.3383 -0.5301  0.2009
  186SAPI   H4S21340   4.494   1.557  10.120  0.7186  0.9816  1.9633
  186SAPI   C2521341   4.311   1.438  10.083  0.1281  0.5572 -0.6690
  186SAPI   H5R21342   4.250   1.357  10.125 -1.0371  1.8570  0.2258
  186SAPI   C2621343   4.289   1.480   9.954  0.5974 -0.5713  0.8556
  186SAPI   H6R21344   4.222   1.416   9.895  0.8570 -0.6840  0.6814
  186SAPI   C2721345   4.358   1.589   9.871 -0.0167  0.6795 -0.5756
  186SAPI   H7R21346   4.380   1.682   9.928 -0.5243  0.1452  0.5100
  186SAPI   H7S21347   4.279   1.629   9.803 -0.2482 -0.5187 -1.0301
  186SAPI   C2821348   4.481   1.557   9.799  1.7129 -0.5120 -0.3117
  186SAPI   H8R21349   4.577   1.586   9.844  2.0859 -3.4998  1.1215
  186SAPI   C2921350   4.491   1.527   9.672 -0.3623 -0.2928  0.0011
  186SAPI   H9R21351   4.595   1.527   9.636 -0.5821 -2.4038 -0.7534
  186SAPI  C21021352   4.387   1.505   9.561  0.5475  0.0541 -0.6644
  186SAPI  H10R21353   4.286   1.537   9.595 -0.2022  1.4304 -3.9008
  186SAPI  H10S21354   4.381   1.394   9.555  0.0095 -0.0336  0.9549
  186SAPI  C21121355   4.426   1.567   9.435 -0.3789  0.4307 -0.6909
  186SAPI  H11R21356   4.491   1.654   9.454 -1.1990  0.8961  0.1165
  186SAPI  C21221357   4.390   1.537   9.313 -0.2953  0.2947  0.4052
  186SAPI  H12R21358   4.438   1.594   9.232 -2.7594  0.2033 -1.2595
  186SAPI  C21321359   4.300   1.434   9.263  0.1522  0.3180  0.2046
  186SAPI  H13R21360   4.304   1.349   9.334 -1.1327  0.6349  0.6870
  186SAPI  H13S21361   4.340   1.400   9.165 -0.2626 -1.3376  0.5728
  186SAPI  C21421362   4.154   1.477   9.256 -0.1223 -0.2467 -0.2480
  186SAPI  H14R21363   4.098   1.472   9.350 -0.2982  2.6322 -0.0953
  186SAPI  C21521364   4.098   1.533   9.154  0.5788 -0.2184  0.1362
  186SAPI  H15R21365   3.993   1.565   9.158  0.8375  0.7691 -0.6027
  186SAPI  C21621366   4.158   1.562   9.018  0.2326 -0.2278  0.0944
  186SAPI  H16R21367   4.268   1.571   9.015  0.2082 -0.1351 -0.6560
  186SAPI  H16S21368   4.120   1.657   8.976  2.4281  1.1951  1.1510
  186SAPI  C21721369   4.130   1.466   8.908 -0.5531  1.0462 -0.1262
  186SAPI  H17R21370   4.193   1.484   8.818 -0.2190 -0.3610 -0.1920
  186SAPI  H17S21371   4.023   1.478   8.878 -0.5200  2.6444  0.2834
  186SAPI  C21821372   4.164   1.319   8.939 -0.6293  0.0966 -0.0047
  186SAPI  H18R21373   4.118   1.268   9.027  0.9588  1.6841  1.8557
  186SAPI  H18S21374   4.272   1.319   8.966 -0.8569 -0.1400  0.9655
  186SAPI  C21921375   4.143   1.233   8.816  0.2664 -0.0234  0.0178
  186SAPI  H19R21376   4.050   1.260   8.761 -0.0737 -3.1403 -1.1404
  186SAPI  H19S21377   4.132   1.131   8.859  1.8897  0.4594  1.6820
  186SAPI  C22021378   4.268   1.221   8.724 -0.2513  0.7083  0.4849
  186SAPI  H20R21379   4.255   1.140   8.649  0.9035  0.0624  0.9572
  186SAPI  H20S21380   4.353   1.196   8.791 -0.7822  2.1681  1.7427
  186SAPI  H20T21381   4.282   1.313   8.664  1.5029  0.4759  0.4857
  186SAPI   C3321382   4.541   1.971   9.927  0.2343 -0.5526 -0.1442
  186SAPI   H3X21383   4.620   1.893   9.935 -0.6395 -1.7984 -2.6083
  186SAPI   H3Y21384   4.589   2.070   9.918  0.0011 -0.0959  2.6577
  186SAPI   C3421385   4.470   1.961   9.789  0.5134  0.5812  0.5086
  186SAPI   H4X21386   4.366   2.001   9.788 -1.0622 -3.0450  1.8603
  186SAPI   H4Y21387   4.445   1.854   9.771 -1.7124  1.2666 -0.8255
  186SAPI   C3521388   4.555   2.017   9.675 -0.0256 -0.5087  0.9853
  186SAPI   H5X21389   4.650   1.962   9.693  1.1268  1.3101  0.7614
  186SAPI   H5Y21390   4.581   2.123   9.696 -0.3449 -0.4178  0.9283
  186SAPI   C3621391   4.498   1.994   9.532  0.1280  0.3654 -0.4635
  186SAPI   H6X21392   4.411   2.061   9.515  0.4850  1.4100  1.5336
  186SAPI   H6Y21393   4.470   1.887   9.523 -0.7210  0.6333 -1.0690
  186SAPI   C3721394   4.603   2.018   9.426  0.1349  0.3416  0.4975
  186SAPI   H7X21395   4.685   1.946   9.445 -0.6024 -0.9382 -0.8849
  186SAPI   H7Y21396   4.639   2.123   9.434  0.8619  0.3502 -1.8986
  186SAPI   C3821397   4.547   2.002   9.277  0.0721 -0.3064  0.3042
  186SAPI   H8X21398   4.455   2.062   9.261 -0.0063 -0.1612  1.2810
  186SAPI   H8Y21399   4.501   1.900   9.270  0.0310 -0.2200 -0.9464
  186SAPI   C3921400   4.644   2.024   9.154  0.0711  0.0107 -0.5369
  186SAPI   H9X21401   4.732   1.964   9.186 -1.8139 -1.4420  2.4002
  186SAPI   H9Y21402   4.677   2.129   9.140  1.3640 -0.5234 -1.7909
  186SAPI  C31021403   4.594   1.985   9.021  0.1786 -0.4285  0.5236
  186SAPI  H10X21404   4.514   2.056   8.993  1.7714  1.2360 -0.0373
  186SAPI  H10Y21405   4.548   1.884   9.025  3.1756 -1.9542 -0.3840
  186SAPI  C31121406   4.709   1.966   8.917 -0.2380  0.4070  0.1898
  186SAPI  H11X21407   4.784   1.897   8.962 -0.1959 -0.2521 -0.8508
  186SAPI  H11Y21408   4.754   2.066   8.900 -0.1012  0.3944  0.4815
  186SAPI  C31221409   4.662   1.904   8.784 -0.4436 -0.1202 -0.2428
  186SAPI  H12X21410   4.589   1.969   8.729 -2.8225 -2.6093 -0.2154
  186SAPI  H12Y21411   4.620   1.804   8.807 -0.9953 -0.0145 -0.7466
  186SAPI  C31321412   4.772   1.881   8.678 -0.0146 -0.1858 -0.0621
  186SAPI  H13X21413   4.735   1.844   8.580  1.6468 -0.9024 -0.4504
  186SAPI  H13Y21414   4.829   1.797   8.724  0.5015  0.7569  1.0806
  186SAPI  C31421415   4.868   1.997   8.659  0.2032  0.5164  0.3280
  186SAPI  H14X21416   4.939   2.005   8.745  0.2615 -0.8424  0.4410
  186SAPI  H14Y21417   4.826   2.099   8.653 -0.8582  0.0187 -1.2331
  186SAPI  C31521418   4.947   1.985   8.529 -0.5911 -0.5706 -0.7297
  186SAPI  H15X21419   5.014   2.073   8.539 -1.8328  0.2310  0.9057
  186SAPI  H15Y21420   4.878   1.997   8.443 -0.3147  1.8804 -0.6860
  186SAPI  C31621421   5.032   1.857   8.537 -0.1827  0.0807  0.5198
  186SAPI  H16X21422   4.954   1.783   8.507 -0.6151  0.2446  1.2306
  186SAPI  H16Y21423   5.063   1.847   8.643 -1.0858  0.5438  0.8415
  186SAPI  C31721424   5.160   1.837   8.447 -0.6825 -0.2471 -0.1425
  186SAPI  H17X21425   5.233   1.915   8.478 -1.7150  0.9195 -0.5625
  186SAPI  H17Y21426   5.142   1.835   8.337  0.8520  0.2723 -0.4405
  186SAPI  C31821427   5.223   1.697   8.474  0.5490  0.5567  0.3110
  186SAPI  H18X21428   5.263   1.686   8.577 -0.2477  0.4740  0.6176
  186SAPI  H18Y21429   5.307   1.678   8.405  1.7889  3.5235  0.8382
  186SAPI  H18Z21430   5.134   1.630   8.469  1.2863 -0.3561 -3.4863
  187SAPI   C1221431   1.118   4.560   6.508  0.0106  0.9402  0.2445
  187SAPI    H221432   1.104   4.476   6.579  0.3415 -1.1050 -1.9836
  187SAPI    O221433   1.024   4.660   6.536  0.5475 -0.5780  0.7542
  187SAPI   HO221434   0.941   4.627   6.501  0.8758  0.0975 -0.7488
  187SAPI   C1321435   1.262   4.604   6.524  0.6498 -0.1739  0.1351
  187SAPI    H321436   1.316   4.508   6.514 -0.8904 -0.8836 -2.0409
  187SAPI    O321437   1.283   4.675   6.651  0.0182 -0.7004 -0.0442
  187SAPI   HO321438   1.200   4.681   6.699 -0.2504  2.9404 -0.6825
  187SAPI   C1421439   1.293   4.702   6.415  0.1205 -0.2004  0.3198
  187SAPI    H421440   1.229   4.792   6.430 -2.0362 -0.8428 -3.6396
  187SAPI    O421441   1.433   4.734   6.420 -0.0095  0.0998 -0.3712
  187SAPI   HO421442   1.425   4.829   6.412  1.5208  0.1422 -1.9750
  187SAPI   C1521443   1.255   4.662   6.275 -0.1142  0.3793  0.4432
  187SAPI    H521444   1.328   4.581   6.252  0.9236  1.1788  0.8685
  187SAPI    O521445   1.285   4.765   6.182  0.2088 -0.1721  0.2099
  187SAPI   HO521446   1.306   4.846   6.228  0.6718 -0.6997  0.9423
  187SAPI   C1621447   1.116   4.608   6.264  0.1198  0.4685  0.1865
  187SAPI    H621448   1.042   4.690   6.277 -1.5203 -0.4315 -2.5076
  187SAPI    O621449   1.081   4.554   6.133  0.2108 -0.3616  0.0430
  187SAPI   HO621450   1.145   4.485   6.110 -0.2401 -0.8748  0.3204
  187SAPI   C1121451   1.094   4.503   6.369 -0.4887  0.3099 -0.8402
  187SAPI    H121452   1.172   4.425   6.359  1.3489  1.7080  1.4709
  187SAPI     P21453   0.947   4.292   6.326 -0.3523 -0.2171  0.2198
  187SAPI   O1321454   1.040   4.262   6.212  0.6616  0.6847 -0.0640
  187SAPI   O1421455   0.806   4.256   6.297  0.1767 -0.2863 -0.4607
  187SAPI   O1221456   0.956   4.451   6.369 -0.3301  0.2763  0.1006
  187SAPI   O1121457   0.997   4.215   6.454  0.3407 -0.6415  0.3041
  187SAPI    C121458   0.900   4.143   6.535 -0.1795 -0.4436  0.3329
  187SAPI    HA21459   0.827   4.091   6.469  0.1093  0.3418 -0.6275
  187SAPI    HB21460   0.944   4.065   6.600 -0.2995 -0.3208  0.5644
  187SAPI    C221461   0.809   4.238   6.617  0.1162  0.8108  0.1051
  187SAPI    HS21462   0.757   4.309   6.549 -2.5701  2.2666  3.4164
  187SAPI   O2121463   0.888   4.305   6.712  0.3285 -0.2638 -0.1054
  187SAPI   C2121464   0.831   4.405   6.773 -0.0085 -0.2049  0.2756
  187SAPI   O2221465   0.712   4.432   6.747  0.4068 -0.6318 -0.1710
  187SAPI   C2221466   0.917   4.474   6.872  0.1075 -0.0629 -0.2742
  187SAPI   H2R21467   0.999   4.408   6.908  0.4420 -0.7894 -2.2489
  187SAPI   H2S21468   0.975   4.555   6.822 -1.0769  0.7952 -0.3058
  187SAPI    C321469   0.688   4.157   6.679  0.3099  0.6424 -1.0910
  187SAPI    HX21470   0.624   4.120   6.596 -0.8469  0.0043  0.0559
  187SAPI    HY21471   0.623   4.225   6.737 -1.2823 -1.7340  0.1030
  187SAPI   O3121472   0.741   4.042   6.764  0.3408  0.3103  0.1203
  187SAPI   C3121473   0.672   3.990   6.864  0.0762  0.1163 -0.7929
  187SAPI   O3221474   0.571   4.037   6.912 -0.6423 -0.4976  0.1777
  187SAPI   C3221475   0.742   3.867   6.921 -0.8983 -0.0519  0.1816
  187SAPI   H2X21476   0.852   3.883   6.910 -0.9350  0.5763  0.6571
  187SAPI   H2Y21477   0.714   3.788   6.848 -2.4319 -1.8740  2.6114
  187SAPI   C2321478   0.839   4.550   6.981  0.4297 -0.7050 -0.6208
  187SAPI   H3R21479   0.776   4.618   6.920  1.0659 -0.1920 -0.7120
  187SAPI   H3S21480   0.906   4.615   7.040  0.4524 -0.0959 -1.3100
  187SAPI   C2421481   0.752   4.469   7.078  0.0868  0.5534  0.7793
  187SAPI   H4R21482   0.676   4.407   7.026  0.8667  0.4226 -0.2427
  187SAPI   H4S21483   0.699   4.538   7.148  1.3735  1.8751  0.5040
  187SAPI   C2521484   0.836   4.367   7.153 -0.0519  0.8606  0.0866
  187SAPI   H5R21485   0.877   4.285   7.094  0.6095  0.5669  0.9317
  187SAPI   C2621486   0.862   4.371   7.286  0.1422  0.0141  0.2504
  187SAPI   H6R21487   0.915   4.288   7.335  0.8464  0.3249  0.0203
  187SAPI   C2721488   0.809   4.479   7.379  0.5429  0.6716 -1.0616
  187SAPI   H7R21489   0.716   4.517   7.334  0.0026 -0.9082 -1.3501
  187SAPI   H7S21490   0.884   4.561   7.382 -0.7366  1.8902 -1.8271
  187SAPI   C2821491   0.765   4.423   7.509  0.0248 -0.1447 -0.3385
  187SAPI   H8R21492   0.672   4.364   7.508  1.1820 -2.0644 -0.1997
  187SAPI   C2921493   0.823   4.448   7.634  0.5289  0.2926 -0.7532
  187SAPI   H9R21494   0.774   4.395   7.717  2.3421 -1.0627 -0.4710
  187SAPI  C21021495   0.948   4.523   7.669  0.0172  0.4212  1.1591
  187SAPI  H10R21496   0.936   4.621   7.720  1.6921  1.1672  0.2034
  187SAPI  H10S21497   1.006   4.544   7.577  0.9336 -2.3229  1.0249
  187SAPI  C21121498   1.048   4.440   7.752 -0.3765  0.5363 -0.4588
  187SAPI  H11R21499   1.139   4.407   7.700  1.0761  0.2885  2.0975
  187SAPI  C21221500   1.039   4.388   7.880 -0.2203 -0.0572  0.3463
  187SAPI  H12R21501   1.121   4.328   7.923 -1.6793 -0.9065  2.1015
  187SAPI  C21321502   0.926   4.416   7.980  0.5188  0.0120  0.0076
  187SAPI  H13R21503   0.892   4.319   8.023  0.7976 -0.2895 -0.4378
  187SAPI  H13S21504   0.847   4.470   7.924  0.7238 -0.8084 -1.1111
  187SAPI  C21421505   0.969   4.507   8.089  0.4563  0.3279 -0.0976
  187SAPI  H14R21506   0.932   4.610   8.082  1.6895  0.7312 -0.8021
  187SAPI  C21521507   1.023   4.475   8.212 -0.2712 -0.1698  0.2814
  187SAPI  H15R21508   1.057   4.557   8.277 -0.0006 -0.6251  0.7295
  187SAPI  C21621509   1.051   4.329   8.253 -0.0049 -0.4655  0.7437
  187SAPI  H16R21510   1.160   4.324   8.278  0.0803  0.7281  0.6383
  187SAPI  H16S21511   1.044   4.271   8.158 -0.7133 -0.1467  0.5970
  187SAPI  C21721512   0.958   4.258   8.353  0.0690 -0.3328 -0.7994
  187SAPI  H17R21513   1.000   4.156   8.366 -0.5689 -0.2124  4.5174
  187SAPI  H17S21514   0.853   4.244   8.319 -0.0647 -2.4332  0.2929
  187SAPI  C21821515   0.946   4.316   8.502  0.0067  0.3061 -0.3553
  187SAPI  H18R21516   0.861   4.270   8.557  0.7813 -0.0536  0.5908
  187SAPI  H18S21517   0.911   4.420   8.490  0.7287  0.5169 -0.6775
  187SAPI  C21921518   1.068   4.320   8.593  0.3643 -0.3920  0.0382
  187SAPI  H19R21519   1.029   4.348   8.693 -1.4849 -0.5681 -0.5961
  187SAPI  H19S21520   1.147   4.387   8.553  0.8897 -0.3794  1.0823
  187SAPI  C22021521   1.114   4.177   8.619 -0.0658 -0.2336  0.3383
  187SAPI  H20R21522   1.182   4.143   8.538  1.5128  1.2801  0.9727
  187SAPI  H20S21523   1.028   4.107   8.633 -0.2335 -0.6529 -2.2321
  187SAPI  H20T21524   1.172   4.182   8.713 -0.2037  2.2375  0.3566
  187SAPI   C3321525   0.703   3.828   7.066 -0.9880  0.2141 -0.6705
  187SAPI   H3X21526   0.743   3.727   7.091  1.4921  1.4886  0.8314
  187SAPI   H3Y21527   0.592   3.815   7.064 -0.8238 -1.2916 -1.5555
  187SAPI   C3421528   0.746   3.938   7.170 -0.0215  0.2637  0.1809
  187SAPI   H4X21529   0.733   4.043   7.136 -0.3673  1.3011  3.1815
  187SAPI   H4Y21530   0.856   3.926   7.186 -0.2668 -0.3905  1.5482
  187SAPI   C3521531   0.654   3.914   7.294 -0.3695  0.0067  0.4624
  187SAPI   H5X21532   0.674   3.808   7.322  5.2767  0.9745  1.2888
  187SAPI   H5Y21533   0.545   3.921   7.274  0.0175  0.3368 -1.7825
  187SAPI   C3621534   0.692   4.008   7.407 -0.8459  0.1016  0.4714
  187SAPI   H6X21535   0.653   4.111   7.389 -0.7789  0.6971  3.3679
  187SAPI   H6Y21536   0.803   4.004   7.409 -0.8320  0.5982  0.6984
  187SAPI   C3721537   0.649   3.977   7.553  0.4342 -0.2004  0.6292
  187SAPI   H7X21538   0.658   3.869   7.577  0.3089 -0.1613  0.8563
  187SAPI   H7Y21539   0.548   4.021   7.566  0.2755  0.2393 -1.7553
  187SAPI   C3821540   0.750   4.038   7.659 -0.1275  0.0474  0.0344
  187SAPI   H8X21541   0.749   4.148   7.646  0.9787  0.0637  0.0415
  187SAPI   H8Y21542   0.847   3.983   7.659 -1.5585 -2.6891  0.7060
  187SAPI   C3921543   0.699   4.002   7.791 -0.0166  1.3577  0.0432
  187SAPI   H9X21544   0.691   3.892   7.807 -0.5547  1.3719 -0.1302
  187SAPI   H9Y21545   0.597   4.041   7.809 -1.3688 -1.4395 -0.9088
  187SAPI  C31021546   0.791   4.074   7.885 -0.1821 -0.1560 -0.3751
  187SAPI  H10X21547   0.734   4.160   7.927  1.5033  0.5548  0.5759
  187SAPI  H10Y21548   0.879   4.132   7.847 -0.2748  1.3665  1.5227
  187SAPI  C31121549   0.848   3.998   8.005  0.3373 -0.0715 -0.5174
  187SAPI  H11X21550   0.900   4.085   8.051  1.1346 -1.6331  1.6855
  187SAPI  H11Y21551   0.924   3.921   7.979  1.6125  0.3847  1.6224
  187SAPI  C31221552   0.746   3.940   8.101  0.7643 -0.9612  0.2505
  187SAPI  H12X21553   0.690   3.853   8.060  0.6667 -0.7023 -0.1774
  187SAPI  H12Y21554   0.667   4.017   8.112  2.6488  1.0594  0.3552
  187SAPI  C31321555   0.818   3.913   8.230 -0.3063  0.0026  0.5529
  187SAPI  H13X21556   0.908   3.979   8.228 -0.0461 -0.3383  0.8404
  187SAPI  H13Y21557   0.845   3.808   8.254 -0.3636  0.2973  1.9946
  187SAPI  C31421558   0.737   3.960   8.354  0.2728 -0.0524 -0.1838
  187SAPI  H14X21559   0.644   3.900   8.345  2.0452 -2.8791 -0.8617
  187SAPI  H14Y21560   0.701   4.065   8.343  1.2155  0.1390 -1.6703
  187SAPI  C31521561   0.782   3.915   8.496 -0.0176  0.0345  0.4596
  187SAPI  H15X21562   0.893   3.923   8.500  0.0958 -1.3334  0.3178
  187SAPI  H15Y21563   0.769   3.805   8.501  1.6267 -0.2125 -0.0884
  187SAPI  C31621564   0.702   3.983   8.616  0.5287 -0.1150 -0.0115
  187SAPI  H16X21565   0.679   4.089   8.594 -1.7265 -0.7632 -1.1322
  187SAPI  H16Y21566   0.762   3.965   8.708  1.1809  1.4002 -0.1116
  187SAPI  C31721567   0.567   3.911   8.642 -0.2111  0.4654  0.2403
  187SAPI  H17X21568   0.577   3.800   8.644  0.4109  0.5214  0.6728
  187SAPI  H17Y21569   0.504   3.947   8.558 -0.4775  0.6014  0.5002
  187SAPI  C31821570   0.497   3.944   8.777 -0.3516 -0.8475  0.5057
  187SAPI  H18X21571   0.407   3.883   8.800 -1.5168  0.4343 -0.5037
  187SAPI  H18Y21572   0.461   4.048   8.763  1.5831 -0.3706 -1.3579
  187SAPI  H18Z21573   0.576   3.932   8.854  1.0801 -4.1683 -1.2762
  188SAPI   C1221574   5.874   5.979   5.939 -0.4144  0.0036 -1.0745
  188SAPI    H221575   5.902   5.876   5.969 -0.9054  0.1324 -0.1481
  188SAPI    O221576   5.963   6.012   5.833 -0.1359 -0.1049  0.4652
  188SAPI   HO221577   6.047   5.976   5.861  0.5798 -0.3732 -1.8411
  188SAPI   C1321578   5.726   5.966   5.898 -0.0492 -0.1710 -0.2916
  188SAPI    H321579   5.674   5.944   5.994  0.5717  0.0686  0.1032
  188SAPI    O321580   5.702   5.861   5.807 -0.2345 -0.0717  0.1084
  188SAPI   HO321581   5.622   5.817   5.836  0.4686 -2.7390 -1.6554
  188SAPI   C1421582   5.679   6.101   5.853 -0.4701  0.1615 -0.5798
  188SAPI    H421583   5.742   6.127   5.765 -0.6467 -0.4626 -0.9024
  188SAPI    O421584   5.544   6.099   5.814 -0.2987 -0.1139  0.4962
  188SAPI   HO421585   5.537   6.141   5.728  1.0763  1.7550  1.2287
  188SAPI   C1521586   5.698   6.206   5.960 -0.4118  0.0583 -0.2406
  188SAPI    H521587   5.630   6.182   6.045 -0.5812  1.7488  0.1366
  188SAPI    O521588   5.643   6.333   5.933  0.0056 -0.5028  0.1949
  188SAPI   HO521589   5.662   6.395   6.003  0.2830  1.4440 -1.5038
  188SAPI   C1621590   5.845   6.207   6.016 -0.3709  0.2689 -0.1660
  188SAPI    H621591   5.915   6.241   5.937  0.1761  0.8675  0.5531
  188SAPI    O621592   5.858   6.298   6.129  0.3096 -0.0854 -0.3389
  188SAPI   HO621593   5.795   6.261   6.192 -1.7378  2.4938 -0.6907
  188SAPI   C1121594   5.893   6.066   6.053 -0.1759 -0.6817  0.0160
  188SAPI    H121595   5.825   6.041   6.138  0.2125  1.2735  0.9573
  188SAPI     P21596   6.098   5.972   6.209  0.3020  0.0189  0.2283
  188SAPI   O1321597   6.245   5.978   6.197 -0.2868  0.2644 -0.2387
  188SAPI   O1421598   6.034   5.837   6.200 -0.9665  0.2847  0.6652
  188SAPI   O1221599   6.032   6.070   6.098 -0.6024  0.0661 -0.4523
  188SAPI   O1121600   6.047   6.048   6.345  0.1184  0.1347  0.2027
  188SAPI    C121601   5.941   5.996   6.417  0.5547  0.1147 -0.3454
  188SAPI    HA21602   5.874   6.080   6.445 -0.6463 -1.2691  1.2051
  188SAPI    HB21603   5.875   5.928   6.359  1.0077 -1.4276  0.8718
  188SAPI    C221604   5.976   5.913   6.549 -0.4302 -0.2871 -0.5678
  188SAPI    HS21605   5.882   5.886   6.600 -0.8857 -0.9041 -1.6970
  188SAPI   O2121606   6.073   5.987   6.626  0.0712  0.4139 -0.2097
  188SAPI   C2121607   6.023   6.035   6.741  0.4972  0.2546 -0.1204
  188SAPI   O2221608   5.909   6.023   6.784  0.3368  0.1717  0.2196
  188SAPI   C2221609   6.131   6.123   6.805  0.0295 -0.3929  0.0480
  188SAPI   H2R21610   6.200   6.175   6.736  0.5711  0.8764  1.4946
  188SAPI   H2S21611   6.078   6.204   6.859  0.7130 -0.5518  0.9888
  188SAPI    C321612   6.040   5.779   6.499  0.3497  0.4473 -0.0929
  188SAPI    HX21613   6.126   5.801   6.433  0.8527 -1.4627 -0.1432
  188SAPI    HY21614   5.962   5.735   6.433 -0.5079 -1.4812  2.0250
  188SAPI   O3121615   6.058   5.686   6.608 -0.2615 -0.2747 -0.1300
  188SAPI   C3121616   6.183   5.688   6.662 -0.5065 -0.7936  0.2941
  188SAPI   O3221617   6.268   5.773   6.634  0.2974 -0.3805 -0.0844
  188SAPI   C3221618   6.187   5.587   6.770  0.3053  0.3236  0.1993
  188SAPI   H2X21619   6.171   5.491   6.716  2.1325  0.1286 -0.0918
  188SAPI   H2Y21620   6.114   5.616   6.849  0.5333  0.3884  0.3895
  188SAPI   C2321621   6.222   6.042   6.899 -0.6739 -0.9509  0.6474
  188SAPI   H3R21622   6.324   6.087   6.895 -0.9875 -0.2506  0.3086
  188SAPI   H3S21623   6.251   5.947   6.849 -0.4448  0.1679 -1.5088
  188SAPI   C2421624   6.173   6.024   7.042  0.4907 -0.5237 -0.1063
  188SAPI   H4R21625   6.247   5.957   7.091  0.0000 -2.1048 -1.4235
  188SAPI   H4S21626   6.078   5.966   7.049  1.2548 -1.8124 -0.2148
  188SAPI   C2521627   6.182   6.155   7.119  0.1409 -0.6433  0.2560
  188SAPI   H5R21628   6.279   6.204   7.132  0.2866 -0.5111 -1.1728
  188SAPI   C2621629   6.071   6.218   7.171 -0.3965  0.0844 -0.0286
  188SAPI   H6R21630   6.085   6.313   7.223  0.8652 -1.1129  1.9572
  188SAPI   C2721631   5.929   6.171   7.168  0.0135  0.6742 -0.1903
  188SAPI   H7R21632   5.913   6.071   7.213  0.0400  0.7875  0.0748
  188SAPI   H7S21633   5.900   6.158   7.062 -1.3018  0.3833  0.1903
  188SAPI   C2821634   5.826   6.266   7.227  0.2158 -0.6563 -0.4863
  188SAPI   H8R21635   5.766   6.319   7.152  2.0819  0.1834 -1.4719
  188SAPI   C2921636   5.808   6.277   7.363 -0.1583  0.0410  0.3655
  188SAPI   H9R21637   5.723   6.343   7.387  0.6498  1.3462 -0.2189
  188SAPI  C21021638   5.900   6.217   7.469  0.3703 -0.1675  0.0590
  188SAPI  H10R21639   5.961   6.134   7.428  0.7755 -0.3347  0.9634
  188SAPI  H10S21640   5.842   6.172   7.553  1.1883 -0.0382  0.7100
  188SAPI  C21121641   6.003   6.314   7.521  0.4315 -0.5100  0.2266
  188SAPI  H11R21642   6.047   6.371   7.438 -1.0395 -0.7190 -0.7191
  188SAPI  C21221643   6.045   6.333   7.648  0.4640 -0.0348  0.1480
  188SAPI  H12R21644   6.108   6.421   7.669  0.0043  0.5795 -0.9806
  188SAPI  C21321645   5.990   6.251   7.764  0.0940  0.0063  0.1440
  188SAPI  H13R21646   5.970   6.146   7.732 -1.4882 -0.5287  2.6212
  188SAPI  H13S21647   5.891   6.286   7.802  0.3588  1.3110 -0.3039
  188SAPI  C21421648   6.092   6.230   7.882 -0.6215  0.3761  0.6219
  188SAPI  H14R21649   6.148   6.135   7.885 -0.6101  0.3827  0.6272
  188SAPI  C21521650   6.101   6.315   7.985  0.6224  0.1016 -0.3850
  188SAPI  H15R21651   6.182   6.300   8.058  0.2415  0.8684  0.2190
  188SAPI  C21621652   6.006   6.434   8.006 -0.4300  0.1396  0.4741
  188SAPI  H16R21653   5.905   6.395   7.977 -0.3759 -0.5412  1.1532
  188SAPI  H16S21654   6.034   6.512   7.933 -0.4906 -0.8676 -0.6535
  188SAPI  C21721655   5.991   6.486   8.148 -0.0195  0.3382  0.5333
  188SAPI  H17R21656   6.089   6.523   8.185 -0.7843  0.8380  2.1670
  188SAPI  H17S21657   5.960   6.408   8.222 -2.3647  1.5540  0.9293
  188SAPI  C21821658   5.884   6.599   8.159 -0.5477 -0.4256 -0.4630
  188SAPI  H18R21659   5.798   6.541   8.117 -2.8446  0.9628  1.9939
  188SAPI  H18S21660   5.901   6.679   8.084 -1.2336  0.1606 -0.0082
  188SAPI  C21921661   5.856   6.652   8.300 -0.1722 -0.0342  0.1856
  188SAPI  H19R21662   5.794   6.744   8.305 -0.6755 -0.4549  2.6443
  188SAPI  H19S21663   5.948   6.677   8.358 -1.3422  1.8154  1.3334
  188SAPI  C22021664   5.782   6.554   8.384  0.2354 -0.1132  0.1747
  188SAPI  H20R21665   5.846   6.464   8.397  0.8442  0.2060 -0.5183
  188SAPI  H20S21666   5.684   6.534   8.336  0.4812 -0.7571 -0.0604
  188SAPI  H20T21667   5.766   6.597   8.485  0.0825  1.8575 -0.6451
  188SAPI   C3321668   6.327   5.577   6.836  0.1652  0.1972  0.7863
  188SAPI   H3X21669   6.327   5.660   6.910  2.3023  1.9094 -0.9811
  188SAPI   H3Y21670   6.405   5.576   6.757 -0.3488 -1.1485  0.2559
  188SAPI   C3421671   6.350   5.444   6.905  0.3006  0.6763 -0.5164
  188SAPI   H4X21672   6.456   5.417   6.921 -0.4815 -1.2622  2.0221
  188SAPI   H4Y21673   6.334   5.362   6.831  0.7411 -0.1073  0.2456
  188SAPI   C3521674   6.272   5.419   7.034 -0.2286  0.4588  0.4647
  188SAPI   H5X21675   6.290   5.313   7.060  1.4160  0.7526  0.6357
  188SAPI   H5Y21676   6.163   5.435   7.017 -0.0543 -0.3339 -1.7347
  188SAPI   C3621677   6.319   5.508   7.156 -0.8433  0.2187 -0.2981
  188SAPI   H6X21678   6.296   5.611   7.120  0.0697  0.7161  0.4965
  188SAPI   H6Y21679   6.428   5.501   7.173 -0.7792  2.7991  0.7279
  188SAPI   C3721680   6.242   5.462   7.282  0.6537  0.0639 -0.1689
  188SAPI   H7X21681   6.227   5.353   7.265 -0.0551  0.2730 -0.9407
  188SAPI   H7Y21682   6.139   5.502   7.288  1.5375  2.3420  1.0913
  188SAPI   C3821683   6.311   5.488   7.415  0.0888  0.1192  0.3828
  188SAPI   H8X21684   6.358   5.589   7.413  0.1670  0.0883  0.6278
  188SAPI   H8Y21685   6.402   5.425   7.421 -0.2240 -0.1997  2.4349
  188SAPI   C3921686   6.232   5.451   7.539  0.0556  0.2417  0.0235
  188SAPI   H9X21687   6.193   5.347   7.536  1.3766 -0.3244  1.1628
  188SAPI   H9Y21688   6.150   5.526   7.539  0.7571  1.0547 -1.2052
  188SAPI  C31021689   6.319   5.461   7.669 -0.0965  0.2215 -0.3325
  188SAPI  H10X21690   6.366   5.561   7.659 -0.1305  0.0054 -4.0219
  188SAPI  H10Y21691   6.396   5.382   7.677 -0.3573  0.0978  1.5034
  188SAPI  C31121692   6.225   5.453   7.797 -0.0638 -1.0833  0.1168
  188SAPI  H11X21693   6.164   5.360   7.793 -1.4001 -0.2564  0.6185
  188SAPI  H11Y21694   6.155   5.539   7.803 -1.4155 -1.9185 -2.2898
  188SAPI  C31221695   6.310   5.461   7.925  0.5403 -0.0926  0.2174
  188SAPI  H12X21696   6.369   5.555   7.924  3.1885 -1.6458  0.6888
  188SAPI  H12Y21697   6.392   5.386   7.921  1.7325  1.1881 -0.3976
  188SAPI  C31321698   6.248   5.441   8.061  0.9093  0.0936 -0.7521
  188SAPI  H13X21699   6.318   5.481   8.138 -2.2413  3.4432  0.6830
  188SAPI  H13Y21700   6.233   5.333   8.082 -0.6588  0.3391 -0.5163
  188SAPI  C31421701   6.128   5.531   8.086  0.3157  0.4685 -0.3739
  188SAPI  H14X21702   6.053   5.519   8.004 -0.8037 -1.3826  0.8464
  188SAPI  H14Y21703   6.172   5.633   8.083  0.6349  0.4619  2.0935
  188SAPI  C31521704   6.047   5.508   8.218 -0.8843 -0.1572 -0.3355
  188SAPI  H15X21705   6.001   5.407   8.225 -0.0699 -0.6979 -2.1310
  188SAPI  H15Y21706   5.963   5.580   8.215  1.1245  2.3241 -0.6441
  188SAPI  C31621707   6.141   5.525   8.343  1.0969  0.0451  1.2799
  188SAPI  H16X21708   6.208   5.612   8.323  0.7715 -0.1668 -1.0692
  188SAPI  H16Y21709   6.198   5.433   8.368  1.7266  0.2126  0.5129
  188SAPI  C31721710   6.059   5.557   8.472  0.0759  0.3169 -0.2328
  188SAPI  H17X21711   5.983   5.477   8.487  0.1034  0.0949 -1.1919
  188SAPI  H17Y21712   6.007   5.654   8.457  0.6551  0.4723 -1.3509
  188SAPI  C31821713   6.137   5.566   8.592 -0.6350  0.9086 -0.5863
  188SAPI  H18X21714   6.221   5.637   8.573 -0.8593  1.8139  1.5685
  188SAPI  H18Y21715   6.183   5.466   8.608  0.5112  1.7039  1.4506
  188SAPI  H18Z21716   6.086   5.613   8.679 -2.1292 -1.2056 -0.2638
  189POPC     N21717   1.780   1.190  11.053 -0.3679  0.0196  0.7990
  189POPC   C1221718   1.702   1.237  10.932  0.4768 -0.3260 -0.5512
  189POPC  H12A21719   1.618   1.300  10.959  1.4950  0.9939 -0.3160
  189POPC  H12B21720   1.669   1.158  10.867 -1.6383  0.0335  0.0384
  189POPC   C1321721   1.841   1.304  11.139 -0.4267  0.4352  0.5133
  189POPC  H13A21722   1.881   1.373  11.066 -0.3957 -1.3132 -1.2189
  189POPC  H13B21723   1.762   1.340  11.203  0.8617  1.7123  1.4450
  189POPC  H13C21724   1.917   1.264  11.205  0.4551 -0.3487 -0.9135
  189POPC   C1421725   1.693   1.107  11.135  1.1261  1.0849 -0.9274
  189POPC  H14A21726   1.608   1.164  11.171 -0.7738 -1.5333 -0.8970
  189POPC  H14B21727   1.635   1.030  11.085 -0.6995 -0.9872  3.6954
  189POPC  H14C21728   1.744   1.067  11.222 -0.4079  1.3435  0.1409
  189POPC   C1521729   1.893   1.104  11.014  0.4028 -0.3347 -0.6560
  189POPC  H15A21730   1.945   1.059  11.098  2.7836  0.2903 -1.7168
  189POPC  H15B21731   1.971   1.152  10.957  0.5725  0.3184  0.1029
  189POPC  H15C21732   1.860   1.014  10.964 -0.5589 -1.0358  1.1033
  189POPC   C1121733   1.774   1.334  10.841  0.4588  0.2514  0.3182
  189POPC  H11A21734   1.738   1.343  10.736 -1.1912  1.3839  0.9361
  189POPC  H11B21735   1.876   1.298  10.816 -0.0542 -0.2950 -1.1209
  189POPC     P21736   1.718   1.583  10.887  0.3129  0.0014 -0.1455
  189POPC   O1321737   1.780   1.693  10.964 -0.0720  0.6849  0.6158
  189POPC   O1421738   1.579   1.554  10.924  0.3505 -0.0787 -0.2169
  189POPC   O1221739   1.799   1.454  10.911 -0.3798 -0.6061 -0.0765
  189POPC   O1121740   1.732   1.614  10.730  0.1700 -0.6269 -0.5637
  189POPC    C121741   1.853   1.640  10.670  0.7488 -0.4428 -0.2303
  189POPC    HA21742   1.939   1.646  10.741  1.9525  4.2127 -1.7382
  189POPC    HB21743   1.843   1.744  10.631 -0.7114 -0.6765 -0.5097
  189POPC    C221744   1.863   1.540  10.551  0.3969 -0.4272 -0.0261
  189POPC    HS21745   1.878   1.439  10.593 -1.6425  0.0036  1.9126
  189POPC   O2121746   1.979   1.581  10.471 -0.4216 -0.2230  0.1263
  189POPC   C2121747   2.065   1.485  10.427 -0.5417 -0.7334  0.4152
  189POPC   O2221748   2.061   1.366  10.459  0.6127 -0.8119  0.2897
  189POPC   C2221749   2.156   1.542  10.315  0.2456 -0.0042  0.7142
  189POPC   H2R21750   2.241   1.594  10.363  0.4951  0.3205 -0.0691
  189POPC   H2S21751   2.090   1.617  10.266 -0.5717 -1.0238  0.2053
  189POPC    C321752   1.734   1.534  10.468 -0.0289  0.6383 -0.6898
  189POPC    HX21753   1.710   1.638  10.437 -2.3115  0.2257 -0.4334
  189POPC    HY21754   1.648   1.503  10.530 -1.7351  1.3853 -2.5470
  189POPC   O3121755   1.750   1.448  10.350 -0.1848  0.0954 -0.6102
  189POPC   C3121756   1.730   1.322  10.369 -0.5878  0.5893 -0.5410
  189POPC   O3221757   1.718   1.264  10.475 -0.3293  0.0858 -0.1428
  189POPC   C3221758   1.715   1.247  10.234  0.4168 -0.3207 -0.5387
  189POPC   H2X21759   1.695   1.319  10.153 -1.4993  0.3697  0.4658
  189POPC   H2Y21760   1.639   1.166  10.243  0.4385 -0.1632  1.5968
  189POPC   C2321761   2.200   1.422  10.225 -0.2933 -0.7811  0.0304
  189POPC   H3R21762   2.114   1.355  10.204 -0.7358 -0.4360  0.6965
  189POPC   H3S21763   2.274   1.362  10.283 -1.6691 -0.6133  2.0961
  189POPC   C2421764   2.266   1.472  10.100 -0.2194 -0.1150  0.0555
  189POPC   H4R21765   2.369   1.503  10.125 -0.3233  0.3029 -0.0280
  189POPC   H4S21766   2.209   1.556  10.056  1.7069  0.8449 -0.7268
  189POPC   C2521767   2.285   1.354  10.007 -0.2193  0.1964 -0.3294
  189POPC   H5R21768   2.189   1.304   9.982  0.5108 -2.1485  1.1547
  189POPC   H5S21769   2.338   1.273  10.063  0.3582 -0.2897 -1.5478
  189POPC   C2621770   2.379   1.386   9.890  0.7073 -0.1874  0.5855
  189POPC   H6R21771   2.478   1.427   9.920  0.7198  0.1615  0.0739
  189POPC   H6S21772   2.329   1.468   9.835  1.9872 -0.5984 -1.2632
  189POPC   C2721773   2.402   1.268   9.791  0.2612  0.3356 -0.1798
  189POPC   H7R21774   2.410   1.181   9.859  0.7322  0.6963  0.2336
  189POPC   H7S21775   2.503   1.285   9.748  0.3607 -2.3424 -1.1381
  189POPC   C2821776   2.291   1.250   9.681  0.0457 -0.0257  0.3865
  189POPC   H8R21777   2.194   1.219   9.727  1.0160 -3.9980  0.1224
  189POPC   H8S21778   2.322   1.159   9.627  0.2361  0.1220  0.2465
  189POPC   C2921779   2.277   1.368   9.586  0.1287  0.6099 -0.2407
  189POPC   H9121780   2.258   1.460   9.643  0.7477  1.9110 -2.0236
  189POPC  C21021781   2.285   1.357   9.451  0.1201 -0.4787  0.1241
  189POPC  H10121782   2.263   1.451   9.397  1.0623 -0.5702 -0.4384
  189POPC  C21121783   2.304   1.227   9.377 -0.0487  0.1701  0.6094
  189POPC  H11R21784   2.214   1.207   9.315 -0.5761 -0.6955  1.6373
  189POPC  H11S21785   2.311   1.130   9.431  1.0648 -2.4630 -3.7171
  189POPC  C21221786   2.433   1.244   9.290 -0.1247 -0.2560  0.4103
  189POPC  H12R21787   2.528   1.259   9.346  1.3392 -0.1591 -1.9658
  189POPC  H12S21788   2.428   1.337   9.229 -2.6023 -2.0069 -2.3391
  189POPC  C21321789   2.458   1.121   9.200  0.2459  0.6267 -0.0601
  189POPC  H13R21790   2.357   1.077   9.184  0.6827 -0.8925  1.1062
  189POPC  H13S21791   2.510   1.039   9.253 -2.0795 -1.1058 -0.2935
  189POPC  C21421792   2.536   1.138   9.069  0.3109 -0.8951 -0.8672
  189POPC  H14R21793   2.579   1.043   9.033  1.8098 -0.1505 -1.1388
  189POPC  H14S21794   2.612   1.218   9.087 -1.4677  0.2951  2.0720
  189POPC  C21521795   2.442   1.206   8.970 -0.3111 -0.3675 -0.1596
  189POPC  H15R21796   2.384   1.292   9.009  1.2985  0.3563  0.7696
  189POPC  H15S21797   2.359   1.135   8.955 -0.9129  0.4003 -0.5564
  189POPC  C21621798   2.506   1.222   8.830  0.4731  0.8939 -0.4416
  189POPC  H16R21799   2.519   1.122   8.783  2.3356  0.4132  0.9198
  189POPC  H16S21800   2.609   1.261   8.845  0.9512  0.4107 -2.2266
  189POPC  C21721801   2.410   1.297   8.736  0.0110  0.4630  0.7151
  189POPC  H17R21802   2.386   1.393   8.788 -0.7382 -0.4356  2.1055
  189POPC  H17S21803   2.321   1.231   8.723  1.7603 -1.4796 -2.3911
  189POPC  C21821804   2.469   1.329   8.592 -0.1634  0.7899  0.3471
  189POPC  H18R21805   2.567   1.379   8.601  1.2886 -1.7798 -0.0642
  189POPC  H18S21806   2.394   1.380   8.527 -0.1440 -0.2610 -0.5510
  189POPC  H18T21807   2.488   1.233   8.538 -0.4427  2.2654 -2.6134
  189POPC   C3321808   1.836   1.159  10.198 -0.1704  0.1802 -0.1848
  189POPC   H3X21809   1.856   1.096  10.288  4.5310  0.9002 -0.4664
  189POPC   H3Y21810   1.923   1.228  10.191 -0.5510  0.5544 -1.5221
  189POPC   C3421811   1.822   1.083  10.064  0.1665 -0.3834  0.1671
  189POPC   H4X21812   1.721   1.036  10.059 -0.1170  0.3755 -1.9590
  189POPC   H4Y21813   1.890   0.996  10.054  1.2186  0.4817 -0.2899
  189POPC   C3521814   1.841   1.168   9.935 -0.4162 -0.0529 -0.0983
  189POPC   H5X21815   1.937   1.224   9.948 -0.4092  0.3947 -1.8989
  189POPC   H5Y21816   1.765   1.248   9.952  0.3887  0.4493  1.3741
  189POPC   C3621817   1.834   1.092   9.802 -0.0018 -0.6032 -0.1729
  189POPC   H6X21818   1.737   1.038   9.807 -1.2437  1.6147  1.9357
  189POPC   H6Y21819   1.916   1.018   9.792  0.5844  0.0453 -0.1875
  189POPC   C3721820   1.831   1.182   9.680 -0.7006  0.2896  0.0194
  189POPC   H7X21821   1.921   1.248   9.680 -0.9599  0.6518 -0.4660
  189POPC   H7Y21822   1.746   1.253   9.688 -1.3172 -0.5611  1.1479
  189POPC   C3821823   1.832   1.107   9.546 -0.3758  0.1055  0.2048
  189POPC   H8X21824   1.926   1.049   9.534 -0.3065  0.5591 -1.8305
  189POPC   H8Y21825   1.828   1.178   9.461 -1.4234 -0.3657 -0.1628
  189POPC   C3921826   1.709   1.017   9.517 -0.0038  0.2526 -0.1083
  189POPC   H9X21827   1.631   1.089   9.485  0.8489  1.2778  0.0625
  189POPC   H9Y21828   1.681   0.951   9.602 -4.6354 -1.5433 -2.6913
  189POPC  C31021829   1.723   0.918   9.398  0.3313 -0.1663  1.1651
  189POPC  H10X21830   1.639   0.845   9.394 -0.6119  0.9395 -2.2370
  189POPC  H10Y21831   1.815   0.856   9.416 -0.0767 -0.5785  1.8854
  189POPC  C31121832   1.739   1.009   9.268  0.8478 -0.0877  0.0606
  189POPC  H11X21833   1.699   1.111   9.282  2.5089  0.7131 -0.7453
  189POPC  H11Y21834   1.666   0.960   9.199  2.4928 -0.6813 -1.3285
  189POPC  C31221835   1.871   1.012   9.208 -0.4220 -0.0043  0.0881
  189POPC  H12X21836   1.886   0.911   9.165 -1.7822  0.9068 -2.7241
  189POPC  H12Y21837   1.957   1.030   9.276  0.1690  1.6574 -1.0460
  189POPC  C31321838   1.894   1.108   9.087 -1.1532 -0.0405 -0.5483
  189POPC  H13X21839   2.000   1.097   9.054 -0.9122 -2.1779  0.7092
  189POPC  H13Y21840   1.877   1.210   9.125 -0.1260  0.4487 -1.3460
  189POPC  C31421841   1.801   1.093   8.973 -0.6207  0.1486  0.4156
  189POPC  H14X21842   1.707   1.147   8.996 -0.7438 -0.0377  0.3491
  189POPC  H14Y21843   1.777   0.989   8.945 -0.9136  0.6287 -1.1789
  189POPC  C31521844   1.857   1.151   8.842  0.6955 -0.3666  0.6433
  189POPC  H15X21845   1.957   1.106   8.824  0.9885  0.3889  0.3441
  189POPC  H15Y21846   1.867   1.261   8.846 -2.9373  0.0947 -0.0379
  189POPC  C31621847   1.765   1.111   8.726 -0.6895  0.4189 -0.6574
  189POPC  H16X21848   1.658   1.135   8.743 -1.3316 -0.8819 -2.5535
  189POPC  H16Y21849   1.770   1.003   8.702  1.4798  0.4113 -0.3761
  189POPC  H16Z21850   1.792   1.167   8.634  2.8034  0.3099  0.1496
  190POPC     N21851   3.770   1.891  10.822 -0.0528 -0.0144 -0.6925
  190POPC   C1221852   3.784   1.956  10.957  0.0376  0.4397  0.0954
  190POPC  H12A21853   3.852   2.038  10.938  0.7124 -0.1305 -0.0109
  190POPC  H12B21854   3.838   1.881  11.012  2.6054  0.5007 -2.1315
  190POPC   C1321855   3.680   1.774  10.825  0.2344 -0.3109  0.1174
  190POPC  H13A21856   3.716   1.706  10.901  1.1002 -0.8466 -0.7516
  190POPC  H13B21857   3.580   1.804  10.853 -0.4061 -0.1763 -2.1137
  190POPC  H13C21858   3.660   1.723  10.732 -2.7166  0.0403  0.4565
  190POPC   C1421859   3.707   1.988  10.732  0.1692 -0.1474  0.0931
  190POPC  H14A21860   3.622   2.022  10.790 -0.5713 -3.9254  1.4718
  190POPC  H14B21861   3.767   2.076  10.716 -0.9913  1.3598  3.1226
  190POPC  H14C21862   3.669   1.951  10.638 -0.0768 -0.1237  0.1817
  190POPC   C1521863   3.907   1.848  10.774  0.0796  0.0055  0.6317
  190POPC  H15A21864   3.952   1.786  10.849  1.4675 -0.3972 -0.4898
  190POPC  H15B21865   3.968   1.938  10.769  1.3975 -0.9047 -2.3499
  190POPC  H15C21866   3.900   1.796  10.679 -1.1862 -1.9992  1.7714
  190POPC   C1121867   3.663   2.000  11.035  0.2232 -0.5789  0.2518
  190POPC  H11A21868   3.685   2.023  11.142 -1.1484 -0.2106  0.4702
  190POPC  H11B21869   3.595   1.913  11.045 -0.3495  0.0532  2.3343
  190POPC     P21870   3.625   2.258  10.994  0.0208 -0.0185 -0.1054
  190POPC   O1321871   3.763   2.286  10.956 -0.4050  0.3945 -0.2068
  190POPC   O1421872   3.591   2.304  11.134 -0.0220  0.0483  0.7591
  190POPC   O1221873   3.588   2.106  10.967  0.6404 -0.2916  0.3721
  190POPC   O1121874   3.531   2.331  10.895  0.0079  0.1110 -0.1036
  190POPC    C121875   3.568   2.438  10.817  0.2648 -0.1438  0.1656
  190POPC    HA21876   3.638   2.510  10.864 -0.5087  1.5491 -1.1491
  190POPC    HB21877   3.480   2.506  10.819  2.2424  2.5885 -0.4064
  190POPC    C221878   3.606   2.407  10.670 -0.5940  0.4604  0.8594
  190POPC    HS21879   3.596   2.503  10.613 -0.3201  0.0296  0.0652
  190POPC   O2121880   3.530   2.290  10.603  0.2179  0.1903 -0.7733
  190POPC   C2121881   3.431   2.339  10.525  0.1648 -0.3835  0.1799
  190POPC   O2221882   3.400   2.458  10.516 -0.4509  0.8177  0.5917
  190POPC   C2221883   3.376   2.225  10.436  0.4842 -0.4727 -0.2700
  190POPC   H2R21884   3.344   2.142  10.502  0.1073 -0.0822  0.0490
  190POPC   H2S21885   3.468   2.192  10.383 -0.0170 -1.6494 -0.4159
  190POPC    C321886   3.762   2.372  10.656  0.2815 -0.3760  0.3496
  190POPC    HX21887   3.773   2.269  10.698 -3.4316 -1.4057 -0.8458
  190POPC    HY21888   3.823   2.439  10.720 -0.8814 -0.1768  1.2728
  190POPC   O3121889   3.801   2.383  10.516 -0.2275 -1.0241  0.2947
  190POPC   C3121890   3.804   2.270  10.451 -0.4910  0.5374  0.2695
  190POPC   O3221891   3.766   2.161  10.488  0.3492  0.4196 -0.4513
  190POPC   C3221892   3.871   2.290  10.321 -0.8896 -0.1307  0.2464
  190POPC   H2X21893   3.981   2.286  10.337 -1.2145 -1.3598  2.6509
  190POPC   H2Y21894   3.843   2.392  10.288  1.2552  0.5835  0.4617
  190POPC   C2321895   3.267   2.268  10.339  0.4310  0.6278 -0.3307
  190POPC   H3R21896   3.294   2.355  10.276  0.1233  1.5079  0.7088
  190POPC   H3S21897   3.182   2.309  10.398 -0.2649  1.6766 -1.9873
  190POPC   C2421898   3.219   2.157  10.256  0.3073  0.1713  0.6182
  190POPC   H4R21899   3.148   2.093  10.314  1.1698 -1.8742 -0.4946
  190POPC   H4S21900   3.304   2.097  10.217 -0.6660  0.4000 -2.0436
  190POPC   C2521901   3.136   2.208  10.130  0.3036  0.4157  0.0949
  190POPC   H5R21902   3.068   2.289  10.162  0.8975  0.9815 -0.0404
  190POPC   H5S21903   3.072   2.120  10.108  0.8115 -0.5962  2.3820
  190POPC   C2621904   3.217   2.256  10.015 -0.8239 -0.1290 -0.4546
  190POPC   H6R21905   3.288   2.175   9.985  1.2080  1.0703  0.8715
  190POPC   H6S21906   3.258   2.351  10.054 -3.0852 -0.0083  1.8363
  190POPC   C2721907   3.125   2.278   9.899 -0.3797 -0.4114  0.3844
  190POPC   H7R21908   3.036   2.336   9.931  0.8147  1.1168  1.0134
  190POPC   H7S21909   3.097   2.174   9.870  2.7698 -1.2007 -0.1711
  190POPC   C2821910   3.218   2.334   9.788  0.0476 -0.0435 -0.2221
  190POPC   H8R21911   3.286   2.253   9.755 -2.4235 -2.7401  0.8469
  190POPC   H8S21912   3.265   2.421   9.838 -1.8722  0.4441  0.8391
  190POPC   C2921913   3.144   2.387   9.663 -1.0731  0.1811 -0.2853
  190POPC   H9121914   3.045   2.429   9.684 -0.7167  0.9140 -0.0583
  190POPC  C21021915   3.202   2.399   9.539 -0.1256  0.8212 -0.1595
  190POPC  H10121916   3.151   2.442   9.451 -1.0205 -1.4989 -0.8457
  190POPC  C21121917   3.344   2.357   9.507 -0.1944  0.5807 -0.0358
  190POPC  H11R21918   3.395   2.295   9.584 -0.4683  0.4605  0.0520
  190POPC  H11S21919   3.407   2.447   9.491  0.3051  0.2303 -0.0755
  190POPC  C21221920   3.348   2.275   9.376 -0.2617  0.2029 -0.1878
  190POPC  H12R21921   3.280   2.188   9.381  0.3677 -0.2696  0.3224
  190POPC  H12S21922   3.451   2.238   9.357 -0.3468  0.2894 -0.8232
  190POPC  C21321923   3.323   2.361   9.254  0.0598  0.8893  0.4045
  190POPC  H13R21924   3.389   2.451   9.255 -0.1706  1.1025 -1.0714
  190POPC  H13S21925   3.223   2.409   9.249 -0.5911 -0.2532  1.8035
  190POPC  C21421926   3.330   2.280   9.121  0.0929 -0.3551 -0.6577
  190POPC  H14R21927   3.259   2.195   9.118 -1.9857  1.2037  1.0175
  190POPC  H14S21928   3.434   2.242   9.115  0.7783  1.0054  1.5738
  190POPC  C21521929   3.280   2.362   8.997 -0.5544  0.2693  0.0060
  190POPC  H15R21930   3.331   2.461   8.993 -1.0127  0.4973 -0.3976
  190POPC  H15S21931   3.171   2.383   9.004 -0.4573  1.4978 -1.6611
  190POPC  C21621932   3.317   2.286   8.865  0.3299  1.0929 -0.1000
  190POPC  H16R21933   3.256   2.194   8.854  0.0876  1.4353 -2.0247
  190POPC  H16S21934   3.425   2.257   8.870  0.2733  1.0857  2.6967
  190POPC  C21721935   3.297   2.360   8.728  0.2044 -0.1714  0.7810
  190POPC  H17R21936   3.394   2.359   8.673 -1.1673  0.5932 -1.7618
  190POPC  H17S21937   3.280   2.466   8.756 -0.6482 -0.2508  0.5796
  190POPC  C21821938   3.174   2.322   8.649 -0.0930 -0.7840 -0.4296
  190POPC  H18R21939   3.195   2.230   8.591 -0.6898 -0.1047 -1.7766
  190POPC  H18S21940   3.172   2.402   8.571  1.2110 -0.3149 -0.0120
  190POPC  H18T21941   3.078   2.314   8.704 -0.5932 -1.8932 -1.4180
  190POPC   C3321942   3.839   2.178  10.212 -0.2815 -0.1298  0.4439
  190POPC   H3X21943   3.728   2.170  10.204 -0.5160  1.9980  0.9682
  190POPC   H3Y21944   3.876   2.077  10.241 -2.3333 -0.4298  2.3001
  190POPC   C3421945   3.910   2.210  10.076 -0.5191  0.5530  0.0262
  190POPC   H4X21946   4.019   2.229  10.086 -0.7692  2.2101 -0.1785
  190POPC   H4Y21947   3.857   2.294  10.026 -0.1747  1.0713  0.5169
  190POPC   C3521948   3.896   2.087   9.982 -0.0232 -0.4767  0.7252
  190POPC   H5X21949   3.790   2.099   9.950  0.3570  0.4377 -0.2559
  190POPC   H5Y21950   3.893   1.997  10.047  1.1770 -0.5069  0.7731
  190POPC   C3621951   4.001   2.082   9.877  0.7651 -0.4866  0.0722
  190POPC   H6X21952   4.104   2.068   9.917  0.9541  1.1209  0.2285
  190POPC   H6Y21953   4.002   2.176   9.817 -1.3732 -0.3592  0.1829
  190POPC   C3721954   3.970   1.956   9.790  0.2767 -0.0344  0.6030
  190POPC   H7X21955   3.861   1.941   9.775  0.7105 -1.1705 -1.8548
  190POPC   H7Y21956   4.016   1.863   9.829  1.3683  0.5707  0.7963
  190POPC   C3821957   4.035   1.965   9.654  1.2103 -0.4080 -0.7563
  190POPC   H8X21958   4.131   2.018   9.672  0.7662  0.2173 -0.1578
  190POPC   H8Y21959   3.982   2.047   9.600  3.1025  1.2385 -0.2271
  190POPC   C3921960   4.064   1.841   9.581 -0.0065 -0.4204 -0.2483
  190POPC   H9X21961   3.964   1.796   9.560 -0.8240  1.2827 -0.1831
  190POPC   H9Y21962   4.106   1.766   9.652 -0.5363 -1.7543 -1.2936
  190POPC  C31021963   4.162   1.857   9.457  0.2609  0.8658 -0.4532
  190POPC  H10X21964   4.191   1.759   9.412 -1.8184  0.0756 -0.1454
  190POPC  H10Y21965   4.250   1.908   9.501 -0.2591  1.7090 -0.3756
  190POPC  C31121966   4.096   1.927   9.339 -0.2444 -0.6439  0.5407
  190POPC  H11X21967   4.066   2.025   9.383 -1.3519 -1.7126  2.2879
  190POPC  H11Y21968   4.001   1.885   9.300 -3.4822  2.3706  4.3516
  190POPC  C31221969   4.194   1.965   9.235 -0.1823  0.2745  0.2754
  190POPC  H12X21970   4.251   1.877   9.199 -0.4123  0.5175 -0.7119
  190POPC  H12Y21971   4.263   2.040   9.280  1.5607 -0.9287 -0.2683
  190POPC  C31321972   4.135   2.028   9.101 -0.5942 -0.3365  0.7646
  190POPC  H13X21973   4.108   2.135   9.117 -0.2413 -0.1427  0.1278
  190POPC  H13Y21974   4.042   1.970   9.086 -0.9543 -0.2726  2.5283
  190POPC  C31421975   4.232   2.019   8.984  0.3786 -0.0496  0.7336
  190POPC  H14X21976   4.274   1.917   8.975  0.5193  0.1562 -1.3415
  190POPC  H14Y21977   4.310   2.094   9.008 -0.6348  0.7795  1.5358
  190POPC  C31521978   4.162   2.046   8.854 -0.3959 -1.0385 -0.7199
  190POPC  H15X21979   4.105   2.142   8.861  1.6710  0.3128 -1.5864
  190POPC  H15Y21980   4.100   1.960   8.823  0.1041 -0.3437 -4.0424
  190POPC  C31621981   4.267   2.062   8.748 -0.4743 -0.1553 -0.3806
  190POPC  H16X21982   4.338   1.977   8.737  0.5523  0.8604 -2.1366
  190POPC  H16Y21983   4.325   2.147   8.790 -0.1611 -0.9537  0.8619
  190POPC  H16Z21984   4.221   2.086   8.650  2.1904 -3.4089 -2.6686
  191POPC     N21985   2.718   6.579   6.358 -0.2286 -0.0467 -0.6215
  191POPC   C1221986   2.804   6.641   6.248 -0.8399  0.4664 -0.1734
  191POPC  H12A21987   2.751   6.712   6.186  2.7755  3.6225  0.0056
  191POPC  H12B21988   2.840   6.562   6.184 -1.3898  0.0264  0.0548
  191POPC   C1321989   2.785   6.452   6.412 -0.3191  0.0604  1.3530
  191POPC  H13A21990   2.713   6.375   6.436  0.8267 -1.0433  1.3370
  191POPC  H13B21991   2.848   6.410   6.335 -3.0097  2.5156 -2.5234
  191POPC  H13C21992   2.847   6.467   6.499  1.1796 -3.4362  1.0530
  191POPC   C1421993   2.698   6.670   6.476  0.4442 -0.8885 -0.6104
  191POPC  H14A21994   2.794   6.699   6.517  1.3615 -0.3647 -2.9853
  191POPC  H14B21995   2.630   6.746   6.441  1.5226  0.2071 -0.3756
  191POPC  H14C21996   2.637   6.622   6.551  0.1443 -1.9452 -1.5129
  191POPC   C1521997   2.597   6.527   6.298  0.2058 -0.2600 -0.3473
  191POPC  H15A21998   2.534   6.474   6.367  1.4859 -0.3231  0.8208
  191POPC  H15B21999   2.625   6.460   6.218  0.0079  1.3930 -1.8727
  191POPC  H15C22000   2.535   6.602   6.251 -0.2696 -1.7360 -2.2088
  191POPC   C1122001   2.932   6.705   6.293 -0.0579 -0.5083  0.1072
  191POPC  H11A22002   2.901   6.785   6.363  0.8762 -1.6594  1.8891
  191POPC  H11B22003   2.990   6.753   6.210 -2.0040  1.2049 -0.3544
  191POPC     P22004   3.078   6.642   6.503 -0.0090  0.0194 -0.1076
  191POPC   O1322005   3.163   6.758   6.496  0.2906 -0.6821 -0.3068
  191POPC   O1422006   3.143   6.516   6.556  0.3442  0.4279 -0.2245
  191POPC   O1222007   3.020   6.611   6.355 -0.1204  0.1801 -0.3133
  191POPC   O1122008   2.957   6.677   6.593  0.0536 -0.6228  0.3290
  191POPC    C122009   2.973   6.708   6.729  0.3308 -0.0412 -0.0266
  191POPC    HA22010   3.065   6.664   6.772  1.6369 -0.4266 -2.9216
  191POPC    HB22011   2.890   6.654   6.779  0.3005  0.0518  0.0241
  191POPC    C222012   2.978   6.865   6.753  0.5185  0.5131 -0.5731
  191POPC    HS22013   3.077   6.892   6.710  0.2799  0.3107 -1.2625
  191POPC   O2122014   2.968   6.894   6.893  0.7305 -0.7066 -0.2514
  191POPC   C2122015   2.978   7.022   6.926  0.2543 -0.2236 -0.3874
  191POPC   O2222016   3.026   7.111   6.856  0.5561 -0.4195 -0.0360
  191POPC   C2222017   2.917   7.046   7.070 -0.6894 -0.0940 -0.0011
  191POPC   H2R22018   2.899   6.947   7.115 -0.7785 -0.1468 -0.1524
  191POPC   H2S22019   2.827   7.109   7.051  1.5659  2.7735 -2.2049
  191POPC    C322020   2.870   6.931   6.666 -0.3482 -0.1673  0.7982
  191POPC    HX22021   2.873   6.912   6.557 -0.5354 -1.6332  1.0299
  191POPC    HY22022   2.890   7.040   6.654 -2.3342  0.1170 -0.5305
  191POPC   O3122023   2.733   6.902   6.702  0.1725  0.4093 -0.1083
  191POPC   C3122024   2.663   6.997   6.763 -0.1072  0.4162 -0.1037
  191POPC   O3222025   2.702   7.112   6.769  0.7877  0.1099 -0.0804
  191POPC   C3222026   2.536   6.938   6.828 -0.2895  0.8488 -0.8741
  191POPC   H2X22027   2.496   6.858   6.762  1.3278 -0.8552  0.1119
  191POPC   H2Y22028   2.467   7.025   6.833 -0.3274  0.8823 -1.8220
  191POPC   C2322029   3.000   7.142   7.159  0.5215  0.6577  0.0099
  191POPC   H3R22030   3.022   7.237   7.106  1.7645 -0.5659 -1.7732
  191POPC   H3S22031   3.100   7.095   7.168  0.7979  0.7020 -2.2769
  191POPC   C2422032   2.926   7.147   7.292  0.9556 -0.5667  0.3366
  191POPC   H4R22033   2.925   7.049   7.344  0.0357 -1.0330 -0.5192
  191POPC   H4S22034   2.826   7.193   7.271  2.0148  2.9727  2.2380
  191POPC   C2522035   2.978   7.258   7.382 -0.7077 -0.2847  0.3392
  191POPC   H5R22036   2.974   7.360   7.338  0.9715 -0.7437 -1.0130
  191POPC   H5S22037   3.086   7.232   7.380 -1.2404 -2.6812 -0.3423
  191POPC   C2622038   2.926   7.244   7.527  0.6613  0.5895  0.3734
  191POPC   H6R22039   3.003   7.261   7.605  1.0369 -0.7535  0.3232
  191POPC   H6S22040   2.904   7.136   7.538  3.2417  0.0694  1.2468
  191POPC   C2722041   2.801   7.325   7.568  0.0462  0.2526 -0.2118
  191POPC   H7R22042   2.710   7.283   7.521 -0.0854 -0.2821  0.5093
  191POPC   H7S22043   2.825   7.432   7.546  1.1756  0.9513  3.6483
  191POPC   C2822044   2.776   7.318   7.720  0.4417  0.0204 -0.7187
  191POPC   H8R22045   2.863   7.337   7.787 -1.0293 -0.1059  1.3331
  191POPC   H8S22046   2.750   7.213   7.746  0.0126  0.6641  1.7724
  191POPC   C2922047   2.670   7.407   7.783 -0.4900 -0.1654  0.9961
  191POPC   H9122048   2.691   7.514   7.763 -3.0250  0.3080  0.4558
  191POPC  C21022049   2.577   7.366   7.875 -0.1857 -0.1950  0.3033
  191POPC  H10122050   2.516   7.441   7.926 -0.9096  0.4131 -1.3650
  191POPC  C21122051   2.554   7.227   7.931 -0.0036  0.3575  0.4460
  191POPC  H11R22052   2.606   7.149   7.871  0.2529  1.4452 -0.7851
  191POPC  H11S22053   2.445   7.206   7.926 -0.0456  0.7197 -0.2703
  191POPC  C21222054   2.578   7.209   8.077  0.2290  0.0678  1.0352
  191POPC  H12R22055   2.533   7.292   8.136 -1.2352  0.2582 -0.2947
  191POPC  H12S22056   2.688   7.222   8.088  0.2881 -0.2605  0.8589
  191POPC  C21322057   2.539   7.071   8.123  0.0359  0.2685 -0.3781
  191POPC  H13R22058   2.583   6.985   8.068  0.6953 -1.6267  2.8499
  191POPC  H13S22059   2.428   7.061   8.120  0.1332 -0.6462 -2.3145
  191POPC  C21422060   2.591   7.035   8.264 -0.9358  0.2325 -0.2646
  191POPC  H14R22061   2.701   7.044   8.257 -1.0165  0.1716 -2.2531
  191POPC  H14S22062   2.561   6.929   8.283 -0.9576  0.5896  2.0386
  191POPC  C21522063   2.545   7.138   8.373 -0.2189  0.0585  0.2947
  191POPC  H15R22064   2.434   7.139   8.370 -0.2051  1.0820 -0.2532
  191POPC  H15S22065   2.592   7.235   8.347 -0.4673 -0.0895 -0.7723
  191POPC  C21622066   2.587   7.105   8.515 -0.5793  0.0301 -0.2207
  191POPC  H16R22067   2.691   7.068   8.514  0.1012  1.8661 -0.8430
  191POPC  H16S22068   2.527   7.023   8.559 -1.1420  1.3688  1.6305
  191POPC  C21722069   2.565   7.221   8.617  0.4814 -0.2668 -0.3952
  191POPC  H17R22070   2.584   7.322   8.576  0.7824  0.1240  0.6622
  191POPC  H17S22071   2.637   7.190   8.697 -0.1798  0.1457  0.3773
  191POPC  C21822072   2.421   7.218   8.666 -0.4998  0.5260 -0.3116
  191POPC  H18R22073   2.350   7.215   8.580  0.0155 -1.3164 -0.7242
  191POPC  H18S22074   2.396   7.305   8.730 -1.7429 -1.3515  1.9148
  191POPC  H18T22075   2.398   7.132   8.732 -2.1834  2.2689  1.4908
  191POPC   C3322076   2.570   6.894   6.974 -0.1955  0.3493  0.3356
  191POPC   H3X22077   2.664   6.835   6.968 -1.3217 -1.4410 -1.2337
  191POPC   H3Y22078   2.497   6.814   7.001  0.8429 -0.2679  1.3981
  191POPC   C3422079   2.549   7.002   7.082  0.1573 -0.2185 -0.4184
  191POPC   H4X22080   2.458   7.061   7.056 -0.0721 -1.6097 -3.2109
  191POPC   H4Y22081   2.632   7.075   7.082 -1.0417  1.1853 -1.0080
  191POPC   C3522082   2.551   6.944   7.219 -0.6807  0.5543  0.0059
  191POPC   H5X22083   2.647   6.893   7.242 -1.0974  0.2212  1.0746
  191POPC   H5Y22084   2.478   6.861   7.229  1.6947 -1.7734 -0.6407
  191POPC   C3622085   2.545   7.055   7.326  0.4870  0.3288  0.0820
  191POPC   H6X22086   2.461   7.127   7.314  0.8395  0.6892 -0.2553
  191POPC   H6Y22087   2.640   7.113   7.332  0.1640  0.7945  0.7776
  191POPC   C3722088   2.526   6.988   7.465  0.7450  0.1961  1.2605
  191POPC   H7X22089   2.427   6.938   7.458  0.6712  0.6100 -1.7345
  191POPC   H7Y22090   2.515   7.075   7.533  0.2223  1.0907  0.0736
  191POPC   C3822091   2.652   6.900   7.509  0.6666 -0.1686  0.6218
  191POPC   H8X22092   2.745   6.954   7.483  1.3861  0.2567  3.7559
  191POPC   H8Y22093   2.656   6.803   7.455  2.3133  1.0254 -1.5616
  191POPC   C3922094   2.644   6.890   7.664 -1.0050  0.8761  0.1486
  191POPC   H9X22095   2.562   6.833   7.712 -1.0310  1.0217  0.2790
  191POPC   H9Y22096   2.641   6.996   7.698  2.1058  1.0553  0.1811
  191POPC  C31022097   2.777   6.843   7.726 -0.0141 -0.7462 -0.5005
  191POPC  H10X22098   2.860   6.904   7.684 -0.9979  0.4513 -0.7489
  191POPC  H10Y22099   2.799   6.746   7.677  0.9471 -0.0100 -1.5793
  191POPC  C31122100   2.786   6.858   7.879  0.4336 -0.1279 -0.3467
  191POPC  H11X22101   2.699   6.801   7.917  0.8874 -0.4897  0.1666
  191POPC  H11Y22102   2.779   6.965   7.911 -2.0690 -0.0010 -1.0980
  191POPC  C31222103   2.902   6.787   7.953 -0.2834  0.2937  0.8527
  191POPC  H12X22104   2.997   6.831   7.914 -1.1483  1.2545 -0.2315
  191POPC  H12Y22105   2.893   6.680   7.927  0.4271  0.8169 -1.9130
  191POPC  C31322106   2.895   6.813   8.106  0.3356  0.2190 -0.2413
  191POPC  H13X22107   2.806   6.761   8.147  2.2833 -1.9199  1.5939
  191POPC  H13Y22108   2.890   6.923   8.119 -0.8490  0.2728 -1.0516
  191POPC  C31422109   3.015   6.761   8.186  0.3235 -0.1278  0.2963
  191POPC  H14X22110   3.110   6.816   8.169  0.1554 -0.3338 -1.4058
  191POPC  H14Y22111   3.058   6.665   8.149  0.8696  0.5141 -0.7813
  191POPC  C31522112   2.986   6.737   8.336  0.1069 -0.7621  0.2729
  191POPC  H15X22113   2.904   6.663   8.329 -2.9334  2.5055 -3.3504
  191POPC  H15Y22114   2.957   6.830   8.390  0.0121 -0.6261 -0.0103
  191POPC  C31622115   3.111   6.674   8.400  0.2064 -0.3160 -0.1974
  191POPC  H16X22116   3.129   6.584   8.336 -2.5007 -0.0522 -1.4521
  191POPC  H16Y22117   3.085   6.643   8.503 -0.1783  1.5303  0.2944
  191POPC  H16Z22118   3.202   6.738   8.394 -0.5805  0.6818 -2.7688
  192POPC     N22119   2.298   3.848   6.038 -0.5474  0.1687 -0.3766
  192POPC   C1222120   2.279   3.902   6.177 -0.1616  0.0717  0.2025
  192POPC  H12A22121   2.369   3.947   6.216 -0.1005  0.4619 -0.3717
  192POPC  H12B22122   2.248   3.820   6.240  0.1220 -0.0076  0.2413
  192POPC   C1322123   2.175   3.776   6.000 -0.4164  0.6189 -0.0419
  192POPC  H13A22124   2.180   3.703   5.921 -1.5437 -0.9503  1.2640
  192POPC  H13B22125   2.126   3.722   6.080  1.1389 -0.6780  0.0799
  192POPC  H13C22126   2.094   3.846   5.982 -1.9091 -1.5033 -2.2115
  192POPC   C1422127   2.329   3.952   5.938 -0.1605 -0.1859 -0.0259
  192POPC  H14A22128   2.428   3.993   5.955  0.3371 -1.4824  0.3319
  192POPC  H14B22129   2.338   3.910   5.839 -2.2587  1.2126 -0.8739
  192POPC  H14C22130   2.252   4.027   5.943 -1.0662 -0.9850 -1.4989
  192POPC   C1522131   2.410   3.749   6.041  0.3531  0.2908  0.3496
  192POPC  H15A22132   2.401   3.664   6.108  2.3149  0.2357  0.5928
  192POPC  H15B22133   2.509   3.786   6.064  1.4729 -1.5728 -1.2160
  192POPC  H15C22134   2.429   3.722   5.938 -1.0315  1.7254 -0.3283
  192POPC   C1122135   2.178   4.013   6.198 -1.1446 -0.5783 -0.0791
  192POPC  H11A22136   2.180   4.040   6.305  2.9736  1.5787 -0.5053
  192POPC  H11B22137   2.078   3.978   6.165 -1.0083 -0.3198 -0.7807
  192POPC     P22138   2.316   4.230   6.162 -0.0198  0.2062  0.2436
  192POPC   O1322139   2.252   4.324   6.257  0.2100  0.0196  0.3385
  192POPC   O1422140   2.382   4.287   6.045 -0.4500 -0.8389  0.6150
  192POPC   O1222141   2.208   4.127   6.120 -0.1851  0.6423 -0.1374
  192POPC   O1122142   2.426   4.150   6.239  0.1968 -0.4175 -0.5614
  192POPC    C122143   2.462   4.180   6.373  0.2975  0.7878 -0.3546
  192POPC    HA22144   2.379   4.171   6.447  0.4985 -0.7347 -0.2877
  192POPC    HB22145   2.490   4.287   6.383  1.7846  0.3296  0.8949
  192POPC    C222146   2.584   4.097   6.426 -0.4124  0.5146  0.0319
  192POPC    HS22147   2.679   4.140   6.388  0.2563 -0.8878  0.0678
  192POPC   O2122148   2.562   3.956   6.400 -0.2997  0.2547  0.0922
  192POPC   C2122149   2.668   3.879   6.417  0.4018  0.2617  0.4419
  192POPC   O2222150   2.778   3.911   6.446  0.0378  0.0493 -0.4047
  192POPC   C2222151   2.620   3.738   6.411  0.0789  0.6242  0.1164
  192POPC   H2R22152   2.706   3.668   6.400 -0.1163  0.6323 -1.8295
  192POPC   H2S22153   2.551   3.720   6.326 -0.1644  0.4676  0.3438
  192POPC    C322154   2.606   4.124   6.582 -0.1359 -0.4073  0.2695
  192POPC    HX22155   2.713   4.105   6.604 -0.5747 -1.6050  1.5168
  192POPC    HY22156   2.541   4.048   6.630 -0.8955 -0.0698 -0.2135
  192POPC   O3122157   2.568   4.252   6.627  0.6996  0.2047  0.1692
  192POPC   C3122158   2.610   4.274   6.746 -0.3031 -0.4555 -1.1123
  192POPC   O3222159   2.657   4.198   6.833 -0.7638  0.1217  0.1154
  192POPC   C3222160   2.595   4.421   6.777 -0.6039  0.5712  0.2757
  192POPC   H2X22161   2.639   4.471   6.688 -1.4171  2.3432  0.8211
  192POPC   H2Y22162   2.659   4.439   6.865  0.5888  0.1444 -0.4794
  192POPC   C2322163   2.545   3.700   6.547 -0.6894  0.0866  0.2897
  192POPC   H3R22164   2.519   3.593   6.532  0.9118 -0.3217  0.2353
  192POPC   H3S22165   2.450   3.756   6.564  0.9540  3.0780  0.2271
  192POPC   C2422166   2.630   3.725   6.675 -0.5452  0.7682 -0.2902
  192POPC   H4R22167   2.640   3.835   6.689 -1.5363  0.6047  2.1908
  192POPC   H4S22168   2.728   3.676   6.663 -0.6678  0.6681 -0.9227
  192POPC   C2522169   2.569   3.663   6.805  0.3196  0.0566 -0.0207
  192POPC   H5R22170   2.551   3.554   6.793 -0.6332 -0.2522  3.2401
  192POPC   H5S22171   2.468   3.708   6.815  0.0722 -0.5310  0.1665
  192POPC   C2622172   2.662   3.670   6.931  0.1370 -0.3149 -0.0071
  192POPC   H6R22173   2.686   3.774   6.964 -2.4713  0.6345 -0.8139
  192POPC   H6S22174   2.756   3.618   6.903  0.1367  0.7821 -2.3948
  192POPC   C2722175   2.592   3.599   7.056 -0.3456 -0.1947  0.3651
  192POPC   H7R22176   2.533   3.517   7.011 -1.1167  0.9630 -0.8192
  192POPC   H7S22177   2.520   3.671   7.101 -0.1274 -0.1362  0.6191
  192POPC   C2822178   2.685   3.543   7.162 -1.3078  0.8395 -0.0262
  192POPC   H8R22179   2.749   3.623   7.205  0.3935  0.1846 -1.2290
  192POPC   H8S22180   2.756   3.471   7.115  0.6506  2.0370  0.9877
  192POPC   C2922181   2.599   3.472   7.270 -0.0908 -0.2133 -0.6663
  192POPC   H9122182   2.548   3.381   7.235  1.1383 -0.9758 -0.5571
  192POPC  C21022183   2.592   3.521   7.403  0.3151  0.6444  0.9312
  192POPC  H10122184   2.538   3.468   7.483 -0.0712  0.3062  0.4472
  192POPC  C21122185   2.658   3.644   7.444 -0.3318 -0.3301 -0.5901
  192POPC  H11R22186   2.658   3.725   7.368  0.6499 -1.4265 -1.7861
  192POPC  H11S22187   2.759   3.607   7.472 -1.7412 -2.4237  2.3358
  192POPC  C21222188   2.606   3.702   7.583  0.5128 -0.5852 -0.0537
  192POPC  H12R22189   2.496   3.714   7.580  0.0822 -3.0225  2.1127
  192POPC  H12S22190   2.644   3.802   7.610  0.6423 -0.8300  0.6921
  192POPC  C21322191   2.630   3.610   7.702  0.7852  0.1544 -0.4168
  192POPC  H13R22192   2.729   3.561   7.689  0.4731 -0.9492  1.1151
  192POPC  H13S22193   2.563   3.522   7.701  1.1327 -0.1322 -2.1947
  192POPC  C21422194   2.635   3.695   7.835  0.2381  0.0241  0.1097
  192POPC  H14R22195   2.529   3.728   7.845  0.4023  0.6382 -0.1452
  192POPC  H14S22196   2.703   3.779   7.812  0.6561  0.0684  1.4183
  192POPC  C21522197   2.672   3.626   7.965 -0.3675  0.2061  0.2981
  192POPC  H15R22198   2.777   3.599   7.942 -0.6813 -0.4228 -0.4513
  192POPC  H15S22199   2.624   3.527   7.979  0.5563 -0.2955 -0.0486
  192POPC  C21622200   2.671   3.714   8.089 -0.6297  0.3742 -0.0293
  192POPC  H16R22201   2.572   3.743   8.129  0.7739  1.8855  2.6182
  192POPC  H16S22202   2.719   3.813   8.076  1.2118 -0.5493 -0.6282
  192POPC  C21722203   2.736   3.647   8.210  0.6466  0.2870 -0.0989
  192POPC  H17R22204   2.838   3.613   8.184  0.5798  1.5563 -2.3046
  192POPC  H17S22205   2.682   3.553   8.237  0.1344  0.9813  1.3685
  192POPC  C21822206   2.739   3.737   8.338 -0.5527  0.1300 -0.4656
  192POPC  H18R22207   2.808   3.821   8.315  1.1813 -1.2972 -0.7542
  192POPC  H18S22208   2.758   3.676   8.429 -1.3324  0.7297  0.1081
  192POPC  H18T22209   2.640   3.786   8.346 -0.2137  1.0060 -1.3945
  192POPC   C3322210   2.456   4.480   6.806  0.3258 -0.2718  0.1235
  192POPC   H3X22211   2.386   4.450   6.726 -0.8229  0.8004  0.6898
  192POPC   H3Y22212   2.460   4.591   6.801  0.9147 -0.2288  1.0742
  192POPC   C3422213   2.395   4.449   6.941  0.7668 -0.3202  0.0543
  192POPC   H4X22214   2.463   4.486   7.020 -0.1781  1.2753  0.1565
  192POPC   H4Y22215   2.389   4.339   6.959  0.1336 -0.1331  1.1015
  192POPC   C3522216   2.248   4.500   6.962  0.6190 -0.2318  0.1272
  192POPC   H5X22217   2.175   4.415   6.964 -0.1611  0.4347  1.6232
  192POPC   H5Y22218   2.205   4.552   6.874 -0.7568 -1.2325  0.1676
  192POPC   C3622219   2.214   4.574   7.090  0.8493 -0.5692 -0.2498
  192POPC   H6X22220   2.105   4.593   7.088  1.2959  2.3433 -1.7614
  192POPC   H6Y22221   2.262   4.674   7.089 -1.4583  0.6688  1.8360
  192POPC   C3722222   2.243   4.494   7.214  0.0919 -0.2413  0.1932
  192POPC   H7X22223   2.349   4.462   7.219 -0.0740 -0.7419  0.5993
  192POPC   H7Y22224   2.184   4.400   7.209  1.1100 -0.9407  0.9327
  192POPC   C3822225   2.215   4.554   7.350  0.8799 -0.0656 -0.1670
  192POPC   H8X22226   2.105   4.554   7.363  0.4619 -3.2754 -2.4357
  192POPC   H8Y22227   2.258   4.655   7.368 -0.5293  0.3099  1.3353
  192POPC   C3922228   2.256   4.470   7.467  0.5508 -0.1053  0.3481
  192POPC   H9X22229   2.365   4.451   7.482  0.6266  0.5417  0.6392
  192POPC   H9Y22230   2.214   4.370   7.445 -1.1267  0.8853 -1.2236
  192POPC  C31022231   2.196   4.538   7.586  1.3912  0.7785  0.2272
  192POPC  H10X22232   2.085   4.535   7.581  1.2961 -0.4524  2.2214
  192POPC  H10Y22233   2.220   4.647   7.578  0.3732  0.8940 -1.7514
  192POPC  C31122234   2.236   4.462   7.714 -0.2436 -0.5530 -0.4650
  192POPC  H11X22235   2.347   4.452   7.719 -0.2564 -2.3593 -2.3405
  192POPC  H11Y22236   2.196   4.358   7.714  0.3735 -0.7944 -0.8085
  192POPC  C31222237   2.188   4.538   7.840  0.7850  0.4972  0.3358
  192POPC  H12X22238   2.082   4.563   7.822  0.7933 -0.5226 -1.2987
  192POPC  H12Y22239   2.243   4.634   7.842 -0.6000  1.3051  0.3231
  192POPC  C31322240   2.207   4.460   7.970  0.4644 -0.1742  0.7218
  192POPC  H13X22241   2.312   4.426   7.975  0.2189 -0.8529  1.6406
  192POPC  H13Y22242   2.147   4.366   7.971 -0.1404  0.1970  1.8018
  192POPC  C31422243   2.194   4.540   8.100  0.0253 -0.4686 -0.5885
  192POPC  H14X22244   2.130   4.629   8.085 -0.9158 -1.2146 -1.0653
  192POPC  H14Y22245   2.288   4.596   8.118 -1.6792  2.6026 -0.5253
  192POPC  C31522246   2.150   4.459   8.227 -0.0435  0.4863 -0.1882
  192POPC  H15X22247   2.243   4.427   8.278 -1.6911 -3.3755  0.7415
  192POPC  H15Y22248   2.103   4.363   8.198  0.6774 -0.5231  1.8025
  192POPC  C31622249   2.062   4.539   8.328  0.3048  0.2715  1.1639
  192POPC  H16X22250   2.002   4.467   8.388  3.8402  0.1050  4.9251
  192POPC  H16Y22251   1.980   4.580   8.265 -1.2717 -0.8065  2.4258
  192POPC  H16Z22252   2.123   4.604   8.394  1.5177  0.7839 -0.3902
  193SOD    SOD22253   3.221   3.955   0.441  0.3424  0.2918 -0.2273
  194SOD    SOD22254   0.700   1.700  11.042  0.2771 -0.2611  0.0589
  195SOD    SOD22255   5.658   0.664   0.010  0.1575 -0.4071 -0.4594
  196SOD    SOD22256   0.781   5.564   2.877 -0.5697  0.2962  0.0474
  197SOD    SOD22257   6.087   3.695   2.414  0.0628 -0.2511 -0.3014
  198SOD    SOD22258   2.137   0.243  16.850 -0.0223  0.0582  0.2368
  199SOD    SOD22259   0.793   4.616   2.293  0.1561  0.2575  0.4812
  200SOD    SOD22260   0.133   3.418   5.157 -0.1845 -0.1525 -0.1668
  201SOD    SOD22261   2.672   1.182   4.462 -0.0481  0.4365  0.0021
  202SOD    SOD22262   1.824   5.003   2.184 -0.5745  0.2657  0.6174
  203SOD    SOD22263   1.797   3.626  11.961  0.1036 -0.2219  0.4762
  204SOD    SOD22264   0.149   1.423  11.029 -0.0655  0.4154 -0.5744
  205SOD    SOD22265   3.336   6.623  13.309  0.1745  0.2020  0.0368
  206SOD    SOD22266   5.196   3.035  14.655  0.0035 -0.3494 -0.3122
  207SOD    SOD22267   6.586   0.394  13.841 -0.4052 -0.2080 -0.2366
  208SOD    SOD22268   4.643   1.179   4.278  0.5806  0.6921 -0.1676
  209SOD    SOD22269   3.627   0.783   0.138  0.3557 -0.1674  0.6472
  210SOD    SOD22270   3.866   2.755   5.347  0.5265  0.2044 -0.1388
  211SOD    SOD22271   2.538   1.650  10.810  0.0188  0.3850  0.4687
  212SOD    SOD22272   5.270   6.419   5.925  0.3563 -0.5425 -0.2246
  213SOD    SOD22273   4.924   4.507   4.723  0.3948  0.7148  0.2088
  214SOD    SOD22274   1.036   3.666   0.213  0.0703  0.1793 -1.0457
  215SOD    SOD22275   4.954   6.699  11.410 -0.5172  0.0773 -0.3206
  216SOD    SOD22276   0.020   6.124  10.785 -0.2369 -0.0869 -0.4022
  217SOD    SOD22277   3.546   4.301  15.287  0.0437  0.1202  0.0135
  218SOD    SOD22278   1.660   5.541  16.901  0.1199  0.1465  0.1382
  219SOD    SOD22279   3.497   4.073  12.662  0.1862  0.3758  0.3810
  220SOD    SOD22280   2.346   1.934  11.219 -0.6069 -0.4546 -0.3998
  221SOD    SOD22281   4.110   3.163   2.515  0.0609  0.0543  0.0353
  222SOD    SOD22282   3.342   5.922   6.526  0.4863  0.6818  0.2451
  223SOD    SOD22283   0.811   3.324   6.477  0.6192  0.1201 -0.2867
  224SOD    SOD22284   1.173   5.238   5.897  0.0095  0.6464 -0.2261
  225SOD    SOD22285   0.749   6.005  14.853 -0.2814 -0.1550  0.1555
  226SOD    SOD22286   2.627   1.586  15.020 -0.0311 -0.0591 -0.6462
  227SOD    SOD22287   4.879   5.200  12.292  0.3569  0.3976  0.0950
  228SOD    SOD22288   3.156   6.379   4.649  0.0998  0.0759 -0.4219
  229SOD    SOD22289   6.556   1.511  17.072  0.0313  0.0620  0.1413
  230SOD    SOD22290   6.690   4.502  16.637 -0.0393 -0.6720  0.2735
  231SOD    SOD22291   0.749   6.440   5.081  0.0927 -0.1674  0.0045
  232SOD    SOD22292   1.984   4.675   3.565  0.1388  0.0243 -0.0447
  233SOD    SOD22293   3.879   1.591  16.004  0.4438 -0.0419  0.0777
  234SOD    SOD22294   4.292   0.252  11.077 -0.3002 -0.5084 -0.5605
  235SOD    SOD22295   0.914   4.920   3.787  0.0749 -0.0254  0.7470
  236SOD    SOD22296   6.114   2.189   5.022  0.4749 -0.2019 -0.6724
  237SOD    SOD22297   3.159   2.980  16.742 -0.2787 -0.0814  0.1229
  238SOD    SOD22298   3.957   3.494  15.092 -0.1071  0.0846  0.1174
  239SOD    SOD22299   4.059   0.995   2.758 -0.2027 -0.2256  0.3036
  240SOD    SOD22300   1.589   0.738   2.220 -0.6884 -0.3259  0.1359
  241SOD    SOD22301   5.696   4.078   3.134  0.2899 -0.2367  0.3945
  242SOD    SOD22302   3.571   4.136  14.727 -0.2920 -0.2914  0.0737
  243SOD    SOD22303   6.013   0.902  11.143  0.0253  0.4929 -0.1301
  244SOD    SOD22304   2.792   3.516  16.828  0.1099  0.1019 -0.1240
  245SOD    SOD22305   0.704   6.372  12.398 -0.4996  0.4602  0.3824
  246SOD    SOD22306   5.137   4.603  13.200  0.1401 -0.1541  0.1036
  247SOD    SOD22307   4.083   5.633   6.285  0.2005  0.0370 -0.1281
  248SOD    SOD22308   3.978   5.746   4.618  0.4418 -0.2251  0.1361
  249SOD    SOD22309   0.217   5.150   4.922 -0.1929  0.1649 -0.0252
  250SOD    SOD22310   1.255   1.291  11.067 -0.0557 -0.5953 -0.0118
  251SOD    SOD22311   0.424   5.610  11.950  0.5934  0.1826 -0.4374
  252SOD    SOD22312   0.824   2.419   5.030  0.0066  0.6898 -0.3847
  253SOD    SOD22313   1.916   6.089   4.693  0.0590 -0.0051 -0.0281
  254SOD    SOD22314   1.822   5.777  12.718  0.0666  0.4353  0.2092
  255SOD    SOD22315   3.701   5.195  12.551  0.2393  0.1424 -0.3996
  256SOD    SOD22316   1.658   3.916   4.770  0.3155  0.2040 -0.0030
  257SOD    SOD22317   5.234   4.548   2.828 -0.7576 -0.1914 -0.2135
  258SOD    SOD22318   0.748   0.643   6.183  0.5783 -0.3898 -0.4786
  259SOD    SOD22319   0.697   2.388  13.725  0.0687  0.1538 -0.1873
  260SOD    SOD22320   2.325   5.553  15.353 -0.0279 -0.3113  0.8277
  261SOD    SOD22321   6.222   1.208   5.964 -0.0496  0.1221 -0.0851
  262SOD    SOD22322   3.270   0.014   2.776 -0.3150  0.2186 -0.4400
  263SOD    SOD22323   3.812   4.815  11.396 -0.3421 -0.4660 -0.2734
  264SOD    SOD22324   3.013   2.793  11.713  0.1048 -0.2193  0.2103
  265SOD    SOD22325   5.341   4.965   3.151  0.3718  0.0865 -0.2997
  266SOD    SOD22326   6.463   5.989   6.266  0.3061 -0.0112  0.0175
  267SOD    SOD22327   3.922   4.336  16.859  0.3929 -0.0331  0.5820
  268SOD    SOD22328   1.144   3.192   3.228  0.5255  0.2044 -0.0694
  269SOD    SOD22329   4.894   0.426  15.304  0.4696 -0.2734  0.3976
  270CLA    CLA22330   5.320   4.519  13.703 -0.1503  0.2406  0.2830
  271CLA    CLA22331   4.995   0.787  15.827 -0.1384  0.0225 -0.4132
  272CLA    CLA22332   2.156   6.228   5.728  0.2426 -0.1379  0.3529
  273CLA    CLA22333   3.378   5.514   0.592 -0.0315  0.1145  0.0279
  274CLA    CLA22334   5.306   0.816   4.881  0.2494 -0.0856 -0.0917
  275CLA    CLA22335   4.666   3.150   3.865  0.2437  0.0070 -0.4694
  276CLA    CLA22336   5.147   1.159   4.470 -0.2040  0.0311  0.4293
  277CLA    CLA22337   1.998   2.776   4.985  0.2038  0.2160 -0.0006
  278CLA    CLA22338   4.215   1.248   2.074 -0.4335 -0.1039 -0.3348
  279CLA    CLA22339   6.276   4.076   5.032  0.1799  0.0158  0.0969
  280CLA    CLA22340   2.409   5.916  13.155 -0.1103  0.1546  0.6099
  281CLA    CLA22341   2.355   6.387  15.582 -0.0095  0.2420 -0.0142
  282CLA    CLA22342   4.261   3.343   1.832 -0.2357  0.1629  0.2828
  283CLA    CLA22343   3.204   6.670  16.800  0.1896 -0.6900 -0.2434
  284CLA    CLA22344   5.440   1.123  12.189 -0.3552  0.0004  0.2005
  285CLA    CLA22345   1.203   4.238  13.172  0.2203  0.3966  0.5895
  286CLA    CLA22346   3.204   6.616   4.152  0.0649  0.3056  0.0835
  287CLA    CLA22347   1.885   2.493   3.270 -0.4526 -0.6595  0.4965
  288CLA    CLA22348   3.415   0.124   5.401 -0.3548 -0.2575  0.1528
  289CLA    CLA22349   1.331   5.913   4.176 -0.2817 -0.2048  0.3999
  290CLA    CLA22350   1.020   5.098  15.258  0.3328  0.0038  0.6325
  291CLA    CLA22351   0.412   2.110  15.469  0.0844 -0.0855 -0.1642
  292CLA    CLA22352   4.635   1.915   4.377  0.4861  0.0103 -0.1550
  293CLA    CLA22353   1.569   5.035   2.267  0.0059 -0.0610 -0.2218
  294CLA    CLA22354   5.190   3.190  11.548 -0.0478  0.4316 -0.0605
  295CLA    CLA22355   2.619   0.521   4.953  0.4398 -0.1207 -0.0986
  296CLA    CLA22356   4.925   6.464  13.864 -0.1594 -0.0600  0.1067
  297CLA    CLA22357   5.382   6.518  11.452  0.1749 -0.0267 -0.0016
  298CLA    CLA22358   4.283   3.649   0.134 -0.5444  0.0597  0.0191
  299CLA    CLA22359   0.572   2.713   5.535  0.0910  0.0335 -0.0961
  300CLA    CLA22360   6.670   6.231   0.424  0.0940  0.2157 -0.3659
  301CLA    CLA22361   3.229   1.802  15.737  0.0481 -1.0083  0.1191
  302CLA    CLA22362   6.582   5.878   2.273  0.4208 -0.0649  0.3375
  303CLA    CLA22363   6.358   6.040   0.951 -0.0848 -0.3616 -0.1867
  304CLA    CLA22364   4.220   1.003  14.956 -0.0268  0.0869 -0.1500
  305CLA    CLA22365   5.390   3.814  14.494  0.1728  0.0667 -0.0181
  306CLA    CLA22366   0.335   5.430  12.449 -0.8196 -0.4006  0.3078
  307CLA    CLA22367   2.243   4.854   1.868 -0.2363 -0.0365  0.0145
  308CLA    CLA22368   3.272   3.084   0.401 -0.0179 -0.1884  0.0566
  309CLA    CLA22369   4.502   5.871  14.363 -0.0131  0.0011 -0.1609
  310CLA    CLA22370   2.165   0.620   3.416  0.0870  0.3573 -0.0147
  311CLA    CLA22371   1.803   3.925  16.949  0.2295 -0.3874  0.2388
  312CLA    CLA22372   0.910   4.512   3.418  0.4006  0.0450 -0.0139
  313CLA    CLA22373   4.894   2.680  16.466 -0.1407 -0.1144  0.0335
  314CLA    CLA22374   4.510   2.884  12.366  0.2131 -0.0159  0.2545
  315CLA    CLA22375   0.356   1.609   2.248  0.3188 -0.1522 -0.0850
  316CLA    CLA22376   6.141   0.425   0.218  0.3338  0.4658  0.3457
  317CLA    CLA22377   5.633   5.233  15.384 -0.1378 -0.1045 -0.2694
  318CLA    CLA22378   2.530   1.791  15.399 -0.1470 -0.2538  0.4449
  319CLA    CLA22379   4.561   3.968   0.798 -0.0241 -0.1805 -0.0188
  320CLA    CLA22380   2.369   2.057  17.170 -0.0004 -0.3919 -0.1335
  321CLA    CLA22381   2.768   3.373  13.796  0.1594  0.2336  0.2651
  322CLA    CLA22382   4.086   3.125  14.515 -0.0240  0.1702  0.1469
  323TIP3   OH222383   0.938   4.653  11.251 -0.0510 -0.7887  0.2144
  323TIP3    H122384   0.992   4.577  11.272 -0.9591 -1.0956  1.5892
  323TIP3    H222385   0.904   4.636  11.164  0.7565 -1.3624  0.0046
  324TIP3   OH222386   4.836   5.341  16.053  0.2317 -0.7124 -0.2816
  324TIP3    H122387   4.782   5.398  16.108 -0.4973 -1.1749 -0.4997
  324TIP3    H222388   4.889   5.401  16.001  1.5705 -0.2542  1.5092
  325TIP3   OH222389   4.971   1.221  13.218  0.0243  0.1872 -0.0684
  325TIP3    H122390   4.942   1.140  13.176 -1.0770  0.4310  0.1885
  325TIP3    H222391   4.920   1.226  13.298  0.2409  1.0251  0.0263
  326TIP3   OH222392   1.932   4.206   6.043 -0.2742  0.2666  0.0975
  326TIP3    H122393   2.022   4.231   6.020 -0.6901  0.2875 -1.6774
  326TIP3    H222394   1.923   4.117   6.008 -0.7870  0.0746  0.7166
  327TIP3   OH222395   5.329   0.972   5.775  0.4347  0.2991  0.6895
  327TIP3    H122396   5.375   0.994   5.694 -3.3098 -0.6615 -1.9888
  327TIP3    H222397   5.302   1.056   5.812  0.3787  0.7064 -0.2586
  328TIP3   OH222398   4.613   2.306   2.698  0.6226  0.8415 -0.7149
  328TIP3    H122399   4.681   2.361   2.659 -0.9266  2.6591 -0.9859
  328TIP3    H222400   4.561   2.277   2.623  1.7096 -1.5348 -0.6407
  329TIP3   OH222401   2.353   1.104  11.601 -0.4970 -0.5715 -0.2338
  329TIP3    H122402   2.327   1.080  11.512 -2.4675 -1.1511  0.4534
  329TIP3    H222403   2.306   1.043  11.658  0.5745 -0.1020  1.2305
  330TIP3   OH222404   3.588   3.841   1.447 -0.4693 -0.4793 -0.2976
  330TIP3    H122405   3.662   3.902   1.448 -0.5488 -0.3928  0.6083
  330TIP3    H222406   3.516   3.891   1.409 -0.3562 -0.2164 -0.1652
  331TIP3   OH222407   6.279   0.271  14.231 -0.1566  0.2768 -0.3221
  331TIP3    H122408   6.228   0.280  14.151  3.1940  2.4300 -2.4451
  331TIP3    H222409   6.352   0.214  14.207  1.3648  1.6092  0.8940
  332TIP3   OH222410   4.407   5.075   2.266  0.2960 -0.4410 -0.5133
  332TIP3    H122411   4.462   5.061   2.190  0.0350 -0.1807 -0.7551
  332TIP3    H222412   4.427   5.003   2.325  2.0559  0.5047  0.1053
  333TIP3   OH222413   2.210   5.262   1.049  0.7205 -0.2205 -1.0623
  333TIP3    H122414   2.238   5.248   1.139 -0.5595  1.7570 -0.2894
  333TIP3    H222415   2.289   5.252   0.997  1.5790 -0.9077  0.3266
  334TIP3   OH222416   4.918   5.333  12.094 -0.0102  0.2151  0.0028
  334TIP3    H122417   4.871   5.339  12.011  0.3233  0.2392 -0.1853
  334TIP3    H222418   5.009   5.350  12.071  0.0827  0.2191  0.3745
  335TIP3   OH222419   3.337   4.208   3.651 -0.1911 -0.1770 -0.4815
  335TIP3    H122420   3.283   4.143   3.697 -0.7821  0.0836 -0.7952
  335TIP3    H222421   3.316   4.291   3.694  3.7643 -0.6024  2.9741
  336TIP3   OH222422   5.112   5.396   4.457 -0.2790  0.7719 -0.1891
  336TIP3    H122423   5.137   5.485   4.483 -2.4684  1.0933  1.0052
  336TIP3    H222424   5.101   5.350   4.540  3.5599 -1.5711 -0.7233
  337TIP3   OH222425   3.842   4.033  15.021 -0.3069 -0.1582  0.4374
  337TIP3    H122426   3.903   3.970  14.985  0.0157 -0.2895  1.2086
  337TIP3    H222427   3.772   4.039  14.955 -0.2304 -1.1397  0.2542
  338TIP3   OH222428   0.184   2.801  14.419 -0.0867 -0.3493  0.5114
  338TIP3    H122429   0.159   2.848  14.498  2.6024  1.6184  0.3265
  338TIP3    H222430   0.176   2.865  14.349  2.3493 -0.4755  0.0266
  339TIP3   OH222431   6.127   1.631   5.720 -0.0808 -0.2001 -0.2271
  339TIP3    H122432   6.085   1.631   5.635 -0.4153  0.1709 -0.0633
  339TIP3    H222433   6.181   1.710   5.721  0.0656 -0.2996 -0.1648
  340TIP3   OH222434   5.552   3.278  16.244 -0.3227  0.3292 -0.3102
  340TIP3    H122435   5.487   3.261  16.175 -1.4069 -0.4527  0.8552
  340TIP3    H222436   5.613   3.340  16.205 -2.2805  1.8198 -1.1638
  341TIP3   OH222437   6.136   6.524  16.120 -0.4438  1.0397 -0.2456
  341TIP3    H122438   6.044   6.539  16.098  0.0981  0.2123 -3.7541
  341TIP3    H222439   6.140   6.432  16.147 -0.6803  1.1983  0.3481
  342TIP3   OH222440   3.401   6.764   4.496 -0.7372 -0.2537  0.2418
  342TIP3    H122441   3.373   6.799   4.412  0.7958  0.4239 -0.0202
  342TIP3    H222442   3.351   6.814   4.561 -0.5595  0.5378 -0.2149
  343TIP3   OH222443   1.205   1.559   5.673  0.1617 -0.3167  0.1968
  343TIP3    H122444   1.141   1.500   5.713 -1.6593  1.7636  0.5557
  343TIP3    H222445   1.163   1.587   5.591  1.4761 -0.3491 -0.5129
  344TIP3   OH222446   6.401   3.521   0.021  0.4443 -0.4600  0.0605
  344TIP3    H122447   6.476   3.546  -0.033  1.5257  0.0996  1.7264
  344TIP3    H222448   6.376   3.602   0.066 -0.8387 -0.7623 -0.0711
  345TIP3   OH222449   1.822   5.746  14.448  0.3007 -0.8433  0.0697
  345TIP3    H122450   1.824   5.726  14.354 -1.0815  2.9267 -0.9734
  345TIP3    H222451   1.915   5.754  14.472  0.6842 -2.1746 -0.8837
  346TIP3   OH222452   0.934   4.720  13.335  0.5375 -0.3688  0.3898
  346TIP3    H122453   0.839   4.712  13.333  0.5624 -0.6354  0.2658
  346TIP3    H222454   0.952   4.780  13.408  0.4258 -2.3681  2.1543
  347TIP3   OH222455   6.631   0.695  12.408 -0.0212 -0.0278  0.0492
  347TIP3    H122456   6.675   0.657  12.332 -0.8843  0.5546 -0.7525
  347TIP3    H222457   6.669   0.649  12.483  0.1137 -1.3241 -0.7912
  348TIP3   OH222458   5.074   2.013   2.883  1.0067 -0.1755 -0.1310
  348TIP3    H122459   5.165   2.038   2.867  0.9706 -0.1069 -0.2286
  348TIP3    H222460   5.023   2.093   2.868  0.6865 -0.7330 -2.3968
  349TIP3   OH222461   2.519   5.690   3.497 -0.2626 -0.1592  0.5385
  349TIP3    H122462   2.486   5.694   3.407 -0.2015 -0.1301  0.5173
  349TIP3    H222463   2.463   5.625   3.540  0.7515 -1.4065  0.0415
  350TIP3   OH222464   0.517   4.192   0.049  0.4348 -0.0154  0.6429
  350TIP3    H122465   0.460   4.167  -0.023 -0.6044  0.5181  1.2574
  350TIP3    H222466   0.580   4.252   0.010  0.5478 -0.5520 -0.0257
  351TIP3   OH222467   2.923   3.010   2.898  0.1618 -0.1815  0.1606
  351TIP3    H122468   2.879   3.065   2.833  2.5404  0.9321 -0.6085
  351TIP3    H222469   2.884   3.037   2.981 -1.0083  0.3207 -0.5159
  352TIP3   OH222470   2.139   4.427  16.946  0.0554  0.4345 -0.9925
  352TIP3    H122471   2.120   4.423  17.040 -0.0716  0.5667 -1.0122
  352TIP3    H222472   2.055   4.449  16.905  0.3511  1.5957 -1.0338
  353TIP3   OH222473   2.124   5.867   3.739 -0.4100  0.3330  0.2689
  353TIP3    H122474   2.044   5.914   3.760 -1.7636 -2.2123  1.2802
  353TIP3    H222475   2.112   5.837   3.649  0.3286  1.5663 -0.2745
  354TIP3   OH222476   4.264   0.476  16.831  0.1061 -0.3688  0.0808
  354TIP3    H122477   4.224   0.491  16.746 -0.2793  1.9292  0.5943
  354TIP3    H222478   4.348   0.435  16.812 -0.6765 -1.4138 -1.2667
  355TIP3   OH222479   0.627   4.460   6.237 -0.6070  0.1993 -0.8001
  355TIP3    H122480   0.687   4.385   6.238 -2.1694 -1.0906 -0.6999
  355TIP3    H222481   0.583   4.457   6.322 -0.2860  1.6046 -0.5521
  356TIP3   OH222482   2.076   0.455   3.928 -0.5663 -0.3330 -0.1649
  356TIP3    H122483   2.036   0.372   3.902  1.8141 -2.2689  1.8914
  356TIP3    H222484   2.158   0.430   3.971 -0.1027  3.0544  1.2157
  357TIP3   OH222485   1.701   0.394   2.440 -0.7371  0.0448 -0.6531
  357TIP3    H122486   1.729   0.481   2.411  0.3701  0.3997  1.2418
  357TIP3    H222487   1.778   0.339   2.427 -0.6530 -0.0799  0.3005
  358TIP3   OH222488   0.006   4.917  14.843 -0.3699  0.0606 -0.4858
  358TIP3    H122489  -0.035   4.841  14.801 -1.2802 -0.3340  1.0357
  358TIP3    H222490  -0.030   4.992  14.795 -2.0988 -0.3307  0.1119
  359TIP3   OH222491   4.260   1.898  14.573  0.1501 -0.3530  0.0388
  359TIP3    H122492   4.181   1.844  14.572 -0.0969 -0.1162  1.8614
  359TIP3    H222493   4.332   1.835  14.578 -0.0600 -0.5629  0.5917
  360TIP3   OH222494   4.700   6.287   2.214  0.1902  0.6477 -0.5907
  360TIP3    H122495   4.758   6.359   2.238  0.7467 -0.1527  0.5842
  360TIP3    H222496   4.759   6.212   2.205 -0.5695 -0.0166 -0.1208
  361TIP3   OH222497   0.820   1.669  12.316 -0.5274 -0.1552 -0.1218
  361TIP3    H122498   0.768   1.615  12.257  0.1132 -1.4916  0.5100
  361TIP3    H222499   0.765   1.682  12.393 -1.7080  2.3022 -1.2695
  362TIP3   OH222500   3.142   6.091  15.546  0.7219  0.2478  0.0299
  362TIP3    H122501   3.212   6.142  15.585 -1.0271  2.3359  0.6053
  362TIP3    H222502   3.099   6.048  15.620 -0.4481  1.4231  0.0602
  363TIP3   OH222503   0.802   5.657  16.005 -0.4954 -0.6768 -0.1195
  363TIP3    H122504   0.708   5.646  15.991 -0.3518 -2.8119  0.2705
  363TIP3    H222505   0.810   5.683  16.097 -0.6840 -1.1507  0.0336
  364TIP3   OH222506   3.403   6.094   6.662 -0.4791  0.4867 -0.3700
  364TIP3    H122507   3.395   6.123   6.752 -1.7325 -0.6041 -0.1073
  364TIP3    H222508   3.475   6.147   6.626 -0.8518  1.8996  0.8536
  365TIP3   OH222509   3.356   3.404  13.690  0.4893  0.6651  0.1600
  365TIP3    H122510   3.380   3.425  13.600  1.0104  0.0118  0.1411
  365TIP3    H222511   3.357   3.309  13.694  1.4734  0.6900  1.1110
  366TIP3   OH222512   3.913   1.744  16.456 -0.2703  0.3768 -0.3535
  366TIP3    H122513   3.952   1.774  16.538  0.2484  0.9504 -0.7911
  366TIP3    H222514   3.856   1.671  16.480 -1.0093  1.2681  0.6598
  367TIP3   OH222515   6.211   4.929  11.280  0.2266  0.7137  0.0211
  367TIP3    H122516   6.130   4.906  11.233 -1.7065  1.8562  2.5435
  367TIP3    H222517   6.273   4.951  11.211 -1.9084  0.7163 -2.0440
  368TIP3   OH222518   2.592   3.693  16.414  0.1137  0.2069 -0.2429
  368TIP3    H122519   2.669   3.724  16.462  0.7473  1.8871 -2.2086
  368TIP3    H222520   2.628   3.638  16.344 -0.5734 -0.0729 -0.3804
  369TIP3   OH222521   4.527   3.332   5.183  1.0425  0.6980 -0.0410
  369TIP3    H122522   4.601   3.333   5.121  0.5116  1.7341 -0.6888
  369TIP3    H222523   4.568   3.350   5.268  1.9646 -2.0557  0.1945
  370TIP3   OH222524   2.551   1.438  11.206 -0.3479 -0.2065  0.0846
  370TIP3    H122525   2.638   1.430  11.168 -0.0933 -0.4699  0.7134
  370TIP3    H222526   2.513   1.350  11.199 -0.8101  0.0410 -0.7448
  371TIP3   OH222527   1.453   2.616  13.120 -0.3450  0.0382 -0.0575
  371TIP3    H122528   1.387   2.553  13.149 -0.8006  1.2592  1.6808
  371TIP3    H222529   1.438   2.694  13.174  2.1393  0.5719 -0.0189
  372TIP3   OH222530   1.358   3.757   2.201  0.2802  0.0830  0.0072
  372TIP3    H122531   1.326   3.761   2.292  0.4878  1.2122  0.0516
  372TIP3    H222532   1.377   3.665   2.186  1.5110  0.0293  1.5653
  373TIP3   OH222533   3.555   3.171  11.455  0.1751  0.1140  0.1964
  373TIP3    H122534   3.587   3.262  11.456  1.7684 -0.4198  0.4984
  373TIP3    H222535   3.469   3.177  11.414  0.1700  1.7892  0.3626
  374TIP3   OH222536   0.658   4.996  11.615  0.1857 -0.1120 -0.5671
  374TIP3    H122537   0.693   4.959  11.697 -0.6358 -0.5925 -0.4199
  374TIP3    H222538   0.696   4.941  11.547  1.6674  0.8984 -0.6089
  375TIP3   OH222539   5.751   0.180  11.808 -0.2518  0.2975 -0.1395
  375TIP3    H122540   5.754   0.192  11.713 -0.3672 -0.5975 -0.2573
  375TIP3    H222541   5.681   0.238  11.837 -1.7920 -1.1197 -0.8723
  376TIP3   OH222542   6.145   3.387  12.689  0.2817 -0.0836 -0.1256
  376TIP3    H122543   6.060   3.422  12.718  0.6548  0.6584  0.0846
  376TIP3    H222544   6.127   3.295  12.670 -0.8108  0.2982 -1.0448
  377TIP3   OH222545   5.241   5.173  15.958 -0.3206  0.4473  0.3286
  377TIP3    H122546   5.168   5.134  16.006 -0.3687  0.2346  0.0825
  377TIP3    H222547   5.283   5.231  16.022 -1.1509  1.1494  0.2595
  378TIP3   OH222548   0.624   3.298   0.806  0.2742  0.1754 -0.3505
  378TIP3    H122549   0.666   3.381   0.828  3.4570 -2.0618  3.4642
  378TIP3    H222550   0.664   3.272   0.724 -0.2645  2.0198 -1.2449
  379TIP3   OH222551   1.463   1.256  14.182  0.0495  0.6690 -0.2117
  379TIP3    H122552   1.517   1.199  14.238  1.1553  0.1129 -1.7688
  379TIP3    H222553   1.493   1.237  14.093 -1.0324  2.1809 -0.9364
  380TIP3   OH222554   0.758   2.041  12.878 -0.0220  0.4469  1.0369
  380TIP3    H122555   0.791   2.009  12.794 -0.0768 -1.1699  1.5970
  380TIP3    H222556   0.722   1.963  12.921 -1.5957  1.5593  1.8329
  381TIP3   OH222557   3.150   0.056  14.261 -0.6223 -0.1955 -0.0970
  381TIP3    H122558   3.065   0.073  14.220 -0.4873 -0.3516 -0.4443
  381TIP3    H222559   3.203   0.019  14.191  0.2339  1.3437 -0.3106
  382TIP3   OH222560   3.000   2.117   1.716 -0.2338 -0.4283 -0.1475
  382TIP3    H122561   2.987   2.166   1.798 -1.4569  0.1325 -0.6412
  382TIP3    H222562   3.036   2.181   1.655  0.1960 -0.7107 -0.1894
  383TIP3   OH222563   5.671   1.724  12.370 -0.8050 -0.5784  0.7170
  383TIP3    H122564   5.669   1.799  12.428 -1.5298 -0.6349  0.7827
  383TIP3    H222565   5.735   1.746  12.303 -1.5524  0.4318  0.3058
  384TIP3   OH222566   0.050   3.238   3.870  0.4056  0.6535 -0.1835
  384TIP3    H122567   0.033   3.234   3.964  3.8841 -1.1578  0.5122
  384TIP3    H222568  -0.016   3.179   3.831  0.3146 -0.3408  1.3988
  385TIP3   OH222569   2.335   1.597   2.744  0.0132 -0.2719 -0.1444
  385TIP3    H122570   2.256   1.543   2.750  0.8551 -1.5541 -0.2007
  385TIP3    H222571   2.388   1.570   2.820  1.0895 -0.6021 -0.9872
  386TIP3   OH222572   3.760   2.204   0.360  0.1821  0.4332 -0.0632
  386TIP3    H122573   3.809   2.224   0.440 -0.5071  0.2053  0.4335
  386TIP3    H222574   3.801   2.125   0.326  0.1298  0.2122  0.3787
  387TIP3   OH222575   5.877   6.245   1.632  0.2651  0.4927 -0.2148
  387TIP3    H122576   5.810   6.277   1.572  0.5271  1.1017 -0.1868
  387TIP3    H222577   5.960   6.267   1.589  0.4547 -0.2331 -0.2397
  388TIP3   OH222578   2.514   6.401  14.541  0.3520 -0.2949 -0.1219
  388TIP3    H122579   2.424   6.411  14.572 -0.0854  0.1101 -1.4207
  388TIP3    H222580   2.549   6.490  14.539 -0.0020 -0.1541 -1.7350
  389TIP3   OH222581   0.195   1.654  16.448  0.0109 -0.1534 -0.1401
  389TIP3    H122582   0.260   1.718  16.419  0.8605 -1.5967 -1.5934
  389TIP3    H222583   0.130   1.653  16.377 -0.9522  0.3727  0.7157
  390TIP3   OH222584   4.737   4.989  16.543  0.2522  0.3133  0.1017
  390TIP3    H122585   4.812   5.034  16.583  1.4616 -1.4988 -0.0433
  390TIP3    H222586   4.768   4.965  16.456 -1.5694  2.1504 -1.1411
  391TIP3   OH222587   4.569   6.080   1.134 -0.1818 -0.0331  0.2396
  391TIP3    H122588   4.492   6.029   1.159 -0.8782  0.2398 -1.2253
  391TIP3    H222589   4.544   6.170   1.151 -0.9012  0.2168 -1.8304
  392TIP3   OH222590   2.756   3.567   1.009 -0.0823  0.5731 -0.0982
  392TIP3    H122591   2.709   3.636   0.961 -0.5812  2.0876  2.3934
  392TIP3    H222592   2.847   3.595   1.009 -0.1255  0.7144  0.0669
  393TIP3   OH222593   0.992   5.541  17.073 -0.0881 -0.3356  0.3103
  393TIP3    H122594   0.960   5.498  16.994  0.7362 -0.5349  0.0810
  393TIP3    H222595   1.027   5.470  17.127 -2.8877 -0.5798  2.0112
  394TIP3   OH222596   2.713   2.238  13.880 -0.4604 -0.5721  0.3510
  394TIP3    H122597   2.768   2.229  13.802  0.7780  0.2583  1.0802
  394TIP3    H222598   2.776   2.243  13.952 -1.3003  2.7939  1.0346
  395TIP3   OH222599   3.646   2.468  13.980 -0.7205 -0.1514  0.6775
  395TIP3    H122600   3.730   2.449  13.938  0.0408 -0.3140  2.1821
  395TIP3    H222601   3.647   2.415  14.060 -1.3157  1.4265  1.7955
  396TIP3   OH222602   3.872   1.072  11.666  0.5374  0.0040  0.4349
  396TIP3    H122603   3.919   0.994  11.695  0.6604  0.2931  1.0452
  396TIP3    H222604   3.916   1.144  11.711 -0.1980  0.3245  0.6620
  397TIP3   OH222605   1.560   3.900   1.157 -0.0549  0.1509 -0.3016
  397TIP3    H122606   1.492   3.833   1.147 -0.4426  0.8937 -4.2637
  397TIP3    H222607   1.513   3.979   1.181  0.0650 -0.2731  1.4902
  398TIP3   OH222608   1.928   3.720   1.576  0.1941  0.2236  0.5259
  398TIP3    H122609   1.910   3.789   1.641 -1.4553 -1.9824  2.6116
  398TIP3    H222610   2.023   3.709   1.579  0.3119  1.2532  1.3792
  399TIP3   OH222611   4.165   1.290  16.572  0.0174 -0.1246  0.2524
  399TIP3    H122612   4.081   1.248  16.556  0.5837 -1.1160 -0.2059
  399TIP3    H222613   4.142   1.376  16.607 -1.2039 -0.0162 -0.7346
  400TIP3   OH222614   5.674   1.456   4.246  0.1182  0.2410 -0.2723
  400TIP3    H122615   5.587   1.432   4.215  0.6638 -0.5085 -1.2863
  400TIP3    H222616   5.670   1.551   4.257 -0.9425  0.1683  0.0808
  401TIP3   OH222617   0.371   0.496  11.848 -0.4931 -0.2158 -0.7254
  401TIP3    H122618   0.453   0.450  11.829 -0.0213  0.6352 -0.8178
  401TIP3    H222619   0.358   0.485  11.942  1.2105  1.9332 -0.1529
  402TIP3   OH222620   1.326   3.137   4.357 -0.7446  0.4301  0.4051
  402TIP3    H122621   1.351   3.055   4.398  0.7354  0.6633  0.0107
  402TIP3    H222622   1.291   3.190   4.429 -0.8750 -0.2000  0.8173
  403TIP3   OH222623   1.995   0.521  14.862 -0.1310 -0.6021 -0.2571
  403TIP3    H122624   1.990   0.540  14.956  0.3734  0.7510 -0.4794
  403TIP3    H222625   1.939   0.587  14.821  2.6615  1.3684 -1.1685
  404TIP3   OH222626   1.140   2.979  15.572 -0.2360  0.0431 -0.4224
  404TIP3    H122627   1.064   2.921  15.579  0.0445 -0.4175 -1.0479
  404TIP3    H222628   1.103   3.066  15.561 -0.6765  0.2385  2.0550
  405TIP3   OH222629   0.537   1.504   2.488 -0.1259 -0.0431 -0.0984
  405TIP3    H122630   0.467   1.537   2.432  0.4377  0.4935 -0.4986
  405TIP3    H222631   0.511   1.414   2.509  0.1397 -0.6033 -2.0160
  406TIP3   OH222632   5.433   2.588   0.730  0.0580  0.6135 -0.4906
  406TIP3    H122633   5.357   2.618   0.780  0.1683 -0.7167  0.5414
  406TIP3    H222634   5.496   2.560   0.797  0.8661  0.3110 -1.3531
  407TIP3   OH222635   3.187   5.919   6.036 -0.4776 -0.1146 -0.1004
  407TIP3    H122636   3.152   6.008   6.045 -0.4069 -0.2160  1.4762
  407TIP3    H222637   3.282   5.931   6.034 -0.4929 -0.0848 -1.0513
  408TIP3   OH222638   3.805   4.570  10.925  0.5069 -0.0654  0.1477
  408TIP3    H122639   3.735   4.634  10.940  0.0901 -0.4655 -0.0541
  408TIP3    H222640   3.828   4.582  10.833  1.7848  1.1252  0.5974
  409TIP3   OH222641   1.970   3.712   1.925 -0.9451  0.1714  0.4924
  409TIP3    H122642   1.938   3.731   2.013 -0.6716  1.6442  0.3024
  409TIP3    H222643   2.063   3.692   1.937 -0.8984  0.4128  0.5340
  410TIP3   OH222644   0.491   2.047   6.546 -0.1129  0.6253 -0.3171
  410TIP3    H122645   0.508   1.964   6.502  2.1312  0.4512  0.7166
  410TIP3    H222646   0.398   2.063   6.532 -0.2363 -1.1632 -2.0351
  411TIP3   OH222647   3.624   4.580   0.780  0.0086 -0.2282  0.1047
  411TIP3    H122648   3.579   4.522   0.841  1.5031 -0.8453  0.6722
  411TIP3    H222649   3.601   4.547   0.693 -0.7584 -0.4141  0.3731
  412TIP3   OH222650   5.130   6.290   6.290 -0.7954  0.8677 -0.5001
  412TIP3    H122651   5.183   6.325   6.218  0.3804 -0.4504 -0.3295
  412TIP3    H222652   5.047   6.266   6.249 -0.0659 -0.0583 -1.4931
  413TIP3   OH222653   1.818   4.172  14.232 -0.3865  0.1500 -0.7128
  413TIP3    H122654   1.793   4.176  14.140 -1.0661 -1.8777 -0.6682
  413TIP3    H222655   1.807   4.080  14.256  1.9691  0.1896  0.8106
  414TIP3   OH222656   0.093   2.563  11.265  0.8583  0.2698  0.3872
  414TIP3    H122657   0.037   2.632  11.230  1.0842  0.6270  0.7178
  414TIP3    H222658   0.167   2.558  11.204  2.1654  2.1202  1.6909
  415TIP3   OH222659   0.829   2.949  13.019 -0.2301  0.1806 -0.3783
  415TIP3    H122660   0.849   2.961  12.926 -1.2603  0.7992 -0.5258
  415TIP3    H222661   0.913   2.962  13.063  0.2686 -0.1253 -1.2182
  416TIP3   OH222662   6.722   6.579   1.340 -0.1420 -0.4375 -0.0654
  416TIP3    H122663   6.710   6.515   1.410 -2.0987  1.6099  1.6403
  416TIP3    H222664   6.764   6.654   1.382 -1.1513  0.7560 -1.0811
  417TIP3   OH222665   1.995   4.177   4.869 -0.2700 -0.5169 -0.4813
  417TIP3    H122666   1.989   4.131   4.953  1.3444  0.0940  0.0068
  417TIP3    H222667   1.910   4.220   4.859 -0.2974 -0.1323  1.1399
  418TIP3   OH222668   0.347   5.095  14.042 -0.6873 -0.2081 -0.0255
  418TIP3    H122669   0.426   5.050  14.013 -1.7651 -1.2348 -1.5275
  418TIP3    H222670   0.364   5.117  14.134  1.2910 -0.4516 -0.2946
  419TIP3   OH222671   0.611   0.701   0.954  0.1617  0.7189  0.1906
  419TIP3    H122672   0.542   0.652   0.999  0.1869 -0.6487 -1.1708
  419TIP3    H222673   0.565   0.756   0.891  0.2603  0.5569 -0.0240
  420TIP3   OH222674   3.386   0.955  14.597  0.5501 -0.6974 -0.3044
  420TIP3    H122675   3.398   1.009  14.675 -0.8056  1.0446 -1.2454
  420TIP3    H222676   3.466   0.968  14.546  0.0790  0.8262 -0.7143
  421TIP3   OH222677   2.204   5.016   5.631 -0.3093  0.6087  0.2231
  421TIP3    H122678   2.240   4.979   5.550 -1.2454 -2.3975  1.0402
  421TIP3    H222679   2.268   4.991   5.699 -0.8759  0.6692  0.7837
  422TIP3   OH222680   3.207   5.775  15.599  0.5232 -0.4351  0.8947
  422TIP3    H122681   3.265   5.834  15.551 -0.0924  0.8107  1.6616
  422TIP3    H222682   3.243   5.688  15.581  1.3448  0.1384 -0.3811
  423TIP3   OH222683   1.850   2.069  14.757 -0.3920  0.3620 -0.5544
  423TIP3    H122684   1.864   1.975  14.771  1.0491  0.5545 -0.5238
  423TIP3    H222685   1.860   2.108  14.844  0.9453  0.7320 -0.8493
  424TIP3   OH222686   1.023   0.412   0.647 -0.3959 -0.2438 -0.3903
  424TIP3    H122687   0.960   0.457   0.703 -1.2037 -0.4299 -1.1253
  424TIP3    H222688   1.018   0.320   0.673 -0.8467 -0.3466 -0.8240
  425TIP3   OH222689   4.215   3.766   3.659  0.2344  0.2032 -0.5313
  425TIP3    H122690   4.187   3.852   3.630  0.4251  1.6496  3.0530
  425TIP3    H222691   4.146   3.707   3.630 -2.2065  2.2963  0.6784
  426TIP3   OH222692   6.759   4.856   1.025  0.7260  0.1301 -0.2248
  426TIP3    H122693   6.804   4.778   0.994  0.3899 -1.2058  2.3693
  426TIP3    H222694   6.828   4.922   1.034  0.9984  0.2381 -2.5350
  427TIP3   OH222695   4.599   3.078  16.861  0.0657 -0.2410 -0.1457
  427TIP3    H122696   4.537   3.113  16.925 -0.4605  0.8441 -1.1974
  427TIP3    H222697   4.656   3.021  16.911 -1.1793 -0.4959  1.0318
  428TIP3   OH222698   2.851   1.156  12.922 -0.3603  0.8103  0.3828
  428TIP3    H122699   2.895   1.222  12.868  2.0395  0.4236  1.7061
  428TIP3    H222700   2.916   1.087  12.933 -2.2976 -1.1604  0.2364
  429TIP3   OH222701   4.695   1.004   0.190 -0.0523  0.7323  0.1391
  429TIP3    H122702   4.609   0.968   0.211  0.4750 -0.8965 -0.3352
  429TIP3    H222703   4.704   0.990   0.095  1.9451 -2.0495  0.6270
  430TIP3   OH222704   3.275   0.786  16.339 -0.5373 -0.1833 -0.3281
  430TIP3    H122705   3.184   0.790  16.309 -1.4573 -0.9659  2.0943
  430TIP3    H222706   3.271   0.807  16.432  2.1053  1.9659 -0.5814
  431TIP3   OH222707   1.294   1.644  14.588 -0.9057  0.0993  0.0689
  431TIP3    H122708   1.376   1.636  14.539  0.1049  3.7306  0.8933
  431TIP3    H222709   1.254   1.557  14.581  2.1699 -1.3544 -1.7817
  432TIP3   OH222710   6.036   1.627  15.735 -0.1201  0.0205  0.3797
  432TIP3    H122711   6.003   1.537  15.744 -1.5351  0.5557  0.9144
  432TIP3    H222712   5.957   1.680  15.729  0.6873  1.0953 -1.6678
  433TIP3   OH222713   1.206   4.399   3.358 -0.0693  0.1127 -0.1665
  433TIP3    H122714   1.230   4.336   3.425 -0.4947  0.6265  0.4884
  433TIP3    H222715   1.117   4.427   3.383  0.3073  1.3384 -0.1393
  434TIP3   OH222716   6.460   0.954  15.432  0.0113  0.7166 -0.0429
  434TIP3    H122717   6.375   0.992  15.450 -0.5125 -0.0041 -0.9132
  434TIP3    H222718   6.458   0.869  15.476  0.0612  0.4673 -0.5068
  435TIP3   OH222719   3.281   5.011   5.007 -0.0879 -0.0882 -0.2454
  435TIP3    H122720   3.365   4.965   5.011  0.1987  0.4848  0.4476
  435TIP3    H222721   3.216   4.942   5.006  0.4082 -0.5717 -1.6751
  436TIP3   OH222722   6.067   1.018  13.467  0.0260  0.2874  0.8025
  436TIP3    H122723   6.077   1.091  13.528  1.5376  0.9768 -0.2429
  436TIP3    H222724   5.978   1.028  13.432  0.9583  3.0283 -1.0456
  437TIP3   OH222725   6.737   3.457  11.089 -0.4678  0.1782 -0.3137
  437TIP3    H122726   6.657   3.475  11.040 -0.9047 -2.2079 -0.6164
  437TIP3    H222727   6.763   3.370  11.060  2.1947  0.8233 -0.1173
  438TIP3   OH222728   2.305   4.916   5.331 -0.1509  0.1180 -0.5234
  438TIP3    H122729   2.273   4.839   5.285  1.0438 -0.5148 -0.3440
  438TIP3    H222730   2.362   4.960   5.267  0.8614 -0.3165  0.0683
  439TIP3   OH222731   0.472   1.172  11.089  0.0845 -0.3432  0.2921
  439TIP3    H122732   0.443   1.220  11.167  1.6076 -0.2507  0.8393
  439TIP3    H222733   0.521   1.237  11.038  0.1320 -0.7168 -0.1423
  440TIP3   OH222734   6.729   6.626  12.391  0.3890  0.2182 -0.1709
  440TIP3    H122735   6.662   6.558  12.384  0.0163  0.4839  0.6797
  440TIP3    H222736   6.743   6.654  12.301  1.5112 -1.8774 -0.7176
  441TIP3   OH222737   4.849   4.620  15.244  0.0762  0.3549 -0.0505
  441TIP3    H122738   4.886   4.607  15.331 -0.6651 -1.3207  0.0509
  441TIP3    H222739   4.766   4.666  15.259 -0.7259 -1.1456  0.2930
  442TIP3   OH222740   0.740   0.108   0.394 -0.3046  0.2449  0.4884
  442TIP3    H122741   0.649   0.104   0.424 -0.6090  0.5534 -0.3628
  442TIP3    H222742   0.734   0.121   0.299  0.6165  1.8928  0.6116
  443TIP3   OH222743   1.409   0.433   4.670 -0.7550  0.4068  0.4376
  443TIP3    H122744   1.323   0.393   4.684 -0.6997  0.7036  1.7262
  443TIP3    H222745   1.411   0.507   4.730  0.3098  0.5468  0.2430
  444TIP3   OH222746   5.624   0.492   0.814 -0.1173 -0.4583  0.2036
  444TIP3    H122747   5.705   0.486   0.763 -0.4366 -2.1942 -0.1469
  444TIP3    H222748   5.653   0.495   0.906  0.3518 -0.4451  0.0543
  445TIP3   OH222749   3.356   2.380  16.291  0.1919  0.6528 -0.2265
  445TIP3    H122750   3.350   2.417  16.203  0.4014  0.2489 -0.4114
  445TIP3    H222751   3.424   2.313  16.285 -0.2551  0.1613  0.0771
  446TIP3   OH222752   2.759   5.968   0.143 -0.2297 -0.1272 -0.1993
  446TIP3    H122753   2.789   5.920   0.066 -0.8447  1.0964 -1.2356
  446TIP3    H222754   2.839   5.999   0.185  0.2288 -2.3949  0.8003
  447TIP3   OH222755   3.418   5.018   4.221  0.1030 -0.3838 -0.2264
  447TIP3    H122756   3.492   4.976   4.177  0.1395 -1.2157  0.5997
  447TIP3    H222757   3.446   5.109   4.232  1.2640 -0.8166  0.6166
  448TIP3   OH222758   2.551   0.355   3.273 -0.1514 -0.1552  0.1444
  448TIP3    H122759   2.644   0.333   3.270 -0.4427 -1.4344 -2.5476
  448TIP3    H222760   2.548   0.448   3.250  0.4295 -0.5660 -1.8183
  449TIP3   OH222761   4.848   5.921  13.528  0.2523  0.2941  0.3322
  449TIP3    H122762   4.927   5.919  13.474  0.5314  0.4592  0.7210
  449TIP3    H222763   4.782   5.874  13.477  0.5958  0.1745 -0.0080
  450TIP3   OH222764   0.410   3.996   3.887 -0.4876  0.1633 -0.6854
  450TIP3    H122765   0.345   3.992   3.957 -0.5576  0.4603 -0.7318
  450TIP3    H222766   0.491   3.965   3.927 -1.0775 -2.1650 -1.1420
  451TIP3   OH222767   6.164   4.232  12.517 -0.3625  0.4139 -0.1126
  451TIP3    H122768   6.207   4.260  12.598 -2.6597 -0.5740  1.5639
  451TIP3    H222769   6.107   4.305  12.494  0.8192  1.0019 -1.3387
  452TIP3   OH222770   1.708   0.161   2.752  0.0366 -0.1375 -0.3617
  452TIP3    H122771   1.792   0.166   2.706  0.2545  2.2914  0.1439
  452TIP3    H222772   1.658   0.235   2.718 -0.8184  0.1097  1.3204
  453TIP3   OH222773   1.071   6.031   1.926 -0.8243  0.1837 -0.3815
  453TIP3    H122774   1.011   6.103   1.943 -1.2222 -0.0730 -0.6652
  453TIP3    H222775   1.140   6.069   1.872  0.3092  0.9432  1.5090
  454TIP3   OH222776   3.909   4.381   6.267  0.0067 -0.4139  0.0414
  454TIP3    H122777   3.879   4.310   6.324 -3.9952  1.5689  0.7970
  454TIP3    H222778   3.993   4.408   6.303  0.2270 -2.8182  1.5248
  455TIP3   OH222779   0.681   5.400  14.642  0.1993 -0.3149 -0.1354
  455TIP3    H122780   0.727   5.374  14.562 -0.3969  1.9222 -1.2958
  455TIP3    H222781   0.750   5.430  14.701  0.5526 -1.0066 -0.1813
  456TIP3   OH222782   5.240   1.891   0.867  0.0805  0.9926 -0.0136
  456TIP3    H122783   5.274   1.941   0.941  0.0697  0.5188  0.3154
  456TIP3    H222784   5.318   1.866   0.817 -0.0240  3.2974 -1.4900
  457TIP3   OH222785   0.291   3.856  16.179 -0.4778  0.0155 -0.0194
  457TIP3    H122786   0.349   3.910  16.126 -1.5088  1.1111 -0.0705
  457TIP3    H222787   0.226   3.822  16.117  0.2993 -1.5574 -0.0441
  458TIP3   OH222788   1.977   4.020  16.647  0.1081  0.3698  0.2498
  458TIP3    H122789   1.884   4.041  16.650 -0.3256 -1.2751 -0.6799
  458TIP3    H222790   2.017   4.096  16.604 -1.0829  0.3140 -1.0266
  459TIP3   OH222791   5.265   1.086   3.276  0.1420 -0.2152  0.2147
  459TIP3    H122792   5.276   1.048   3.189 -0.0648 -0.3339  0.2392
  459TIP3    H222793   5.223   1.170   3.261  2.0440  0.7620  0.0252
  460TIP3   OH222794   5.487   2.021   1.475  0.5317  0.0291 -0.0288
  460TIP3    H122795   5.416   2.005   1.413  0.7874  0.2560 -0.3802
  460TIP3    H222796   5.532   1.937   1.482  0.0995 -0.1782  0.3678
  461TIP3   OH222797   3.965   1.994  15.536  0.5087 -0.1130 -0.1006
  461TIP3    H122798   4.044   2.046  15.552  0.2460  1.0298 -2.1117
  461TIP3    H222799   3.920   1.992  15.620  2.2307 -0.0278  0.8708
  462TIP3   OH222800   2.266   5.288  14.548 -0.2627 -0.5781 -0.4166
  462TIP3    H122801   2.269   5.299  14.453 -0.7018 -1.7237 -0.5756
  462TIP3    H222802   2.199   5.222  14.563 -1.1655  0.5603  0.8005
  463TIP3   OH222803   0.200   1.825  11.673 -0.2521 -0.3312 -0.2000
  463TIP3    H122804   0.270   1.823  11.608 -1.2440  1.2929 -1.3996
  463TIP3    H222805   0.153   1.906  11.655 -0.4846  0.2719  2.6861
  464TIP3   OH222806   3.652   4.940  12.800 -0.3539  0.1108 -0.0687
  464TIP3    H122807   3.614   4.976  12.720 -0.8501 -0.1101  0.0610
  464TIP3    H222808   3.578   4.898  12.844  0.1954 -1.0423 -0.2111
  465TIP3   OH222809   6.356   4.381   2.946  0.3971 -0.0010  0.5251
  465TIP3    H122810   6.354   4.371   2.851  0.1663 -1.5493  0.6719
  465TIP3    H222811   6.264   4.394   2.970  0.3729 -0.3218  0.6054
  466TIP3   OH222812   3.252   5.464  11.156  0.0581 -0.6018  0.0015
  466TIP3    H122813   3.188   5.424  11.097 -2.0908  0.5893  1.3973
  466TIP3    H222814   3.205   5.536  11.198  1.4593 -1.3059  3.0850
  467TIP3   OH222815   2.664   3.631  12.644  0.2089  0.4282 -0.0639
  467TIP3    H122816   2.636   3.719  12.668 -1.3388  0.2819 -1.1202
  467TIP3    H222817   2.712   3.642  12.562 -1.3520  0.1851 -1.0599
  468TIP3   OH222818   1.039   6.569  12.452 -0.0364 -0.2850  0.2392
  468TIP3    H122819   1.130   6.594  12.463 -0.2080  0.1191  0.7848
  468TIP3    H222820   1.027   6.564  12.357  0.6671 -0.8025  0.1673
  469TIP3   OH222821   5.530   6.095   2.346  0.8218 -0.3089  0.1536
  469TIP3    H122822   5.591   6.023   2.361 -0.9261 -1.2918  3.6627
  469TIP3    H222823   5.464   6.059   2.286  0.8976 -1.0201  0.4897
  470TIP3   OH222824   4.261   4.105  13.832  0.1303  0.0971 -0.0893
  470TIP3    H122825   4.356   4.112  13.821  0.2385 -0.9089  0.1533
  470TIP3    H222826   4.241   4.013  13.818 -0.5848 -0.0194  1.4931
  471TIP3   OH222827   2.473   5.011  17.254 -0.1924 -0.6236  0.5171
  471TIP3    H122828   2.426   5.072  17.311 -1.7682 -0.8849 -0.4455
  471TIP3    H222829   2.472   4.928  17.302  0.6862 -0.2681  1.1856
  472TIP3   OH222830   6.251   4.363  13.959  0.0362  0.7921  0.0126
  472TIP3    H122831   6.158   4.364  13.938 -0.1360  2.3681  0.6852
  472TIP3    H222832   6.257   4.312  14.040  0.0601 -1.0131 -1.0670
  473TIP3   OH222833   5.558   0.950   2.735 -0.3866  0.5003  0.3678
  473TIP3    H122834   5.480   0.899   2.711  1.1663 -2.0592  0.3707
  473TIP3    H222835   5.577   1.003   2.658 -1.4095  0.2150 -0.0925
  474TIP3   OH222836   6.168   1.666  17.114 -0.1734 -0.4604  0.0209
  474TIP3    H122837   6.088   1.697  17.072  0.8893  0.5645 -1.3716
  474TIP3    H222838   6.178   1.576  17.084  0.7635  0.3622 -2.4082
  475TIP3   OH222839   6.532   1.319   5.404  0.4406  0.0334 -0.5058
  475TIP3    H122840   6.622   1.291   5.393  0.8973  0.8212  0.9636
  475TIP3    H222841   6.519   1.323   5.499 -0.7335  1.1503 -0.6757
  476TIP3   OH222842   0.531   4.712   2.307  0.3628  0.0430 -0.4160
  476TIP3    H122843   0.524   4.667   2.223  0.1662 -0.6397 -0.0367
  476TIP3    H222844   0.504   4.802   2.288  0.3299 -0.1004 -1.0840
  477TIP3   OH222845   2.293   4.819  14.939 -0.2566 -0.0073 -0.3265
  477TIP3    H122846   2.336   4.768  15.009 -2.8917 -0.2219  1.2578
  477TIP3    H222847   2.363   4.875  14.905  1.1977  0.1072  2.4965
  478TIP3   OH222848   2.073   0.281  17.082  0.1198 -0.2077 -0.3891
  478TIP3    H122849   2.034   0.261  17.167 -0.4076  0.8489 -0.3704
  478TIP3    H222850   2.113   0.367  17.093  0.9262 -0.5033 -0.9282
  479TIP3   OH222851   3.404   0.158  11.234  0.4899  0.1988 -0.2696
  479TIP3    H122852   3.309   0.151  11.245  0.7382  0.0834  2.6275
  479TIP3    H222853   3.418   0.150  11.139 -2.3549  0.1958 -0.7828
  480TIP3   OH222854   1.824   6.483  14.691 -0.5565  0.2327 -0.8404
  480TIP3    H122855   1.819   6.567  14.646  1.4137  0.3315 -0.9831
  480TIP3    H222856   1.897   6.438  14.648  1.3631  0.2974  2.0713
  481TIP3   OH222857   1.033   5.365   4.418  0.5262  0.2104  0.0893
  481TIP3    H122858   1.000   5.292   4.366  0.2873  0.5099 -0.1810
  481TIP3    H222859   1.041   5.330   4.507  0.6172 -0.2047 -0.0823
  482TIP3   OH222860   1.380   3.572   1.567  0.6782  0.0077  0.2661
  482TIP3    H122861   1.399   3.567   1.661 -0.4957 -0.0653  0.5189
  482TIP3    H222862   1.285   3.560   1.561  0.7109  0.1946 -0.9217
  483TIP3   OH222863   6.300   0.967   3.282  0.4776 -0.0450  0.3406
  483TIP3    H122864   6.326   0.969   3.190 -0.5524 -0.3244  0.0271
  483TIP3    H222865   6.382   0.957   3.330  1.1762  1.4218 -0.4719
  484TIP3   OH222866   1.423   0.250  14.376  0.2207 -0.2825  0.1542
  484TIP3    H122867   1.428   0.320  14.312 -0.1453  2.2155  2.6841
  484TIP3    H222868   1.358   0.189  14.340  0.8211  0.3952 -2.2935
  485TIP3   OH222869   6.297   5.994  16.018 -0.0927  0.0812 -0.8533
  485TIP3    H122870   6.225   6.052  15.995 -1.4539 -0.7374  1.1233
  485TIP3    H222871   6.295   5.926  15.950 -1.3863 -0.0768 -0.6851
  486TIP3   OH222872   5.868   3.161  11.587  0.5681  0.1088  0.1283
  486TIP3    H122873   5.903   3.186  11.672  1.5511  1.1686 -0.5591
  486TIP3    H222874   5.944   3.142  11.533 -0.0555 -0.9758 -0.4186
  487TIP3   OH222875   3.794   3.858   2.138 -0.1951  0.1146 -0.7558
  487TIP3    H122876   3.754   3.857   2.225 -0.5483 -0.6365 -0.9190
  487TIP3    H222877   3.880   3.897   2.152 -0.5098  0.6145 -0.1850
  488TIP3   OH222878   0.695   4.120   2.622  0.1396  0.3624 -0.1138
  488TIP3    H122879   0.725   4.029   2.618 -0.1289  0.2604  0.1048
  488TIP3    H222880   0.603   4.116   2.595  0.3882  0.7075 -1.0385
  489TIP3   OH222881   5.688   0.784   0.548 -0.3718 -0.0245 -0.0945
  489TIP3    H122882   5.597   0.795   0.578 -0.7728 -1.2625 -0.7849
  489TIP3    H222883   5.739   0.781   0.629 -1.0296  0.0089  0.3367
  490TIP3   OH222884   0.246   5.542  15.007 -0.3943 -0.3067 -0.2208
  490TIP3    H122885   0.188   5.480  14.964 -3.0137  1.6128  0.2490
  490TIP3    H222886   0.227   5.532  15.101  0.4235  0.0130 -0.0106
  491TIP3   OH222887   2.646   2.570   2.859  0.2815 -0.4014 -0.4393
  491TIP3    H122888   2.585   2.534   2.795 -0.0022  1.3861 -1.2234
  491TIP3    H222889   2.680   2.493   2.905 -1.1394 -1.5683 -1.2486
  492TIP3   OH222890   3.820   1.250   4.443 -0.5759  0.0208 -0.2440
  492TIP3    H122891   3.869   1.331   4.425  1.8158 -1.1872  0.3637
  492TIP3    H222892   3.749   1.277   4.501  0.6600  1.5763  0.6366
  493TIP3   OH222893   2.192   3.180   1.858  0.1136 -0.4103  0.2423
  493TIP3    H122894   2.212   3.090   1.833 -0.5814 -0.1687 -1.3387
  493TIP3    H222895   2.173   3.224   1.775 -0.2786  1.0118  1.0485
  494TIP3   OH222896   2.864   3.237  15.089  0.0240  0.4967 -0.2570
  494TIP3    H122897   2.921   3.168  15.123 -0.1528  0.5983  0.2651
  494TIP3    H222898   2.870   3.230  14.994  0.1872 -0.0874 -0.2041
  495TIP3   OH222899   1.960   4.101  12.871 -0.1957  0.3671 -0.3603
  495TIP3    H122900   1.933   4.073  12.959 -0.6224 -0.4010 -0.7272
  495TIP3    H222901   1.918   4.185  12.859 -0.2815  0.3958  0.1031
  496TIP3   OH222902   1.077   0.607   6.038 -0.3040  0.0350  0.0095
  496TIP3    H122903   1.104   0.520   6.065  0.9940  0.5360  0.4234
  496TIP3    H222904   1.108   0.665   6.109  0.4798  1.0282 -1.1089
  497TIP3   OH222905   0.170   3.698   4.913  0.0651  0.1007  0.2856
  497TIP3    H122906   0.104   3.742   4.967  0.1445  1.0284 -0.3440
  497TIP3    H222907   0.205   3.629   4.969 -0.4786  0.4771  1.1063
  498TIP3   OH222908   2.572   0.193   0.120  0.0234 -0.6145 -0.8482
  498TIP3    H122909   2.653   0.199   0.171 -0.1837  1.8800 -0.7038
  498TIP3    H222910   2.554   0.283   0.092 -2.0091 -1.3071 -2.0010
  499TIP3   OH222911   3.791   0.297   0.400 -0.3959  0.4249  0.3221
  499TIP3    H122912   3.722   0.299   0.334 -0.2174 -0.4007  0.0938
  499TIP3    H222913   3.751   0.334   0.478 -0.6770  1.2112 -0.1857
  500TIP3   OH222914   1.545   4.386  16.874  0.2944 -0.2145  0.1381
  500TIP3    H122915   1.589   4.413  16.954  0.1836 -2.3374  0.9675
  500TIP3    H222916   1.499   4.305  16.897  1.2537 -1.5898 -2.3591
  501TIP3   OH222917   5.633   2.608   4.257  0.4796  0.3427  0.5569
  501TIP3    H122918   5.682   2.537   4.298  2.0817  0.4632 -1.0162
  501TIP3    H222919   5.699   2.658   4.208 -0.4920  3.1980  1.9133
  502TIP3   OH222920   5.191   5.342   6.296  0.0737  0.5263  0.6530
  502TIP3    H122921   5.214   5.287   6.372  1.0816  1.0656  0.7492
  502TIP3    H222922   5.183   5.430   6.332  0.3107  0.7444  0.1725
  503TIP3   OH222923   6.678   2.461  16.773 -0.3909 -0.3612 -0.4046
  503TIP3    H122924   6.626   2.381  16.766 -0.8663 -0.1115  0.2122
  503TIP3    H222925   6.769   2.431  16.762 -0.4518 -1.1852  1.1315
  504TIP3   OH222926   0.030   0.793  10.894  0.4320 -0.2431 -0.3079
  504TIP3    H122927   0.022   0.718  10.954 -0.8393  1.5047  1.8463
  504TIP3    H222928   0.109   0.839  10.924 -0.2153  0.6486  0.0601
  505TIP3   OH222929   3.433   1.653   0.334 -0.5604 -0.1679 -0.3656
  505TIP3    H122930   3.348   1.697   0.330 -1.3634 -1.5163  0.8314
  505TIP3    H222931   3.448   1.639   0.427  1.7531  1.3972 -0.4218
  506TIP3   OH222932   4.487   5.000   1.459 -1.0006 -0.2952 -0.3222
  506TIP3    H122933   4.432   4.934   1.501 -0.6809 -0.9808 -0.9521
  506TIP3    H222934   4.516   4.958   1.378  0.4174  0.0516 -0.0192
  507TIP3   OH222935   1.772   3.749   2.523 -0.0199 -0.1650 -0.1821
  507TIP3    H122936   1.851   3.744   2.578 -0.4288  1.2488  0.5914
  507TIP3    H222937   1.771   3.667   2.475  0.0022 -1.8106  2.4342
  508TIP3   OH222938   4.180   4.710  12.796 -0.8628  0.2145 -0.1277
  508TIP3    H122939   4.186   4.762  12.876  0.8804  1.3502 -0.9526
  508TIP3    H222940   4.087   4.713  12.773 -1.4151 -0.1809  1.8482
  509TIP3   OH222941   6.754   4.522  11.126  0.0341 -0.2778 -0.1775
  509TIP3    H122942   6.675   4.468  11.120 -0.2863  0.3603 -2.8509
  509TIP3    H222943   6.801   4.503  11.045  2.9781 -1.0717  1.5845
  510TIP3   OH222944   5.771   5.119   0.817 -0.2270  0.0577 -0.4730
  510TIP3    H122945   5.801   5.205   0.848  0.7592 -0.4161 -0.0758
  510TIP3    H222946   5.845   5.061   0.833 -0.6583 -0.7461 -1.3185
  511TIP3   OH222947   0.967   5.099  11.462 -0.3551 -0.3724 -0.2056
  511TIP3    H122948   1.059   5.097  11.438 -0.1789  2.3958 -0.0874
  511TIP3    H222949   0.930   5.171  11.411 -2.2309 -0.7727  0.4974
  512TIP3   OH222950   1.154   3.662   0.015  0.1249  0.4851  0.1568
  512TIP3    H122951   1.213   3.624  -0.050 -0.1967  0.3403 -0.0545
  512TIP3    H222952   1.165   3.757   0.005 -0.5676  0.4875 -0.7207
  513TIP3   OH222953   6.014   2.782  16.535  0.2077 -0.0827  0.4694
  513TIP3    H122954   6.096   2.772  16.584 -1.2919 -0.0370  3.1776
  513TIP3    H222955   5.974   2.861  16.573 -1.1676 -0.2052 -0.6655
  514TIP3   OH222956   3.504   4.921   1.273 -0.3492 -0.0372 -0.0675
  514TIP3    H122957   3.543   4.944   1.189 -1.4661 -1.6832 -1.0824
  514TIP3    H222958   3.498   4.825   1.271  0.1933 -0.1704  2.1697
  515TIP3   OH222959   0.091   0.156  16.843 -0.1421  0.5158  0.2584
  515TIP3    H122960   0.050   0.130  16.926  0.0409  0.1223  0.2246
  515TIP3    H222961   0.030   0.126  16.776 -0.0864  0.4551  0.2342
  516TIP3   OH222962   0.110   3.601   3.224  0.2288  0.0747 -0.1144
  516TIP3    H122963   0.088   3.523   3.275  0.7320 -0.4405 -0.6540
  516TIP3    H222964   0.142   3.664   3.288 -0.1843 -0.1628  0.3314
  517TIP3   OH222965   3.654   3.608   0.594  1.2825 -0.8276 -0.3431
  517TIP3    H122966   3.684   3.686   0.641  0.8658 -0.4840 -0.6418
  517TIP3    H222967   3.573   3.635   0.552  1.1503 -1.4181 -0.4745
  518TIP3   OH222968   6.659   5.614   0.640 -0.3629  0.0263 -0.3485
  518TIP3    H122969   6.623   5.551   0.702  1.7568 -0.2316  0.6761
  518TIP3    H222970   6.609   5.694   0.657 -1.0470 -0.5444  0.4116
  519TIP3   OH222971   6.055   2.352   0.014 -0.2570  0.3727  0.2028
  519TIP3    H122972   6.137   2.303   0.023 -0.0190  1.0770  2.4511
  519TIP3    H222973   6.082   2.444   0.014 -0.9858  0.5891  0.1848
  520TIP3   OH222974   3.863   4.167  12.773  0.2546 -0.4418 -0.0094
  520TIP3    H122975   3.804   4.234  12.808  0.8560  0.9240 -1.5141
  520TIP3    H222976   3.806   4.092  12.757 -0.7638  0.2652  0.1525
  521TIP3   OH222977   0.990   4.916  15.645 -0.3831 -0.7358  0.4180
  521TIP3    H122978   0.947   5.001  15.636  0.1202 -0.2134  2.4479
  521TIP3    H222979   1.054   4.914  15.575 -0.1290  0.7553  0.5748
  522TIP3   OH222980   1.698   1.817   5.963  0.1917  0.1313  0.0917
  522TIP3    H122981   1.750   1.894   5.939  0.2631 -0.3134 -1.3023
  522TIP3    H222982   1.727   1.795   6.052  3.8280 -1.1545 -1.2183
  523TIP3   OH222983   3.572   4.257   1.590 -0.1348 -0.9649  0.3376
  523TIP3    H122984   3.608   4.289   1.673  1.0117 -2.3047  0.4015
  523TIP3    H222985   3.640   4.275   1.525  0.1402 -2.3310  0.2101
  524TIP3   OH222986   4.140   6.140  16.589 -0.2546 -0.3359  0.3265
  524TIP3    H122987   4.172   6.185  16.667  1.1240 -0.1571 -0.3037
  524TIP3    H222988   4.152   6.203  16.518 -2.8785  0.0605  0.1372
  525TIP3   OH222989   3.120   2.982  12.124 -0.1511 -0.2214  0.1804
  525TIP3    H122990   3.188   2.982  12.190 -1.5029  1.5674  1.6713
  525TIP3    H222991   3.159   2.938  12.049  2.3964  0.2044  1.1810
  526TIP3   OH222992   2.231   2.579   4.578 -0.0061  0.0462 -0.1658
  526TIP3    H122993   2.239   2.652   4.639 -1.4466  0.5529 -0.5464
  526TIP3    H222994   2.155   2.601   4.523 -0.3554 -1.6410 -0.4204
  527TIP3   OH222995   0.669   5.457   2.389  0.7892 -0.6338 -0.1499
  527TIP3    H122996   0.627   5.374   2.412 -0.2677 -0.0025  0.2739
  527TIP3    H222997   0.741   5.432   2.332  0.5489 -1.8516  0.0408
  528TIP3   OH222998   3.759   6.142  16.780  0.0658  0.0017 -0.3332
  528TIP3    H122999   3.665   6.159  16.770 -0.4065 -3.0619 -2.4402
  528TIP3    H223000   3.797   6.164  16.695  1.1334  0.3546  0.2183
  529TIP3   OH223001   0.062   5.136   5.558 -0.1162  0.1648  0.3496
  529TIP3    H123002   0.025   5.223   5.544 -0.5196  0.1179  1.0759
  529TIP3    H223003   0.025   5.108   5.642  1.0874 -0.1342  0.7993
  530TIP3   OH223004   6.577   2.609  11.269 -0.0692  1.1328  0.8045
  530TIP3    H123005   6.611   2.696  11.291 -0.4493  1.8525 -1.2576
  530TIP3    H223006   6.481   2.619  11.272 -0.1177  0.8964  0.2152
  531TIP3   OH223007   3.871   1.287  15.199  0.2960  0.2199  0.1118
  531TIP3    H123008   3.923   1.283  15.279  3.6236  0.7402 -1.8238
  531TIP3    H223009   3.897   1.210  15.149 -1.1570  0.2806 -0.8108
  532TIP3   OH223010   3.414   1.290   0.014  0.3223 -0.7795 -0.1378
  532TIP3    H123011   3.492   1.346   0.005 -0.7375  0.8402  0.4191
  532TIP3    H223012   3.412   1.240  -0.068  1.4068 -0.1578 -0.5791
  533TIP3   OH223013   3.650   2.299  16.634 -0.3492  0.5248  0.4345
  533TIP3    H123014   3.687   2.388  16.634 -0.2463  0.5343 -1.7638
  533TIP3    H223015   3.578   2.304  16.696  0.2392  1.8825  1.0708
  534TIP3   OH223016   1.019   2.197  16.810  0.8493  0.7890  0.1361
  534TIP3    H123017   0.944   2.244  16.846  1.2046  0.2610  1.6200
  534TIP3    H223018   1.047   2.250  16.735  0.5898  2.3534  1.1150
  535TIP3   OH223019   6.352   5.601   1.722  0.2191  0.2679  0.0625
  535TIP3    H123020   6.278   5.662   1.723  0.5689  0.8734 -2.7847
  535TIP3    H223021   6.404   5.625   1.799 -1.2497  1.4649  0.7298
  536TIP3   OH223022   5.335   1.013  16.615  0.4610  0.3145  0.0170
  536TIP3    H123023   5.313   1.044  16.703 -0.7024 -1.0311  0.2519
  536TIP3    H223024   5.411   1.065  16.588 -0.5254  2.3177  0.9022
  537TIP3   OH223025   4.856   5.799   0.611 -0.6137  0.7388 -0.7118
  537TIP3    H123026   4.921   5.766   0.674 -1.0839  1.8538  0.3980
  537TIP3    H223027   4.841   5.725   0.552 -1.2309 -0.9116  1.3529
  538TIP3   OH223028   2.413   2.265  16.006 -0.0906 -0.2382 -0.3451
  538TIP3    H123029   2.459   2.255  16.089  2.3228 -0.1900 -1.5881
  538TIP3    H223030   2.353   2.338  16.021  1.6242  1.0101  0.8563
  539TIP3   OH223031   0.328   6.698  11.064  0.1589  0.7577 -0.5124
  539TIP3    H123032   0.284   6.733  11.141 -0.4296 -0.5514 -0.2318
  539TIP3    H223033   0.257   6.676  11.003  0.5863  1.2666 -1.2146
  540TIP3   OH223034   6.739   4.129   3.212  0.0273 -0.4541  0.0220
  540TIP3    H123035   6.725   4.223   3.200 -0.7450 -0.6985 -1.0332
  540TIP3    H223036   6.819   4.111   3.162  2.0551  0.1824  2.7796
  541TIP3   OH223037   6.705   6.469   3.719  1.1472 -0.2788 -0.3264
  541TIP3    H123038   6.681   6.385   3.758  0.2756  1.4697  3.3825
  541TIP3    H223039   6.626   6.496   3.671  0.3800 -0.3757  0.8325
  542TIP3   OH223040   4.204   0.872   1.588 -0.3729 -1.2798 -0.8279
  542TIP3    H123041   4.273   0.807   1.603  0.2059 -0.4596  0.1941
  542TIP3    H223042   4.250   0.947   1.550 -0.2643  0.0854  1.7778
  543TIP3   OH223043   3.535   2.764   5.053 -0.2725  0.4762 -0.1105
  543TIP3    H123044   3.585   2.843   5.073  0.2544  0.2787 -0.6004
  543TIP3    H223045   3.446   2.785   5.078  0.0898  0.7604  0.9799
  544TIP3   OH223046   1.476   3.062   6.085  0.0699  0.4691  0.0988
  544TIP3    H123047   1.423   3.136   6.114 -0.1585  1.4282 -2.5335
  544TIP3    H223048   1.566   3.095   6.087  0.1303  0.2874  0.4182
  545TIP3   OH223049   4.632   1.766   4.114  0.1195 -0.3074  0.3223
  545TIP3    H123050   4.577   1.816   4.053 -1.1166  1.3186  2.6153
  545TIP3    H223051   4.629   1.816   4.196  3.3012 -1.3209  1.2138
  546TIP3   OH223052   0.446   4.053   2.510  0.0551 -0.0626 -0.0720
  546TIP3    H123053   0.351   4.064   2.516  0.1567  0.4705  0.7672
  546TIP3    H223054   0.462   3.963   2.541 -0.0643  0.3277  1.1876
  547TIP3   OH223055   2.469   4.482   2.077 -1.0017 -0.5452 -0.7002
  547TIP3    H123056   2.494   4.472   2.169  0.5261 -0.3489 -1.0720
  547TIP3    H223057   2.402   4.415   2.063 -2.2433  0.2926  0.8784
  548TIP3   OH223058   6.581   4.287  12.137  0.2818  0.4993 -0.4281
  548TIP3    H123059   6.509   4.229  12.114 -0.8837  1.6573  0.2099
  548TIP3    H223060   6.631   4.239  12.203 -1.8486  0.9667  1.6639
  549TIP3   OH223061   4.424   3.966   3.004 -0.0453 -0.4612  1.1603
  549TIP3    H123062   4.468   3.929   2.928  0.1459  0.5301  0.7664
  549TIP3    H223063   4.495   3.994   3.061 -0.1469  0.6370  0.7737
  550TIP3   OH223064   3.926   0.527   4.430 -0.2869  0.0233 -0.4184
  550TIP3    H123065   3.906   0.487   4.514 -1.8771  0.2239 -0.6797
  550TIP3    H223066   4.010   0.571   4.444 -0.8029  0.5277  1.2157
  551TIP3   OH223067   1.242   4.342   6.050  0.1698  0.6105  1.0833
  551TIP3    H123068   1.312   4.363   6.112  1.5173 -0.0510 -0.1542
  551TIP3    H223069   1.172   4.306   6.105  1.2170  0.2745  2.2498
  552TIP3   OH223070   2.274   5.745   2.586 -0.1577 -0.2266  0.5721
  552TIP3    H123071   2.293   5.660   2.624 -1.2559 -1.0274 -0.5761
  552TIP3    H223072   2.213   5.786   2.647  1.0437  0.1443  1.5725
  553TIP3   OH223073   4.849   2.722   6.618 -0.5484  0.2569  0.5737
  553TIP3    H123074   4.830   2.797   6.561  3.5143  0.4246 -0.9448
  553TIP3    H223075   4.822   2.751   6.705 -2.9119  1.7684 -0.5468
  554TIP3   OH223076   3.376   3.693  16.528 -0.0978  0.5120  0.0052
  554TIP3    H123077   3.405   3.669  16.617  0.9267  0.5527 -0.3032
  554TIP3    H223078   3.433   3.643  16.470  1.6179  3.0370 -0.6681
  555TIP3   OH223079   5.992   0.151   5.882 -0.2461  0.1082  0.6535
  555TIP3    H123080   6.085   0.128   5.881  0.0890  1.0608  3.2655
  555TIP3    H223081   5.988   0.239   5.844  0.1227  0.5994  1.7285
  556TIP3   OH223082   5.128   2.335  13.435  0.0352 -0.3733 -0.2022
  556TIP3    H123083   5.051   2.392  13.431 -0.3850 -0.7836  1.2430
  556TIP3    H223084   5.139   2.317  13.529  0.1001 -2.7443 -0.6096
  557TIP3   OH223085   3.224   1.918   5.699 -0.1577 -0.5940  0.4343
  557TIP3    H123086   3.176   1.928   5.781 -0.0791  1.3073  0.3083
  557TIP3    H223087   3.157   1.894   5.635 -0.2971 -1.6083  0.9483
  558TIP3   OH223088   1.738   2.588  15.756 -0.5948  0.5157  0.1473
  558TIP3    H123089   1.657   2.603  15.804 -1.4561  1.3713 -1.4923
  558TIP3    H223090   1.724   2.505  15.711 -0.0067 -0.0086  0.8973
  559TIP3   OH223091   3.335   6.590  17.189  0.1348  0.1517  0.0232
  559TIP3    H123092   3.246   6.562  17.169 -0.1623 -0.6995  2.2279
  559TIP3    H223093   3.324   6.652  17.262  1.1244  2.8197 -1.9552
  560TIP3   OH223094   6.340   5.189   2.333 -0.5063 -0.6273  0.3877
  560TIP3    H123095   6.393   5.121   2.293 -0.0010 -0.1377  0.2107
  560TIP3    H223096   6.317   5.155   2.420 -0.1153 -0.9447  0.3658
  561TIP3   OH223097   2.770   1.093  14.287 -0.0839  0.0333  0.5920
  561TIP3    H123098   2.827   1.097  14.209 -0.3260  1.2604  0.4580
  561TIP3    H223099   2.826   1.055  14.355  0.8523  0.9889  0.3953
  562TIP3   OH223100   3.386   0.381  14.576  0.1027 -0.1103 -0.1001
  562TIP3    H123101   3.466   0.371  14.525  0.7410 -2.0757  1.1802
  562TIP3    H223102   3.363   0.474  14.568  0.5023 -0.1724 -3.3856
  563TIP3   OH223103   4.375   0.446  13.319  0.1188 -0.1560 -0.3998
  563TIP3    H123104   4.286   0.418  13.298 -1.0142  0.5235  2.8680
  563TIP3    H223105   4.377   0.538  13.292  0.5238 -0.6432 -2.1605
  564TIP3   OH223106   6.356   6.541  16.664 -0.2085  0.4941 -0.3198
  564TIP3    H123107   6.408   6.602  16.716 -2.3914  2.0062  0.2227
  564TIP3    H223108   6.267   6.550  16.699 -1.0671 -1.1359 -1.9461
  565TIP3   OH223109   4.995   2.155   2.553  0.5688 -0.4528  0.6310
  565TIP3    H123110   4.930   2.225   2.540 -0.6856 -1.4012  1.5446
  565TIP3    H223111   5.050   2.186   2.624 -0.9849 -1.0187  2.1607
  566TIP3   OH223112   4.412   1.386   4.767 -0.3724  0.0392  0.3313
  566TIP3    H123113   4.319   1.374   4.788 -0.2940  0.0845  0.6944
  566TIP3    H223114   4.428   1.479   4.781 -0.9338  0.6292 -2.3356
  567TIP3   OH223115   2.062   2.155  12.420  0.7958 -0.0375  0.0776
  567TIP3    H123116   2.035   2.139  12.329  2.9372 -1.6067 -0.3555
  567TIP3    H223117   2.013   2.090  12.471 -0.7181  1.1091  0.1668
  568TIP3   OH223118   0.241   6.746   5.426  0.4722 -0.1895  0.0434
  568TIP3    H123119   0.313   6.804   5.452 -0.9493  2.1149 -0.8687
  568TIP3    H223120   0.211   6.781   5.342 -0.5823 -2.1855 -0.4767
  569TIP3   OH223121   2.663   1.047   6.078 -0.2005 -0.1398  0.0946
  569TIP3    H123122   2.648   1.004   6.162 -1.6483 -0.6851 -0.4182
  569TIP3    H223123   2.582   1.096   6.061  0.3319  0.5017 -0.6766
  570TIP3   OH223124   5.214   4.899  16.282  0.4401  0.1446  0.3815
  570TIP3    H123125   5.190   4.931  16.195  2.6933  0.3909 -0.2187
  570TIP3    H223126   5.136   4.852  16.313 -0.1397 -0.6854 -2.1142
  571TIP3   OH223127   0.886   4.269   4.297  0.5785  0.1474  0.1977
  571TIP3    H123128   0.821   4.278   4.227  0.7747  0.3922  0.0446
  571TIP3    H223129   0.857   4.193   4.347 -0.1718  0.6211  0.4996
  572TIP3   OH223130   1.465   0.967  11.324 -0.1275  0.0629 -0.3032
  572TIP3    H123131   1.428   0.961  11.412 -0.6143  0.5208 -0.4679
  572TIP3    H223132   1.550   0.923  11.331  0.1040  0.5967  0.5441
  573TIP3   OH223133   2.159   3.283   2.135 -0.3835  0.2769 -0.1933
  573TIP3    H123134   2.167   3.295   2.040  0.9541  0.0402 -0.1217
  573TIP3    H223135   2.131   3.191   2.145  2.3722 -0.6545 -0.2957
  574TIP3   OH223136   1.023   1.315   0.913 -0.5325  0.1901 -0.4809
  574TIP3    H123137   0.980   1.362   0.984  0.5183 -0.2738  0.4923
  574TIP3    H223138   0.999   1.364   0.834 -0.9181  1.3043  0.3026
  575TIP3   OH223139   3.449   0.544  15.170 -0.1556  0.3900  0.0437
  575TIP3    H123140   3.497   0.567  15.250 -1.8572 -1.4732  1.7253
  575TIP3    H223141   3.455   0.448  15.165 -0.8419  0.3965 -1.5828
  576TIP3   OH223142   6.323   6.036   4.209  0.3728  0.0590 -0.3616
  576TIP3    H123143   6.369   5.984   4.275  1.5433 -0.3083 -1.4273
  576TIP3    H223144   6.239   6.057   4.249 -0.0097 -2.3683  0.2288
  577TIP3   OH223145   5.398   6.770   4.274  0.0943  0.2160 -0.3822
  577TIP3    H123146   5.347   6.846   4.246  1.2801  1.8897  1.7417
  577TIP3    H223147   5.451   6.747   4.198 -1.4094  0.4781 -1.5564
  578TIP3   OH223148   4.145   0.218   4.295  0.4270  0.0189  0.4992
  578TIP3    H123149   4.058   0.257   4.286  0.1995 -0.6244 -0.2025
  578TIP3    H223150   4.130   0.136   4.342  0.4590 -0.6818 -0.6523
  579TIP3   OH223151   2.248   2.735  11.489 -0.0673 -0.3923 -0.2202
  579TIP3    H123152   2.276   2.770  11.574  0.2093 -0.7458 -0.1640
  579TIP3    H223153   2.232   2.813  11.435  0.0860 -0.1735  0.0485
  580TIP3   OH223154   1.818   6.217   1.287 -0.3510 -0.4715  0.3908
  580TIP3    H123155   1.898   6.258   1.320 -1.1192 -0.1248  1.9546
  580TIP3    H223156   1.756   6.289   1.280 -0.5420 -0.7377 -0.8003
  581TIP3   OH223157   3.005   5.154   2.194 -0.1532 -0.6383 -0.4750
  581TIP3    H123158   2.991   5.062   2.218 -3.4627 -0.0694  0.2726
  581TIP3    H223159   3.099   5.160   2.175  0.1410 -4.2002 -0.8204
  582TIP3   OH223160   4.948   3.707  14.761 -0.0410 -0.3478  0.2452
  582TIP3    H123161   5.017   3.753  14.713 -0.3435 -0.6081 -0.4472
  582TIP3    H223162   4.867   3.752  14.736 -0.1731 -0.2981  0.7445
  583TIP3   OH223163   1.929   0.009   1.140 -0.1357  0.4667 -0.2218
  583TIP3    H123164   1.940   0.047   1.227 -0.4459 -0.5149  0.2736
  583TIP3    H223165   1.944  -0.085   1.153 -1.6078  0.0962 -0.9233
  584TIP3   OH223166   1.514   0.138   1.719 -0.4066 -0.0594 -0.0379
  584TIP3    H123167   1.431   0.186   1.723  0.3279  1.3510 -0.9815
  584TIP3    H223168   1.488   0.047   1.712 -1.8879  0.3331 -0.0514
  585TIP3   OH223169   4.456   2.191  16.295  0.2503  0.0633  0.2232
  585TIP3    H123170   4.445   2.098  16.276  0.9829  0.3058 -1.5714
  585TIP3    H223171   4.481   2.194  16.388  1.9231 -1.6812 -0.1086
  586TIP3   OH223172   3.732   6.183  12.195 -0.1123  0.0119  0.3409
  586TIP3    H123173   3.759   6.266  12.233 -1.0478 -0.4024  2.0122
  586TIP3    H223174   3.685   6.138  12.266 -0.5215 -1.5006 -0.8317
  587TIP3   OH223175   5.614   3.308  12.779  0.0074 -0.0873  0.3647
  587TIP3    H123176   5.622   3.401  12.758  1.3145 -0.0869  0.7658
  587TIP3    H223177   5.672   3.295  12.854  2.8851 -1.9536 -1.9500
  588TIP3   OH223178   4.088   2.904  15.986  0.3281 -0.3979 -0.2828
  588TIP3    H123179   4.101   2.844  15.913  2.5113  0.4571 -0.6836
  588TIP3    H223180   4.056   2.849  16.058  4.5826 -2.6797  0.1586
  589TIP3   OH223181   3.619   4.780   3.554  0.2143  0.0507 -0.0897
  589TIP3    H123182   3.684   4.722   3.593 -0.6766  1.0449  3.2049
  589TIP3    H223183   3.670   4.845   3.507  1.5576 -0.1911  0.9675
  590TIP3   OH223184   5.841   0.508  17.022  0.2521 -0.4506 -0.2478
  590TIP3    H123185   5.928   0.492  17.059  0.5415  0.1826 -0.6399
  590TIP3    H223186   5.781   0.464  17.082  0.6998  0.5090  0.9517
  591TIP3   OH223187   0.097   6.657  16.227 -0.0055  0.1622 -0.0650
  591TIP3    H123188   0.117   6.683  16.137 -1.3814 -0.0023 -0.4449
  591TIP3    H223189   0.043   6.579  16.218  1.4574 -1.0261  0.9810
  592TIP3   OH223190   2.804   4.306  16.730  0.4664 -0.2559 -0.4235
  592TIP3    H123191   2.832   4.292  16.640 -0.3187 -0.6867 -0.6044
  592TIP3    H223192   2.727   4.362  16.723  1.3091  1.0185  0.0823
  593TIP3   OH223193   4.944   2.635   5.147 -0.2798  0.8260  0.2250
  593TIP3    H123194   4.963   2.588   5.228  0.7784  1.0838  0.1464
  593TIP3    H223195   5.007   2.708   5.146  0.6048  0.1078 -1.4086
  594TIP3   OH223196   2.187   0.649  11.209 -0.3257 -0.2230 -0.1608
  594TIP3    H123197   2.267   0.681  11.168 -1.0331 -0.8367 -2.1321
  594TIP3    H223198   2.196   0.553  11.208 -0.2859 -0.2639  1.3601
  595TIP3   OH223199   2.282   1.004  11.351 -0.1975 -0.2006 -0.3531
  595TIP3    H123200   2.225   0.934  11.382  0.1449 -1.0581 -1.5786
  595TIP3    H223201   2.308   0.976  11.263  0.1732  1.3408 -0.7555
  596TIP3   OH223202   2.440   1.542   4.635 -0.1258  0.1755  0.0341
  596TIP3    H123203   2.379   1.562   4.564 -0.4650 -0.3218  0.1829
  596TIP3    H223204   2.525   1.575   4.604 -0.2974  0.0726 -0.5491
  597TIP3   OH223205   4.131   3.646   3.913  0.1596 -0.6384 -0.2582
  597TIP3    H123206   4.168   3.689   3.836  0.5499 -0.8356 -0.1796
  597TIP3    H223207   4.102   3.719   3.968 -0.9599 -0.5052 -0.9871
  598TIP3   OH223208   1.451   5.125  15.316 -0.1232  0.3840 -0.0752
  598TIP3    H123209   1.449   5.067  15.392 -1.7594  0.5655  0.0567
  598TIP3    H223210   1.487   5.207  15.349 -2.0915  0.9061  0.8688
  599TIP3   OH223211   5.276   0.515  13.079  0.3644 -0.7781  0.0633
  599TIP3    H123212   5.315   0.593  13.040  0.7242  0.0848  2.0603
  599TIP3    H223213   5.349   0.469  13.120 -0.5608  1.2249  4.4909
  600TIP3   OH223214   6.460   3.626   4.949  0.0407 -0.3094  0.0343
  600TIP3    H123215   6.386   3.683   4.931 -0.2134 -0.1936  1.3682
  600TIP3    H223216   6.515   3.676   5.010  1.6291 -0.0764 -1.5174
  601TIP3   OH223217   3.197   5.853   0.747 -0.2645 -0.0600  0.5484
  601TIP3    H123218   3.192   5.870   0.841  1.0658 -2.1319  1.0625
  601TIP3    H223219   3.282   5.813   0.735 -0.9940 -1.1512 -1.3246
  602TIP3   OH223220   3.691   2.028   2.201 -0.1193  0.3999  0.0443
  602TIP3    H123221   3.750   2.009   2.273 -0.4387  0.4470  0.3237
  602TIP3    H223222   3.640   2.104   2.231  0.2972  0.9260 -0.5546
  603TIP3   OH223223   1.659   4.738   2.895 -0.1402  0.0778  0.2290
  603TIP3    H123224   1.598   4.691   2.952 -0.1120  0.7041  0.7855
  603TIP3    H223225   1.731   4.677   2.881 -1.5412 -1.2597 -1.6599
  604TIP3   OH223226   2.833   2.170  13.119 -0.1383 -1.1247 -0.6577
  604TIP3    H123227   2.893   2.232  13.078  0.7669 -0.9438  0.8455
  604TIP3    H223228   2.845   2.184  13.213 -2.9770 -0.6614 -0.2677
  605TIP3   OH223229   6.388   6.406  12.697  0.3140 -0.5667  0.3731
  605TIP3    H123230   6.357   6.419  12.787 -1.4830  0.3321 -0.3148
  605TIP3    H223231   6.418   6.493  12.670  0.2945 -0.6984 -0.0768
  606TIP3   OH223232   4.815   1.455  13.112 -0.0801  0.6214  0.2484
  606TIP3    H123233   4.740   1.466  13.054  0.1167  0.6545 -0.0037
  606TIP3    H223234   4.858   1.375  13.081  0.7317  1.3093 -0.4569
  607TIP3   OH223235   5.921   5.030   0.192  0.5766  0.2897  0.5688
  607TIP3    H123236   5.896   4.962   0.254  0.4406  0.7227  0.9945
  607TIP3    H223237   5.839   5.070   0.164  0.6104 -0.1663 -0.1967
  608TIP3   OH223238   4.422   3.076  14.273  0.0808  0.6651 -0.2160
  608TIP3    H123239   4.489   3.039  14.215  0.3555  0.3408  0.3030
  608TIP3    H223240   4.453   3.055  14.361 -1.4388 -0.8258  0.0079
  609TIP3   OH223241   5.179   2.044  15.287 -0.2516  0.1247 -0.4086
  609TIP3    H123242   5.102   2.019  15.235 -0.3511 -1.3985  0.4096
  609TIP3    H223243   5.243   1.975  15.269 -0.1315 -0.2000  1.1289
  610TIP3   OH223244   1.582   1.160   2.099  0.4263 -0.0216  0.9324
  610TIP3    H123245   1.599   1.221   2.171 -2.1527  1.1127  0.6835
  610TIP3    H223246   1.506   1.197   2.054 -0.3409 -2.6915 -0.1242
  611TIP3   OH223247   3.179   0.206  13.890  0.6310  0.3361  0.0355
  611TIP3    H123248   3.086   0.188  13.898  0.6740 -0.2781 -0.7025
  611TIP3    H223249   3.207   0.232  13.978 -0.4195  1.4703  0.0620
  612TIP3   OH223250   1.109   3.072  14.753  0.0556 -0.4557 -0.3904
  612TIP3    H123251   1.189   3.122  14.772  0.1868 -0.1863 -1.5922
  612TIP3    H223252   1.087   3.095  14.663 -1.8829  0.1313  0.1915
  613TIP3   OH223253   3.201   6.547   6.143 -0.2677 -0.1763  0.2424
  613TIP3    H123254   3.154   6.579   6.066 -0.1130 -0.2500  0.1178
  613TIP3    H223255   3.155   6.587   6.217  1.4314  2.3460  0.0447
  614TIP3   OH223256   6.215   3.402  11.930  0.1887 -0.0134  0.9234
  614TIP3    H123257   6.283   3.469  11.940  0.7196 -0.4981  0.6101
  614TIP3    H223258   6.139   3.449  11.895  0.0076  0.7302  2.2482
  615TIP3   OH223259   3.347   6.454   1.119 -0.1600  0.0619  0.2230
  615TIP3    H123260   3.296   6.422   1.045  1.0360  0.2805 -0.7376
  615TIP3    H223261   3.322   6.397   1.192 -0.6151 -0.8182 -0.5999
  616TIP3   OH223262   5.062   4.342  11.998  0.2739  0.3531  0.7126
  616TIP3    H123263   5.037   4.429  11.966  0.3205  0.4062  0.8181
  616TIP3    H223264   5.157   4.346  12.006  0.2919  0.2332  0.5461
  617TIP3   OH223265   1.989   0.213  12.514 -0.4692 -0.8348 -0.2666
  617TIP3    H123266   2.058   0.158  12.549 -1.3213 -1.2988  0.7395
  617TIP3    H223267   2.011   0.223  12.421  1.2562 -0.4720  0.1420
  618TIP3   OH223268   4.633   4.012   2.122  0.2294  0.3506  0.5334
  618TIP3    H123269   4.649   3.919   2.137 -0.4195  0.2093  0.3582
  618TIP3    H223270   4.661   4.028   2.032 -0.3441  0.1622  0.3186
  619TIP3   OH223271   0.837   0.443  14.843 -0.7670  0.4911  0.3911
  619TIP3    H123272   0.765   0.385  14.867  0.4926 -0.0903  3.2705
  619TIP3    H223273   0.795   0.525  14.819 -2.4456 -0.1345  1.0195
  620TIP3   OH223274   2.901   3.581  13.428  0.1211  0.6221  0.4018
  620TIP3    H123275   2.837   3.510  13.428  0.3041  0.3007 -2.9787
  620TIP3    H223276   2.973   3.548  13.481 -1.7469  0.3442  2.9367
  621TIP3   OH223277   6.374   6.641   4.178  0.3558  0.2506 -0.3415
  621TIP3    H123278   6.293   6.631   4.128  0.5503 -1.9364 -0.3175
  621TIP3    H223279   6.406   6.729   4.155 -0.2283 -0.1546 -3.0400
  622TIP3   OH223280   2.436   5.682   0.676  0.1716  0.0989  0.0468
  622TIP3    H123281   2.460   5.635   0.756  1.3461  0.2723 -0.1907
  622TIP3    H223282   2.420   5.613   0.611  2.0404 -0.0071 -0.3435
  623TIP3   OH223283   1.411   5.404   5.601  0.0732  0.2798  0.2036
  623TIP3    H123284   1.397   5.405   5.696 -2.3916  1.1660 -0.0850
  623TIP3    H223285   1.327   5.377   5.565  1.2410 -1.0119 -1.7368
  624TIP3   OH223286   5.954   5.041  13.467 -0.4368  0.1289  0.2670
  624TIP3    H123287   5.991   5.096  13.536 -0.3985 -0.1298  0.4543
  624TIP3    H223288   5.970   4.951  13.497 -0.8109  0.0150  0.1343
  625TIP3   OH223289   3.629   5.436  14.105 -1.1784 -0.1267 -0.3932
  625TIP3    H123290   3.576   5.514  14.123  0.5293  1.6014 -2.3732
  625TIP3    H223291   3.686   5.428  14.182 -0.2734  1.5992 -0.8265
  626TIP3   OH223292   1.438   1.657   0.859  0.0099  0.2465 -0.4217
  626TIP3    H123293   1.444   1.732   0.800 -1.1260  0.0253 -0.8424
  626TIP3    H223294   1.361   1.608   0.829  1.0381 -1.4079 -0.5242
  627TIP3   OH223295   4.996   4.393  10.904  0.1653  0.5204 -0.4699
  627TIP3    H123296   5.087   4.374  10.883  0.1099 -0.2458 -0.0507
  627TIP3    H223297   4.977   4.338  10.980 -1.4839 -1.5547 -2.2455
  628TIP3   OH223298   2.763   5.398   0.217 -0.1299 -0.2306 -0.2686
  628TIP3    H123299   2.822   5.367   0.286  0.0091 -0.5569 -0.5250
  628TIP3    H223300   2.766   5.493   0.223  1.3603 -0.1888 -1.0318
  629TIP3   OH223301   5.018   1.337   5.781 -0.5146  0.5344  0.0601
  629TIP3    H123302   5.088   1.386   5.823 -1.9997  2.0521  0.8781
  629TIP3    H223303   4.954   1.403   5.754 -1.6944 -0.7898 -0.5610
  630TIP3   OH223304   3.673   6.732   2.665  0.5077 -0.4555  0.0105
  630TIP3    H123305   3.669   6.639   2.643 -0.0919 -0.6631  0.9529
  630TIP3    H223306   3.678   6.776   2.580  0.2173 -1.3172 -0.4712
  631TIP3   OH223307   0.520   4.360   4.438 -0.5753 -0.3350  0.2616
  631TIP3    H123308   0.583   4.342   4.368 -0.1153  0.1651  0.5436
  631TIP3    H223309   0.531   4.286   4.499  1.1292  0.6750  1.2848
  632TIP3   OH223310   4.492   3.564   2.160  0.0847 -0.1166 -0.0750
  632TIP3    H123311   4.465   3.546   2.250 -0.2369 -2.3666 -0.5615
  632TIP3    H223312   4.413   3.597   2.117 -0.5256 -1.6464 -0.1795
  633TIP3   OH223313   3.876   0.945   4.274 -0.3664  0.0604 -0.2802
  633TIP3    H123314   3.881   0.958   4.369  1.2220  0.9773 -0.4488
  633TIP3    H223315   3.832   0.861   4.263  0.1055 -0.4202  1.2915
  634TIP3   OH223316   0.851   3.717  16.190 -0.3337 -0.4560  0.7283
  634TIP3    H123317   0.795   3.744  16.117 -1.1500  0.1185  1.5420
  634TIP3    H223318   0.841   3.622  16.194  0.2046 -0.5668 -0.2823
  635TIP3   OH223319   5.655   1.711   5.376 -0.8191  0.1628 -0.2098
  635TIP3    H123320   5.703   1.661   5.311  0.2285  1.3484 -0.3953
  635TIP3    H223321   5.563   1.704   5.349 -0.3895  0.8336 -1.9795
  636TIP3   OH223322   6.097   5.715  13.966 -0.2229 -0.3532  0.2240
  636TIP3    H123323   6.080   5.770  13.890  0.5419 -2.5417 -1.6435
  636TIP3    H223324   6.010   5.694  14.000 -0.5850  0.4183 -0.1876
  637TIP3   OH223325   4.226   1.125   2.657  0.4757  0.6037  0.5724
  637TIP3    H123326   4.181   1.116   2.573  0.6437  0.9818  0.4394
  637TIP3    H223327   4.306   1.074   2.647  0.6714  0.9428  0.3705
  638TIP3   OH223328   1.026   1.309   0.215  0.3920  0.1563 -0.1265
  638TIP3    H123329   0.969   1.331   0.288  2.9264 -0.1951  2.1455
  638TIP3    H223330   1.025   1.213   0.212  2.5500 -0.0003  1.5556
  639TIP3   OH223331   2.700   3.211  17.201 -0.0242 -0.5696  0.1327
  639TIP3    H123332   2.762   3.156  17.154 -0.9926 -1.8145  0.2455
  639TIP3    H223333   2.677   3.161  17.279 -1.7747 -0.5302 -0.3106
  640TIP3   OH223334   3.581   2.821  11.788  0.2343  0.2010 -0.3160
  640TIP3    H123335   3.547   2.909  11.769 -1.1448 -0.3586 -0.5438
  640TIP3    H223336   3.674   2.826  11.766  0.7630  2.2950  1.9620
  641TIP3   OH223337   1.339   4.135   1.845  0.0331 -0.1347 -0.1887
  641TIP3    H123338   1.293   4.090   1.775 -0.4646 -0.2108  0.1852
  641TIP3    H223339   1.367   4.065   1.904  0.9506 -0.1284 -0.5850
  642TIP3   OH223340   2.214   1.586  13.444  0.0605  0.5394  0.2130
  642TIP3    H123341   2.181   1.582  13.534  3.8743 -0.5103  1.7307
  642TIP3    H223342   2.294   1.534  13.445  0.4439  0.7444 -3.7737
  643TIP3   OH223343   3.185   6.350   0.926 -0.0387 -0.1940 -0.1908
  643TIP3    H123344   3.206   6.388   0.841  0.7320 -0.9013 -0.3293
  643TIP3    H223345   3.145   6.265   0.905 -1.1670  0.2355  0.1279
  644TIP3   OH223346   5.881   2.724   4.833 -0.8362  0.1477  0.1506
  644TIP3    H123347   5.858   2.793   4.895 -2.0973  0.5043 -0.6734
  644TIP3    H223348   5.811   2.660   4.842 -0.9276  0.1087 -0.7421
  645TIP3   OH223349   0.487   2.423   5.810 -0.0017 -0.4599  0.8959
  645TIP3    H123350   0.445   2.339   5.795  0.6494 -0.5027 -0.9782
  645TIP3    H223351   0.573   2.414   5.768  0.2725  0.9679  1.1059
  646TIP3   OH223352   4.327   2.270   4.183  0.4559  0.5934 -0.4413
  646TIP3    H123353   4.420   2.245   4.181  0.3606  0.2982 -1.6881
  646TIP3    H223354   4.306   2.274   4.276  1.0424 -1.8610 -0.1371
  647TIP3   OH223355   6.529   5.320   2.594  0.2767 -0.6029 -0.0883
  647TIP3    H123356   6.440   5.354   2.607  0.2471 -0.4261 -0.7218
  647TIP3    H223357   6.570   5.383   2.535  0.7837 -0.7565  0.0929
  648TIP3   OH223358   0.305   0.195   2.439 -0.0960  0.0780  0.3525
  648TIP3    H123359   0.389   0.203   2.392 -0.3016  0.6357  0.0811
  648TIP3    H223360   0.315   0.251   2.516 -0.0084 -0.3150  0.6319
  649TIP3   OH223361   4.488   1.203   2.232 -0.0109 -0.4047 -0.4574
  649TIP3    H123362   4.540   1.281   2.249  1.1654 -1.6998  2.6658
  649TIP3    H223363   4.411   1.235   2.184  1.1511  2.3606 -0.6601
  650TIP3   OH223364   6.421   3.111   5.465 -0.0345  0.1952  0.1985
  650TIP3    H123365   6.379   3.025   5.462 -0.8802  0.4705  2.3193
  650TIP3    H223366   6.515   3.093   5.467 -0.2120 -0.6842  0.6915
  651TIP3   OH223367   3.305   3.078   6.325 -0.6588 -0.0725 -0.0289
  651TIP3    H123368   3.395   3.104   6.344 -0.4546 -0.6733 -0.1507
  651TIP3    H223369   3.259   3.090   6.408 -0.8588  1.8062 -0.3757
  652TIP3   OH223370   5.690   4.816   3.359  0.0970  0.5538  0.0150
  652TIP3    H123371   5.708   4.904   3.390 -1.3376  0.3328  1.6620
  652TIP3    H223372   5.744   4.759   3.415 -0.4447  0.2970  0.2869
  653TIP3   OH223373   1.289   5.495   6.303  0.6383  0.1789  0.2440
  653TIP3    H123374   1.196   5.489   6.326  0.1812 -0.9804 -1.6882
  653TIP3    H223375   1.320   5.405   6.305  1.7569  0.5701  0.9426
  654TIP3   OH223376   6.146   2.990   1.664  0.4119  0.0680 -0.2986
  654TIP3    H123377   6.210   3.059   1.680 -0.2990  1.2669 -2.2433
  654TIP3    H223378   6.141   2.941   1.746  3.1184  0.4847  0.1868
  655TIP3   OH223379   4.035   4.333   1.061 -0.1610  0.1279  0.1337
  655TIP3    H123380   4.109   4.359   1.007  0.2669  1.6309  1.3642
  655TIP3    H223381   4.067   4.261   1.114 -0.0135 -0.1230 -0.2917
  656TIP3   OH223382   4.553   4.441  15.354 -0.1710 -0.8294 -0.0225
  656TIP3    H123383   4.555   4.365  15.296  0.0984  0.1576 -1.3675
  656TIP3    H223384   4.462   4.469  15.354  0.2470  0.9513 -2.5107
  657TIP3   OH223385   1.930   4.748  15.192 -0.5137  0.3266 -0.0118
  657TIP3    H123386   1.946   4.840  15.173 -2.7751  0.8047  0.1465
  657TIP3    H223387   1.838   4.743  15.216 -0.3256 -1.9025  0.5586
  658TIP3   OH223388   1.595   5.175   4.207 -0.1811 -0.1632  0.2413
  658TIP3    H123389   1.582   5.083   4.229  2.4648 -0.9795 -1.0723
  658TIP3    H223390   1.595   5.221   4.292 -0.8324 -1.4589  0.9682
  659TIP3   OH223391   6.086   4.170   5.872  0.7051 -0.7012  0.0184
  659TIP3    H123392   6.099   4.265   5.868  1.5679 -0.8435 -1.1034
  659TIP3    H223393   6.174   4.134   5.871  0.3739 -1.5256 -0.0004
  660TIP3   OH223394   6.449   2.105  16.830  0.2723  0.4570 -0.8656
  660TIP3    H123395   6.393   2.029  16.844  0.9210  0.2383  0.8698
  660TIP3    H223396   6.389   2.179  16.828 -0.1302  0.2129  0.8215
  661TIP3   OH223397   3.155   5.115   2.751  0.1740  0.4368  0.3382
  661TIP3    H123398   3.155   5.211   2.757  1.2474  0.4673  0.0200
  661TIP3    H223399   3.203   5.095   2.671 -0.8696 -0.3593 -0.1120
  662TIP3   OH223400   3.559   2.579  16.482 -0.0376 -0.0653  0.6380
  662TIP3    H123401   3.533   2.585  16.390  0.4400  0.6716  0.5452
  662TIP3    H223402   3.643   2.534  16.480  0.5699  1.0172  0.5868
  663TIP3   OH223403   4.518   5.879   0.034  0.1200 -0.3609  0.5490
  663TIP3    H123404   4.592   5.824   0.009  1.2602  1.5305 -0.4341
  663TIP3    H223405   4.547   5.968   0.016 -2.7263  0.4187 -0.7431
  664TIP3   OH223406   3.374   5.521  14.786  0.0815  0.2934  0.5259
  664TIP3    H123407   3.422   5.603  14.793 -0.4851  0.6978 -0.2455
  664TIP3    H223408   3.297   5.542  14.733 -0.7849 -0.4120  1.4490
  665TIP3   OH223409   5.775   6.081  11.967 -0.2451 -0.0408  0.4799
  665TIP3    H123410   5.680   6.081  11.956 -0.5052  0.3853  2.3066
  665TIP3    H223411   5.796   5.990  11.991 -0.2532 -0.0280  0.5359
  666TIP3   OH223412   6.170   0.614  14.146  0.6688  0.3335 -0.2060
  666TIP3    H123413   6.147   0.544  14.207  1.5987  0.0897 -0.1198
  666TIP3    H223414   6.150   0.694  14.195  0.8434  0.1371  0.1983
  667TIP3   OH223415   3.064   1.249   4.605  0.0364  0.8556 -0.5621
  667TIP3    H123416   3.046   1.308   4.679  0.8804 -0.1256  0.4650
  667TIP3    H223417   3.078   1.308   4.531 -0.6812  1.8775  0.0796
  668TIP3   OH223418   0.602   2.224  16.195  0.5632  0.5027 -0.2088
  668TIP3    H123419   0.545   2.152  16.224 -1.3968  2.1944  0.3536
  668TIP3    H223420   0.619   2.275  16.274  1.4429  1.0020 -0.7009
  669TIP3   OH223421   3.513   3.848   2.186 -0.2178 -0.1680 -0.3813
  669TIP3    H123422   3.464   3.798   2.120 -1.1707 -0.2854  0.4066
  669TIP3    H223423   3.515   3.937   2.151 -0.0139 -0.3876 -0.9525
  670TIP3   OH223424   1.082   0.875   2.116  0.2801  0.1718 -0.4423
  670TIP3    H123425   1.146   0.805   2.126  0.7743  0.3220 -2.1682
  670TIP3    H223426   1.087   0.924   2.198  1.0271 -0.9077  0.1816
  671TIP3   OH223427   5.442   1.375  14.558  0.0897 -0.1767  0.9293
  671TIP3    H123428   5.489   1.390  14.475 -0.5121 -1.5146  0.3101
  671TIP3    H223429   5.455   1.455  14.608  0.2736  0.7742 -0.5660
  672TIP3   OH223430   5.273   2.602   3.610 -0.1874  0.4348 -0.2158
  672TIP3    H123431   5.189   2.645   3.590  1.5450  3.2674 -2.0936
  672TIP3    H223432   5.284   2.615   3.704 -0.9392  1.8751 -0.2935
  673TIP3   OH223433   1.987   1.847   3.120 -0.0745 -0.3813 -0.7256
  673TIP3    H123434   1.961   1.761   3.087  0.9918 -0.8773 -0.3169
  673TIP3    H223435   2.064   1.870   3.067  0.6856 -0.4746  0.3134
  674TIP3   OH223436   1.606   0.295  16.327  0.6318  0.6176 -0.4332
  674TIP3    H123437   1.590   0.297  16.233 -1.6062  0.9946 -0.1164
  674TIP3    H223438   1.535   0.347  16.364 -0.1023 -1.6150  1.6093
  675TIP3   OH223439   4.206   5.814  13.994  0.3442  0.4564 -0.7211
  675TIP3    H123440   4.212   5.728  13.952  0.1896  0.5759 -0.9879
  675TIP3    H223441   4.199   5.795  14.087  0.9183  0.1933 -0.7233
  676TIP3   OH223442   5.039   0.090   5.655 -0.2398 -0.3849  0.2930
  676TIP3    H123443   4.967   0.116   5.597 -1.1854 -0.3376  1.4486
  676TIP3    H223444   4.996   0.057   5.734  0.9984  0.9777  1.6004
  677TIP3   OH223445   2.266   1.501  15.711 -0.2702  0.8331  0.0451
  677TIP3    H123446   2.171   1.501  15.702 -0.7114  0.5025  3.5238
  677TIP3    H223447   2.284   1.439  15.782  2.6165  0.4801 -0.8484
  678TIP3   OH223448   2.083   1.613  17.076  0.0399  0.4732 -0.1145
  678TIP3    H123449   2.037   1.641  17.155 -1.2565  1.3496 -1.1433
  678TIP3    H223450   2.108   1.694  17.032  1.1628 -0.0044 -0.4016
  679TIP3   OH223451   5.887   1.540   1.224  0.5266 -0.2782 -0.3883
  679TIP3    H123452   5.897   1.446   1.239  0.9488 -0.4030 -1.3868
  679TIP3    H223453   5.976   1.575   1.230  0.3509  0.0989  0.1649
  680TIP3   OH223454   0.638   4.697  16.782  0.2000  0.3085 -0.3220
  680TIP3    H123455   0.724   4.708  16.740  0.4908  2.8769  0.7931
  680TIP3    H223456   0.597   4.783  16.775 -1.3998 -0.3000  1.0741
  681TIP3   OH223457   6.038   4.836   5.310 -0.2503 -0.8712  0.3995
  681TIP3    H123458   6.084   4.853   5.228  0.1682  1.4042  1.0242
  681TIP3    H223459   6.057   4.744   5.330  2.0428 -0.6824 -0.5862
  682TIP3   OH223460   0.597   0.479   4.617 -1.0104 -0.2997  0.1263
  682TIP3    H123461   0.667   0.481   4.552 -1.2806 -0.5782 -0.1784
  682TIP3    H223462   0.612   0.557   4.672 -1.2577  0.3876 -0.7665
  683TIP3   OH223463   0.737   0.080  13.476  0.0325 -0.4607  0.6508
  683TIP3    H123464   0.660   0.119  13.518 -0.5012 -1.6690  0.8468
  683TIP3    H223465   0.710   0.067  13.385 -0.0419 -0.9582  0.7381
  684TIP3   OH223466   2.821   4.364  16.134  0.1787  0.0818 -0.2006
  684TIP3    H123467   2.746   4.305  16.139 -2.4965  3.0919 -1.0477
  684TIP3    H223468   2.793   4.442  16.183  2.6027  1.4935 -0.9085
  685TIP3   OH223469   4.597   0.364  11.456 -0.0951 -0.2875  0.2584
  685TIP3    H123470   4.682   0.321  11.457  0.8580  1.5121  1.2042
  685TIP3    H223471   4.563   0.352  11.544 -0.2778  0.0286  0.2310
  686TIP3   OH223472   6.325   6.052   2.353  0.1435 -0.5796 -0.0053
  686TIP3    H123473   6.376   6.132   2.366  0.4986 -0.8370  0.1903
  686TIP3    H223474   6.388   5.989   2.319  0.3165 -1.3550  1.6540
  687TIP3   OH223475   4.300   4.782  12.017 -0.2979  0.5890 -0.2828
  687TIP3    H123476   4.366   4.840  11.977 -0.9198  0.5381 -1.4347
  687TIP3    H223477   4.351   4.711  12.056  0.3915  1.1168 -0.2118
  688TIP3   OH223478   3.617   2.248   0.121  0.4533 -0.1236  0.2257
  688TIP3    H123479   3.543   2.193   0.144  1.2316 -0.5388  1.8359
  688TIP3    H223480   3.683   2.231   0.189  0.1710  3.8774  1.7767
  689TIP3   OH223481   4.085   4.813  13.391 -0.1453 -0.2284  0.0983
  689TIP3    H123482   4.016   4.854  13.339 -0.4043 -1.2277 -0.3835
  689TIP3    H223483   4.064   4.835  13.481 -0.6400  0.1402 -0.1036
  690TIP3   OH223484   2.992   6.746  13.157 -0.2649 -0.3122  0.0728
  690TIP3    H123485   3.079   6.782  13.177 -0.0437 -0.6234 -0.3154
  690TIP3    H223486   3.010   6.663  13.113 -0.6997  0.4704 -1.6780
  691TIP3   OH223487   2.843   4.602  13.195  0.0576  0.1274  0.3119
  691TIP3    H123488   2.876   4.512  13.194  1.7560  0.6998  1.1059
  691TIP3    H223489   2.839   4.627  13.103 -0.1749 -0.6635  0.0937
  692TIP3   OH223490   2.409   1.567  14.517 -0.1005  0.5192 -0.3892
  692TIP3    H123491   2.319   1.582  14.486 -0.3104 -0.3025 -0.1919
  692TIP3    H223492   2.452   1.652  14.506 -0.7315  0.7695 -1.0555
  693TIP3   OH223493   4.040   1.033   2.334 -0.4846 -0.2353 -0.5710
  693TIP3    H123494   4.094   1.112   2.341 -0.0448 -0.6616  1.6409
  693TIP3    H223495   4.060   0.998   2.247 -0.0887  1.6456 -1.2766
  694TIP3   OH223496   4.279   3.123   4.460  0.6495 -0.3293  0.5828
  694TIP3    H123497   4.253   3.188   4.525  1.6202  1.6672 -0.9266
  694TIP3    H223498   4.196   3.091   4.424  0.0852  2.4973 -0.8953
  695TIP3   OH223499   5.514   6.129   5.532 -0.4658  0.0341  0.9320
  695TIP3    H123500   5.571   6.053   5.522 -0.4114 -0.4868  3.9981
  695TIP3    H223501   5.451   6.122   5.461  2.2124 -0.2940 -1.5618
  696TIP3   OH223502   1.096   1.704   1.706  0.4298 -0.0763  0.1705
  696TIP3    H123503   1.165   1.751   1.753 -0.2513 -1.1563  2.4352
  696TIP3    H223504   1.027   1.768   1.694  0.8646  0.3848  0.0841
  697TIP3   OH223505   6.694   4.151   1.241  0.2532 -0.0311  0.4527
  697TIP3    H123506   6.604   4.178   1.218 -0.5135 -0.7039  2.4933
  697TIP3    H223507   6.744   4.233   1.242 -0.8085  0.6349  1.2281
  698TIP3   OH223508   2.050   2.980  11.026 -0.1871 -0.4691  0.6137
  698TIP3    H123509   2.121   2.924  10.994  0.6531  0.0648  1.4628
  698TIP3    H223510   2.057   3.060  10.974  1.3569  0.5117  2.1857
  699TIP3   OH223511   6.558   5.973  16.696  0.5536 -0.5420 -0.1026
  699TIP3    H123512   6.507   5.928  16.764  1.5540 -0.5771  0.6453
  699TIP3    H223513   6.536   5.926  16.616  0.8030 -1.7604  0.5044
  700TIP3   OH223514   3.395   1.569  15.779  0.3281 -0.0427 -0.3888
  700TIP3    H123515   3.332   1.640  15.779 -1.4100 -1.5087 -1.5079
  700TIP3    H223516   3.427   1.565  15.869  1.1200  2.6160 -0.4601
  701TIP3   OH223517   3.290   0.676  10.885 -0.1699 -0.2226  0.0732
  701TIP3    H123518   3.309   0.628  10.805 -0.4948  0.9705 -0.7522
  701TIP3    H223519   3.301   0.612  10.955  2.8497 -0.6699 -0.6498
  702TIP3   OH223520   4.167   0.523  12.948  0.0744 -0.0282  0.0982
  702TIP3    H123521   4.122   0.531  13.033 -0.6290 -1.4555 -0.1113
  702TIP3    H223522   4.218   0.604  12.941 -0.4001  0.4435  1.5586
  703TIP3   OH223523   6.583   2.872  12.563  0.0144  0.3740  0.7591
  703TIP3    H123524   6.568   2.778  12.557  1.8810  0.0477  0.6492
  703TIP3    H223525   6.498   2.908  12.590 -1.2984 -1.0798 -1.1855
  704TIP3   OH223526   6.247   5.971   5.862  0.4636  0.4690  0.0018
  704TIP3    H123527   6.241   6.057   5.820 -1.5726  1.2812  1.7579
  704TIP3    H223528   6.321   5.978   5.922  0.6810  0.7810 -0.3027
  705TIP3   OH223529   3.702   3.057  14.276  0.2074 -0.2963  0.1114
  705TIP3    H123530   3.648   3.062  14.197  0.7744 -0.3979 -0.2844
  705TIP3    H223531   3.791   3.072  14.245  0.6359 -1.9254  0.4891
  706TIP3   OH223532   0.602   4.264  16.730 -0.2258 -0.3318 -0.2399
  706TIP3    H123533   0.524   4.210  16.742  0.9763 -2.5936 -1.8308
  706TIP3    H223534   0.665   4.230  16.792 -0.6188  1.9887  1.5830
  707TIP3   OH223535   3.920   3.087  16.624 -0.4779  0.3535  0.4196
  707TIP3    H123536   3.935   3.146  16.550  0.2624 -1.9929 -1.4211
  707TIP3    H223537   3.991   3.107  16.686  0.7652  0.2833 -0.9306
  708TIP3   OH223538   3.931   3.940  13.039 -0.1168 -0.2118 -0.2315
  708TIP3    H123539   3.842   3.908  13.054 -0.8883  0.9506 -1.8910
  708TIP3    H223540   3.920   4.035  13.026  1.0313 -0.3203 -2.5064
  709TIP3   OH223541   1.356   5.732  15.105  0.6076  0.3630 -0.3672
  709TIP3    H123542   1.362   5.646  15.146 -0.3117  0.4135 -0.1127
  709TIP3    H223543   1.443   5.770  15.116  1.1564 -0.7060 -0.8851
  710TIP3   OH223544   4.980   5.830  11.458  0.2731 -0.2861  0.0917
  710TIP3    H123545   4.975   5.820  11.553  0.3159  0.4480  0.1820
  710TIP3    H223546   4.966   5.924  11.444 -0.5165 -0.5139 -0.6863
  711TIP3   OH223547   2.513   3.509  14.988  0.1932  0.4841 -0.3034
  711TIP3    H123548   2.446   3.446  14.961 -0.2038  0.4676  0.6993
  711TIP3    H223549   2.492   3.529  15.079  1.1047  1.0657 -0.2138
  712TIP3   OH223550   2.417   5.652  12.082  0.5070 -0.3350  0.0759
  712TIP3    H123551   2.434   5.725  12.143 -1.2559  0.8419 -0.7690
  712TIP3    H223552   2.377   5.693  12.006  0.3075 -2.1133 -0.8293
  713TIP3   OH223553   4.680   5.530  12.560 -0.7135  0.7506  0.2459
  713TIP3    H123554   4.666   5.473  12.635  0.8943  0.9025  0.6906
  713TIP3    H223555   4.720   5.609  12.597 -3.1562  2.3750 -0.2944
  714TIP3   OH223556   1.956   0.532   4.602  0.3388  0.6727  0.3432
  714TIP3    H123557   1.867   0.515   4.572 -0.4960  2.7071  1.4853
  714TIP3    H223558   2.008   0.463   4.561 -1.7248 -0.5441 -0.4059
  715TIP3   OH223559   2.490   4.859  11.598 -0.0229 -0.4982 -0.1976
  715TIP3    H123560   2.509   4.785  11.655 -0.5860 -1.6800 -1.4954
  715TIP3    H223561   2.570   4.870  11.545  0.9343  1.2974  1.4528
  716TIP3   OH223562   0.843   0.933  11.984  1.0848  0.0473  0.0086
  716TIP3    H123563   0.755   0.941  12.021  0.9370 -0.5270 -0.1991
  716TIP3    H223564   0.859   1.017  11.942 -0.1971 -0.4990 -1.6964
  717TIP3   OH223565   2.268   0.940   5.534 -0.2344  0.1337  0.4962
  717TIP3    H123566   2.262   1.012   5.472  0.5174 -0.7635 -0.6747
  717TIP3    H223567   2.352   0.953   5.579 -0.4204  0.3553  0.7863
  718TIP3   OH223568   4.317   5.060  15.358  0.0484 -0.2128 -0.4104
  718TIP3    H123569   4.288   5.023  15.442  0.3623 -0.0528 -0.2299
  718TIP3    H223570   4.238   5.101  15.322  0.0245  0.1522  0.0425
  719TIP3   OH223571   0.127   4.976   0.797 -0.1557 -0.0506  0.3993
  719TIP3    H123572   0.200   5.012   0.747 -0.7593 -0.1158 -0.5586
  719TIP3    H223573   0.132   4.882   0.783  0.6762 -0.2513  1.8776
  720TIP3   OH223574   2.454   0.025  13.747 -0.1600 -0.0656  0.4295
  720TIP3    H123575   2.417   0.040  13.660 -1.4758  1.2762  1.1798
  720TIP3    H223576   2.399  -0.043  13.786  1.4734 -1.9471 -0.3483
  721TIP3   OH223577   3.194   2.551   1.826 -0.0832 -0.1564 -0.7131
  721TIP3    H123578   3.225   2.585   1.910  0.3491 -0.2430 -0.8365
  721TIP3    H223579   3.261   2.577   1.763 -0.3819 -0.1303 -1.0273
  722TIP3   OH223580   4.471   3.732  15.945  0.0147  0.7827 -0.1177
  722TIP3    H123581   4.444   3.760  15.857  1.3711  0.6306 -0.6015
  722TIP3    H223582   4.563   3.708  15.935  0.0869  0.4282  1.2798
  723TIP3   OH223583   5.676   1.612   1.088 -0.1353 -0.4157 -0.3457
  723TIP3    H123584   5.766   1.582   1.102  0.7244  1.5345 -1.3993
  723TIP3    H223585   5.648   1.567   1.008  0.4840  0.1388 -0.8872
  724TIP3   OH223586   6.494   4.813   3.645 -1.1417  0.1027  0.1500
  724TIP3    H123587   6.535   4.729   3.668 -0.1746  0.8123  1.1603
  724TIP3    H223588   6.553   4.878   3.682 -0.7990  1.3111 -2.3006
  725TIP3   OH223589   0.861   1.461   0.375 -0.4298 -0.1446 -0.3379
  725TIP3    H123590   0.814   1.425   0.299 -0.1190 -0.3463 -0.4361
  725TIP3    H223591   0.797   1.518   0.417 -0.3903  0.5481 -1.1683
  726TIP3   OH223592   4.011   4.204  11.330 -0.3480 -0.3050 -0.0285
  726TIP3    H123593   3.928   4.220  11.285  0.1535  4.6848  0.2320
  726TIP3    H223594   4.076   4.199  11.259 -0.3299  1.0375 -0.1318
  727TIP3   OH223595   4.934   4.322  14.652 -0.1951 -0.3718  0.1929
  727TIP3    H123596   5.008   4.269  14.620  0.0939 -1.4501  2.4445
  727TIP3    H223597   4.869   4.317  14.582  1.9257  0.8709 -2.0051
  728TIP3   OH223598   0.768   3.419  16.826  0.4830  0.0769  0.6807
  728TIP3    H123599   0.678   3.422  16.859  0.8796 -0.8649  1.9271
  728TIP3    H223600   0.772   3.489  16.762 -1.4696 -0.5840 -0.2508
  729TIP3   OH223601   5.637   6.246   1.780 -0.4805  0.1387 -0.5352
  729TIP3    H123602   5.715   6.226   1.727  0.8725  1.2183  0.9551
  729TIP3    H223603   5.604   6.160   1.807  1.3521 -0.3462  0.3561
  730TIP3   OH223604   1.302   6.436  12.096 -0.4208 -0.7440 -0.2592
  730TIP3    H123605   1.352   6.356  12.078 -0.7764 -1.0932  0.2531
  730TIP3    H223606   1.231   6.407  12.154 -0.0523  0.0968  0.6515
  731TIP3   OH223607   1.242   5.071   0.676  0.1273 -0.0334 -0.0276
  731TIP3    H123608   1.169   5.045   0.620 -0.0124 -0.0183  0.1456
  731TIP3    H223609   1.317   5.024   0.641 -0.0114 -0.2259 -0.0685
  732TIP3   OH223610   3.343   2.840   1.019  0.4087 -0.1275 -0.3985
  732TIP3    H123611   3.313   2.800   0.937 -2.6326  1.2792 -0.0770
  732TIP3    H223612   3.364   2.766   1.076  1.0816 -1.1347 -1.8757
  733TIP3   OH223613   6.138   6.037  11.844 -0.4206 -0.1165 -0.0114
  733TIP3    H123614   6.081   6.023  11.919 -0.2304 -0.6107  0.0434
  733TIP3    H223615   6.217   6.076  11.882  0.5387 -2.2974  0.3668
  734TIP3   OH223616   4.222   2.105  16.792 -1.0708 -0.1050 -0.0880
  734TIP3    H123617   4.269   2.022  16.791  1.4033  1.2081 -0.8357
  734TIP3    H223618   4.214   2.126  16.885 -0.6394 -0.6122  0.0705
  735TIP3   OH223619   4.152   3.912  16.375  0.3080  0.1559  0.3739
  735TIP3    H123620   4.218   3.938  16.311  0.8577 -0.7744  0.5464
  735TIP3    H223621   4.110   3.835  16.336 -0.7560  0.7993  0.2166
  736TIP3   OH223622   2.898   1.830  11.135 -0.6968  0.8883  0.1719
  736TIP3    H123623   2.950   1.895  11.183  0.0322 -0.3083  1.0901
  736TIP3    H223624   2.922   1.747  11.176 -1.5753  0.0369 -0.9870
  737TIP3   OH223625   0.956   5.305   5.524  0.4234  0.6623 -0.9422
  737TIP3    H123626   0.950   5.329   5.431  0.3102 -0.2711 -1.1890
  737TIP3    H223627   0.957   5.388   5.570  0.9593  1.1514 -1.8111
  738TIP3   OH223628   1.826   1.182   4.713 -0.1115 -0.0672  0.0994
  738TIP3    H123629   1.920   1.177   4.692 -0.4233 -2.1081 -1.0633
  738TIP3    H223630   1.789   1.235   4.642  0.1914  1.1796  0.8352
  739TIP3   OH223631   2.533   4.103  12.981  0.3167 -0.3245  0.0723
  739TIP3    H123632   2.492   4.169  13.037 -0.1499 -1.4206  1.0948
  739TIP3    H223633   2.480   4.102  12.902  0.4925  0.7034 -0.0605
  740TIP3   OH223634   6.057   0.318  10.884 -0.4426  0.1331 -0.3990
  740TIP3    H123635   6.001   0.257  10.836 -1.3584  0.1342  0.6072
  740TIP3    H223636   6.096   0.374  10.817  0.0226 -1.2307 -1.2897
  741TIP3   OH223637   0.535   0.044   4.248  0.1071 -0.2349 -0.1244
  741TIP3    H123638   0.519   0.138   4.258  0.6889  0.0876 -1.8860
  741TIP3    H223639   0.608   0.025   4.307 -0.6773  0.1749  1.0201
  742TIP3   OH223640   3.008   4.412   4.732  0.1559 -0.2056  0.4337
  742TIP3    H123641   2.981   4.337   4.785 -2.8194 -0.0086 -0.6152
  742TIP3    H223642   2.928   4.441   4.689  1.5623  2.4898 -0.6085
  743TIP3   OH223643   3.862   1.083   4.044 -0.9575  0.2401  0.1242
  743TIP3    H123644   3.873   1.041   4.129 -1.7844  0.0694  0.1510
  743TIP3    H223645   3.951   1.098   4.013 -0.6132 -1.9651 -0.1081
  744TIP3   OH223646   6.431   3.889  12.180  0.2721  0.1817 -0.1507
  744TIP3    H123647   6.475   3.818  12.227  1.1504  0.5923 -0.3466
  744TIP3    H223648   6.388   3.940  12.249  2.4789  1.4409  0.3965
  745TIP3   OH223649   6.559   4.800  13.739  0.3296  0.0987 -0.1411
  745TIP3    H123650   6.493   4.841  13.795 -1.3644 -1.3163 -1.0263
  745TIP3    H223651   6.595   4.729  13.792  0.8423  0.5808  0.1721
  746TIP3   OH223652   6.483   2.966   2.172 -0.1727 -0.0398 -0.2248
  746TIP3    H123653   6.546   2.928   2.233 -0.7721 -0.1549  0.3372
  746TIP3    H223654   6.509   3.058   2.164  0.5451 -0.2737 -0.6315
  747TIP3   OH223655   3.666   3.173   4.113 -0.2165 -0.2929  0.4326
  747TIP3    H123656   3.724   3.115   4.162  0.2917 -0.0059  0.1830
  747TIP3    H223657   3.699   3.261   4.132 -0.0608 -0.1708 -0.3470
  748TIP3   OH223658   6.364   1.179   2.634 -0.5495  1.0020  0.4063
  748TIP3    H123659   6.382   1.135   2.717  1.9533  0.7350 -0.1991
  748TIP3    H223660   6.332   1.266   2.660 -0.3388  0.7304  1.6444
  749TIP3   OH223661   4.003   6.573  15.499 -0.4447  0.2598 -0.0420
  749TIP3    H123662   3.911   6.575  15.473 -0.6114 -1.3413  0.3353
  749TIP3    H223663   4.000   6.557  15.593  0.2254  0.7208  0.0611
  750TIP3   OH223664   4.208   6.185  15.416 -0.0829 -0.0185  0.8735
  750TIP3    H123665   4.223   6.279  15.403 -2.1995  0.1485 -0.9277
  750TIP3    H223666   4.115   6.173  15.396  0.1288 -2.5039  1.1285
  751TIP3   OH223667   0.758   5.684   4.705  0.4686  0.3054  0.1761
  751TIP3    H123668   0.796   5.748   4.644 -0.3522 -0.6874 -1.4428
  751TIP3    H223669   0.668   5.715   4.717 -0.0043 -0.6407 -0.8012
  752TIP3   OH223670   0.352   0.621   6.544  0.2629 -0.2006  0.3215
  752TIP3    H123671   0.440   0.586   6.527  0.0218 -0.6245 -0.0529
  752TIP3    H223672   0.293   0.547   6.530 -0.2023  0.2151  0.0608
  753TIP3   OH223673   5.956   3.284  13.227 -0.0999 -0.1062 -0.1978
  753TIP3    H123674   5.961   3.190  13.247  0.6162  0.1835  1.0862
  753TIP3    H223675   5.912   3.322  13.303  0.6787  0.7510 -0.1581
  754TIP3   OH223676   2.214   5.768  10.755  0.2584  0.0443 -0.1350
  754TIP3    H123677   2.185   5.795  10.668 -0.9635  0.0427  0.2675
  754TIP3    H223678   2.162   5.820  10.816  0.1646 -0.9063  0.6128
  755TIP3   OH223679   1.902   2.187  15.503 -0.0487 -0.0537  0.0854
  755TIP3    H123680   1.927   2.241  15.578 -0.5980 -0.1769  0.3614
  755TIP3    H223681   1.812   2.213  15.483  0.4501  0.7447 -1.2123
  756TIP3   OH223682   6.699   3.943   1.428  0.2600 -0.2127 -0.3862
  756TIP3    H123683   6.693   4.011   1.361 -0.9673 -0.4773 -0.5534
  756TIP3    H223684   6.632   3.965   1.493  1.4554  0.0688  0.8083
  757TIP3   OH223685   6.209   2.400  11.037 -0.2254  0.2825 -1.1181
  757TIP3    H123686   6.121   2.410  11.001 -0.4876  0.6289 -0.4097
  757TIP3    H223687   6.267   2.425  10.965 -0.7406  1.2996 -1.2087
  758TIP3   OH223688   4.083   0.864  14.151  0.1956 -0.4823  0.8429
  758TIP3    H123689   4.073   0.888  14.059  0.1074  0.4811  1.0909
  758TIP3    H223690   4.172   0.830  14.158 -0.2799 -1.9509  0.1210
  759TIP3   OH223691   2.554   3.475  11.710  0.0765 -0.2501 -0.0027
  759TIP3    H123692   2.534   3.383  11.725 -1.2678  0.0464  0.1594
  759TIP3    H223693   2.598   3.477  11.626  1.3505 -1.1802  0.6145
  760TIP3   OH223694   3.241   3.840  12.296 -0.0906  0.3918  0.2326
  760TIP3    H123695   3.321   3.791  12.316 -0.5946 -0.7231 -0.3591
  760TIP3    H223696   3.172   3.793  12.343 -0.4761  1.0493  0.3347
  761TIP3   OH223697   0.317   4.686   4.363  0.0524  0.1662  0.2801
  761TIP3    H123698   0.326   4.607   4.309  0.7628  0.8314 -0.5955
  761TIP3    H223699   0.230   4.678   4.403 -0.1137 -0.7776 -0.2427
  762TIP3   OH223700   6.563   3.269  14.737 -0.0751 -0.3242 -0.1868
  762TIP3    H123701   6.614   3.268  14.818 -1.9346  1.0300  1.0867
  762TIP3    H223702   6.582   3.353  14.698 -0.2577 -0.3897 -0.4174
  763TIP3   OH223703   4.798   2.873  16.924  0.7803 -0.0425  0.2976
  763TIP3    H123704   4.841   2.866  17.009  1.0146 -1.4404  0.0779
  763TIP3    H223705   4.748   2.792  16.915 -1.0945  1.0594  0.0813
  764TIP3   OH223706   4.813   6.401   1.864 -0.1834  0.5052 -0.0714
  764TIP3    H123707   4.742   6.447   1.909 -0.8636  0.0258 -0.6239
  764TIP3    H223708   4.769   6.330   1.818  0.3899  1.4072 -2.0944
  765TIP3   OH223709   0.594   5.532  13.648 -0.1100  0.7718  0.0749
  765TIP3    H123710   0.632   5.465  13.705 -0.9420  0.4315  0.2377
  765TIP3    H223711   0.503   5.505  13.637  0.0267  0.8306 -1.4082
  766TIP3   OH223712   6.307   3.154   2.380  0.0266 -0.2925 -0.1320
  766TIP3    H123713   6.379   3.106   2.421  0.9333  1.5240  0.5221
  766TIP3    H223714   6.237   3.153   2.445  0.4041  0.1011  0.2891
  767TIP3   OH223715   3.775   4.093   1.100 -0.6046 -0.3224 -0.5080
  767TIP3    H123716   3.852   4.105   1.156  0.9059  0.3773 -2.6037
  767TIP3    H223717   3.715   4.163   1.127  0.4552  0.5361 -0.2913
  768TIP3   OH223718   0.407   3.461  15.277  0.1540 -0.0250  0.0606
  768TIP3    H123719   0.327   3.492  15.234  0.6010  1.7909  0.4318
  768TIP3    H223720   0.478   3.496  15.223  0.7407 -1.8008 -0.3865
  769TIP3   OH223721   2.089   5.648  15.009  0.3313  0.0207  0.5206
  769TIP3    H123722   2.185   5.652  15.017  0.3251 -2.1529  2.7047
  769TIP3    H223723   2.057   5.674  15.095 -1.1136  1.1162 -0.3054
  770TIP3   OH223724   4.184   5.602  13.232  0.9330 -0.6270  0.5831
  770TIP3    H123725   4.132   5.665  13.282  0.9913  0.3993 -0.5982
  770TIP3    H223726   4.118   5.543  13.194  0.6322  0.4109 -0.5606
  771TIP3   OH223727   3.681   1.373   2.028  0.1117  0.3359  0.2914
  771TIP3    H123728   3.718   1.456   2.000 -1.4582  1.9108  2.5431
  771TIP3    H223729   3.752   1.329   2.075  0.2471  1.6079  1.3214
  772TIP3   OH223730   3.303   4.710  16.857  0.5191  0.1369 -0.0717
  772TIP3    H123731   3.328   4.753  16.775 -0.0063  1.5378  0.4715
  772TIP3    H223732   3.253   4.633  16.830  2.0947 -0.5794 -1.0887
  773TIP3   OH223733   0.952   3.748  10.680 -0.3451 -0.8948 -0.2592
  773TIP3    H123734   0.924   3.813  10.745 -0.8848 -1.8893  0.5256
  773TIP3    H223735   1.036   3.781  10.648  0.4711 -0.9161  1.7359
  774TIP3   OH223736   2.994   1.250   4.111  0.4322 -0.3834  0.3599
  774TIP3    H123737   3.018   1.234   4.019 -0.0168 -1.8569  0.4664
  774TIP3    H223738   2.947   1.333   4.109 -1.1568 -1.2565 -1.0645
  775TIP3   OH223739   1.036   4.528   1.292  0.1014  0.1710  0.2287
  775TIP3    H123740   1.058   4.620   1.278  1.0655 -0.4489 -3.2852
  775TIP3    H223741   0.958   4.513   1.239 -0.5721 -0.8576  1.4595
  776TIP3   OH223742   6.552   1.214  11.509 -0.4410  0.2902 -0.5610
  776TIP3    H123743   6.617   1.236  11.576  0.3409  0.9441 -1.5088
  776TIP3    H223744   6.493   1.152  11.553 -0.3709  1.2321  0.9371
  777TIP3   OH223745   0.600   3.856  15.750  0.3987 -0.4949  0.3774
  777TIP3    H123746   0.681   3.876  15.702 -0.1091 -1.1760 -0.7922
  777TIP3    H223747   0.537   3.920  15.719  0.0237 -1.0316  0.0163
  778TIP3   OH223748   1.305   1.533  13.337  0.0188 -0.0917 -0.3264
  778TIP3    H123749   1.393   1.569  13.344  0.7141 -1.2549 -2.2573
  778TIP3    H223750   1.260   1.590  13.275  0.2516 -0.9089 -1.2783
  779TIP3   OH223751   6.325   1.755  14.948  0.2216 -0.1849  0.0895
  779TIP3    H123752   6.257   1.734  15.011  0.8475 -0.0073  0.8335
  779TIP3    H223753   6.303   1.842  14.916 -0.7282 -0.7296 -0.8022
  780TIP3   OH223754   5.654   1.256   0.949 -0.5343 -0.4715 -0.0499
  780TIP3    H123755   5.705   1.191   0.997 -0.7330  0.7174  1.9122
  780TIP3    H223756   5.720   1.318   0.916 -0.5462  0.7379  1.9792
  781TIP3   OH223757   5.865   6.252   5.171  0.6372 -0.0730 -0.5144
  781TIP3    H123758   5.816   6.184   5.124  0.3516  0.5013 -1.0609
  781TIP3    H223759   5.854   6.230   5.263 -0.7148  0.0764 -0.6203
  782TIP3   OH223760   5.080   2.243   6.531  0.0600 -0.4020  0.5688
  782TIP3    H123761   5.052   2.153   6.551  2.5536 -1.2589  0.6133
  782TIP3    H223762   5.110   2.239   6.441  0.3316  0.3688  0.6189
  783TIP3   OH223763   5.420   0.501   4.870 -0.6659  0.4097 -0.3845
  783TIP3    H123764   5.408   0.489   4.776  1.3162 -0.4524 -0.5850
  783TIP3    H223765   5.380   0.586   4.888  0.9667  1.7482 -2.5033
  784TIP3   OH223766   2.273   6.008   1.610  0.2998 -0.3402 -0.0647
  784TIP3    H123767   2.213   5.973   1.676  1.1480 -1.6407  0.0547
  784TIP3    H223768   2.239   5.975   1.527  0.0273  0.1404 -0.1476
  785TIP3   OH223769   5.974   0.186  12.629 -0.3589 -0.3421 -0.4151
  785TIP3    H123770   5.945   0.208  12.541 -0.7468  1.0528  0.0232
  785TIP3    H223771   5.897   0.204  12.684 -0.3207 -1.7882  0.1403
  786TIP3   OH223772   2.000   2.545  11.769 -0.5327 -0.1578  0.1411
  786TIP3    H123773   1.918   2.497  11.757 -0.7803  0.1569  0.5264
  786TIP3    H223774   2.014   2.543  11.864 -0.1021 -0.1924  0.0769
  787TIP3   OH223775   1.559   1.410   1.372 -0.2202 -0.2829 -0.6940
  787TIP3    H123776   1.556   1.495   1.416  1.4576 -0.3541 -0.3530
  787TIP3    H223777   1.574   1.430   1.280  1.2461 -0.1745 -0.4667
  788TIP3   OH223778   5.813   6.571  16.920  0.0367  0.4854 -0.1122
  788TIP3    H123779   5.830   6.477  16.930  1.2498  0.6831 -0.2115
  788TIP3    H223780   5.724   6.582  16.954  0.0515 -0.6198  0.3478
  789TIP3   OH223781   2.317   2.897  11.707 -0.2824  0.1364 -0.1163
  789TIP3    H123782   2.361   2.819  11.739  0.6372  1.2397  1.4167
  789TIP3    H223783   2.279   2.937  11.785 -0.0607  1.6264 -0.7444
  790TIP3   OH223784   1.686   2.807  13.291 -0.3859  0.5731 -0.3412
  790TIP3    H123785   1.759   2.866  13.313  1.1656 -0.5685 -2.0987
  790TIP3    H223786   1.638   2.797  13.373  1.4670  1.3601  0.9165
  791TIP3   OH223787   4.317   6.203   4.065 -0.6036 -0.0024 -0.2132
  791TIP3    H123788   4.360   6.126   4.101  1.0227  1.1680  0.4715
  791TIP3    H223789   4.358   6.217   3.980  0.3623  1.0866  0.4147
  792TIP3   OH223790   6.299   5.214   0.257  0.0001 -0.0994  0.1275
  792TIP3    H123791   6.393   5.202   0.240 -0.1032 -1.6977  0.5649
  792TIP3    H223792   6.256   5.145   0.205 -0.9951  0.9980 -0.5582
  793TIP3   OH223793   0.739   5.855   1.998 -0.1789 -0.4692  0.2996
  793TIP3    H123794   0.686   5.787   2.040 -1.1905  1.0680  1.6282
  793TIP3    H223795   0.736   5.929   2.059  2.7236  0.0415 -0.0397
  794TIP3   OH223796   6.188   1.287  16.793  0.2447 -0.4177  0.3035
  794TIP3    H123797   6.240   1.366  16.774  0.5459 -0.5129  0.7287
  794TIP3    H223798   6.097   1.317  16.787  0.3039 -0.4307 -1.2723
  795TIP3   OH223799   2.904   3.690   0.345 -0.0717 -0.1240  0.1360
  795TIP3    H123800   2.935   3.778   0.365  1.0603 -0.3660 -0.4174
  795TIP3    H223801   2.872   3.656   0.428  0.3390  0.4879  0.5556
  796TIP3   OH223802   3.262   1.610  12.897 -0.4602 -0.1042  0.1538
  796TIP3    H123803   3.308   1.531  12.869  1.2919  0.8430  0.2037
  796TIP3    H223804   3.314   1.682  12.861 -2.3748  1.0537 -0.4701
  797TIP3   OH223805   5.007   2.557   1.452 -0.0269  0.3859  0.2321
  797TIP3    H123806   5.094   2.558   1.492 -0.0586  0.6295  0.3016
  797TIP3    H223807   4.964   2.480   1.489  0.2027  0.1988  0.1031
  798TIP3   OH223808   1.073   1.362   3.978 -0.0087 -0.2985  0.2431
  798TIP3    H123809   1.144   1.316   4.024  1.7138  1.4454 -0.5344
  798TIP3    H223810   0.997   1.304   3.987  1.3985 -2.0631  1.4534
  799TIP3   OH223811   5.911   4.844  17.245  0.0159 -0.2338 -0.3040
  799TIP3    H123812   5.942   4.865  17.333  0.4639  0.0850 -0.5349
  799TIP3    H223813   5.878   4.927  17.210  1.8578  0.1403 -1.2459
  800TIP3   OH223814   2.725   5.700   4.729  0.0691  0.5810  0.5628
  800TIP3    H123815   2.818   5.683   4.746 -0.1216  0.0182  1.0609
  800TIP3    H223816   2.725   5.744   4.644  0.9210  2.1666  1.3381
  801TIP3   OH223817   2.922   6.284   3.162  0.1669 -0.5169  0.1579
  801TIP3    H123818   2.953   6.329   3.240  0.3368  2.1802 -1.3313
  801TIP3    H223819   2.842   6.332   3.137 -0.0682 -1.5142 -1.1407
  802TIP3   OH223820   3.784   0.393  13.676  0.0167 -0.1352 -0.5890
  802TIP3    H123821   3.720   0.393  13.605 -1.0516  2.0529  0.2693
  802TIP3    H223822   3.861   0.437  13.639  0.2588 -0.8858 -0.9945
  803TIP3   OH223823   4.943   5.090  16.685  0.3695  0.4696  0.3076
  803TIP3    H123824   4.925   5.166  16.630  0.5974 -0.8757 -1.7507
  803TIP3    H223825   5.037   5.074  16.672  0.2123 -0.4599  0.2632
  804TIP3   OH223826   5.404   6.128  15.623 -0.1912  0.2185 -0.3758
  804TIP3    H123827   5.450   6.202  15.661 -0.2048  0.6959 -1.2636
  804TIP3    H223828   5.331   6.167  15.575 -1.2682 -0.4943  0.6300
  805TIP3   OH223829   3.759   4.483  14.019 -0.5660  0.2886 -0.2962
  805TIP3    H123830   3.840   4.533  14.030 -0.5924  0.9352 -2.4930
  805TIP3    H223831   3.789   4.392  14.009 -0.2080  0.3744 -0.0425
  806TIP3   OH223832   2.996   0.788  15.597 -0.5288  0.6354 -0.2073
  806TIP3    H123833   2.985   0.797  15.502 -5.4276 -1.9287 -0.2024
  806TIP3    H223834   2.972   0.698  15.615  1.2996  0.7075  3.4993
  807TIP3   OH223835   0.418   1.537   5.524  0.2617 -0.9554  0.2144
  807TIP3    H123836   0.456   1.472   5.465 -1.1719 -0.6377 -1.1427
  807TIP3    H223837   0.392   1.487   5.601  1.2902 -1.5667  0.1747
  808TIP3   OH223838   0.204   3.655   6.013 -0.1975 -0.0497 -0.2111
  808TIP3    H123839   0.130   3.595   6.003  0.8484 -1.7842  1.7373
  808TIP3    H223840   0.271   3.621   5.953 -0.5282  0.8106 -1.0918
  809TIP3   OH223841   4.417   1.404   2.514  0.0243  0.0907  0.1688
  809TIP3    H123842   4.504   1.379   2.484 -0.5682 -0.3914 -1.2683
  809TIP3    H223843   4.408   1.496   2.487 -0.4940 -0.3319 -1.1929
  810TIP3   OH223844   0.669   1.134   0.524 -0.3028  0.6451  0.3530
  810TIP3    H123845   0.761   1.148   0.502 -0.5230 -0.8460 -1.9163
  810TIP3    H223846   0.671   1.076   0.601  0.7401 -0.8683 -0.7518
  811TIP3   OH223847   3.077   2.863  16.545  0.2346  0.1647  0.3403
  811TIP3    H123848   3.004   2.878  16.485  0.1861 -0.7193  0.1613
  811TIP3    H223849   3.154   2.896  16.499 -0.1028  1.5395  0.7250
  812TIP3   OH223850   4.370   2.605  11.711 -0.5324  0.2206 -1.0577
  812TIP3    H123851   4.278   2.620  11.732 -0.4211  0.5599 -0.8133
  812TIP3    H223852   4.369   2.527  11.656 -0.9700  0.2477 -1.0919
  813TIP3   OH223853   0.431   4.763  12.758 -0.7226  0.4075 -0.0037
  813TIP3    H123854   0.492   4.814  12.705 -1.0098  1.0530  0.2747
  813TIP3    H223855   0.348   4.768  12.709  0.0527 -2.8882 -1.9373
  814TIP3   OH223856   6.519   4.032   2.077  0.0175 -0.0675 -0.1542
  814TIP3    H123857   6.513   3.943   2.113  2.1606 -0.9451 -1.7552
  814TIP3    H223858   6.468   4.029   1.997 -2.1044  0.9822  1.0646
  815TIP3   OH223859   6.370   0.076  16.158 -0.1433  0.4514  0.1389
  815TIP3    H123860   6.377   0.036  16.245 -0.6310 -0.2441 -0.1348
  815TIP3    H223861   6.416   0.159  16.166 -0.2058  0.4058  1.0757
  816TIP3   OH223862   3.966   4.136   5.782 -0.1827 -0.7328 -0.2658
  816TIP3    H123863   3.909   4.123   5.706  0.6183 -0.2621 -0.9565
  816TIP3    H223864   4.015   4.216   5.763 -0.1170 -0.4865  0.8416
  817TIP3   OH223865   1.270   5.785   0.116 -0.0898  0.7361 -0.0834
  817TIP3    H123866   1.350   5.834   0.097  1.6490 -1.5117  0.9756
  817TIP3    H223867   1.201   5.835   0.074  1.5256  4.0178  0.8381
  818TIP3   OH223868   5.150   1.467   3.891  0.6216  0.1163 -0.4982
  818TIP3    H123869   5.121   1.520   3.817 -0.1968  1.9328  1.0432
  818TIP3    H223870   5.200   1.527   3.946  0.5506 -0.9721  0.8167
  819TIP3   OH223871   5.759   4.709   4.062 -0.7608  0.3437 -0.3567
  819TIP3    H123872   5.747   4.659   4.142 -0.0012 -1.4659 -1.3152
  819TIP3    H223873   5.837   4.762   4.079 -0.9617  0.4377  0.3059
  820TIP3   OH223874   6.036   3.908   2.333  0.0603 -0.0201  0.3394
  820TIP3    H123875   6.019   3.995   2.369 -0.9023 -0.1308  0.1807
  820TIP3    H223876   6.091   3.924   2.257  0.4029  0.3968  0.6736
  821TIP3   OH223877   1.208   4.953  16.070  0.1109  0.0600  0.4224
  821TIP3    H123878   1.173   4.873  16.111  1.2451 -0.2010  0.9103
  821TIP3    H223879   1.212   5.017  16.141 -0.2588  0.3906  0.1522
  822TIP3   OH223880   3.380   0.087  16.943 -0.0254 -0.0783 -0.5016
  822TIP3    H123881   3.462   0.048  16.911 -0.1724 -3.3071  2.4140
  822TIP3    H223882   3.312   0.025  16.916 -0.6827 -0.4892  1.8257
  823TIP3   OH223883   4.426   1.030  16.216 -0.0456  0.4209 -0.1555
  823TIP3    H123884   4.420   0.961  16.149  1.2312  1.0363 -0.9316
  823TIP3    H223885   4.337   1.036  16.251 -1.0472  0.8072 -2.5406
  824TIP3   OH223886   1.673   6.405   3.174 -0.9356  0.6632 -0.3582
  824TIP3    H123887   1.709   6.448   3.096 -0.4219  0.0971 -0.4458
  824TIP3    H223888   1.578   6.407   3.161 -0.8326 -0.0718 -1.3651
  825TIP3   OH223889   2.693   4.573   4.078  0.4637  0.1311 -0.3944
  825TIP3    H123890   2.785   4.556   4.058  0.3817 -0.5826 -0.1857
  825TIP3    H223891   2.650   4.489   4.064  0.0862  0.0751  0.9732
  826TIP3   OH223892   4.142   1.335  12.059  0.1193 -0.1471  0.1201
  826TIP3    H123893   4.087   1.411  12.041 -0.0913  0.4043  2.6461
  826TIP3    H223894   4.231   1.370  12.064 -0.0916  0.2162  2.3260
  827TIP3   OH223895   4.186   6.307  13.748 -0.3946 -0.3092  0.7863
  827TIP3    H123896   4.183   6.263  13.833  0.6629  1.4303  1.7833
  827TIP3    H223897   4.268   6.356  13.749 -0.6617  0.2683 -0.9990
  828TIP3   OH223898   6.229   0.212  13.336  0.1661 -0.2791  0.3703
  828TIP3    H123899   6.283   0.142  13.373 -1.1508 -0.4492  2.1251
  828TIP3    H223900   6.143   0.173  13.325 -0.3120  0.7492  0.3015
  829TIP3   OH223901   5.845   1.030  14.333  0.6131  0.5961 -0.0876
  829TIP3    H123902   5.777   1.075  14.383 -0.2998  0.2547 -0.9752
  829TIP3    H223903   5.799   0.958  14.290  1.4598  0.5766 -1.0063
  830TIP3   OH223904   6.386   2.192   3.026 -0.3549  0.1807 -0.4681
  830TIP3    H123905   6.414   2.215   3.115 -2.2463  1.0080 -0.0408
  830TIP3    H223906   6.467   2.190   2.976  0.6899  0.3565  1.1239
  831TIP3   OH223907   4.283   1.428  11.345 -0.2703  0.2233 -0.0650
  831TIP3    H123908   4.259   1.519  11.362  0.7280  0.3129  0.9809
  831TIP3    H223909   4.273   1.384  11.429  1.0757 -0.1905 -0.0967
  832TIP3   OH223910   4.019   3.394  12.970  0.4049 -0.0621 -0.5592
  832TIP3    H123911   3.966   3.327  12.925  1.5852 -0.6228 -1.1617
  832TIP3    H223912   4.059   3.347  13.043  1.3839 -0.0681 -1.0919
  833TIP3   OH223913   0.628   1.792   4.216 -0.5495 -0.5294  0.6815
  833TIP3    H123914   0.557   1.852   4.195  0.6473  1.0398  0.8811
  833TIP3    H223915   0.683   1.791   4.138  0.1414 -0.2939  1.1495
  834TIP3   OH223916   6.309   4.832  16.898  0.5452 -0.2016  0.0444
  834TIP3    H123917   6.218   4.806  16.912  0.1613  2.1631  2.7905
  834TIP3    H223918   6.308   4.881  16.816 -1.4032  2.4484  1.5083
  835TIP3   OH223919   2.775   1.247  16.620  0.4578  0.0534  0.5547
  835TIP3    H123920   2.699   1.192  16.600 -0.4091  0.8050  1.6197
  835TIP3    H223921   2.749   1.335  16.591  1.2113  0.1812  0.2614
  836TIP3   OH223922   2.945   5.498  12.255  0.2711  0.9508  0.3486
  836TIP3    H123923   2.941   5.594  12.249  0.6389  0.9091 -0.8904
  836TIP3    H223924   2.969   5.470  12.167  1.4648 -0.2201  1.0155
  837TIP3   OH223925   0.904   2.077   0.476  0.2146  0.2579 -0.2124
  837TIP3    H123926   0.925   2.150   0.419 -0.9699 -0.7244 -2.0158
  837TIP3    H223927   0.820   2.100   0.516  0.0951  0.1062 -0.3756
  838TIP3   OH223928   1.880   5.894  17.166 -0.4186  0.0753 -0.0272
  838TIP3    H123929   1.875   5.985  17.138  0.3770  0.4301  0.9090
  838TIP3    H223930   1.847   5.844  17.092 -0.9381  1.1266 -0.5271
  839TIP3   OH223931   5.336   1.772  11.218  0.1843 -0.3276  0.0205
  839TIP3    H123932   5.407   1.835  11.234  0.1946 -0.1930 -0.5319
  839TIP3    H223933   5.328   1.769  11.123 -1.1043  0.2710  0.0942
  840TIP3   OH223934   6.047   4.581   1.110 -0.3872 -0.1155  0.5733
  840TIP3    H123935   6.010   4.658   1.066  0.1733  0.2638  0.7468
  840TIP3    H223936   5.996   4.573   1.191 -1.5128 -0.8990 -0.1899
  841TIP3   OH223937   1.635   6.694  14.970  0.3479  0.5839 -0.3134
  841TIP3    H123938   1.652   6.745  14.890  3.1675 -0.0142 -0.2032
  841TIP3    H223939   1.586   6.618  14.939 -0.7676  1.5677 -1.0457
  842TIP3   OH223940   1.480   5.120  14.832  0.0081 -0.0455  0.5687
  842TIP3    H123941   1.482   5.215  14.825 -0.2890  0.0734  1.8034
  842TIP3    H223942   1.413   5.102  14.898 -0.8210 -1.1786 -0.5144
  843TIP3   OH223943   3.709   4.997  10.908  0.0607 -0.5569 -0.1116
  843TIP3    H123944   3.701   5.070  10.848 -0.8055 -1.3257 -0.9529
  843TIP3    H223945   3.727   5.038  10.993 -0.7017  0.6353 -0.5047
  844TIP3   OH223946   6.636   6.132   3.595  0.1302  0.1889  0.4521
  844TIP3    H123947   6.694   6.075   3.545 -1.4707 -1.5222  0.4764
  844TIP3    H223948   6.582   6.175   3.530 -1.6257 -1.6767  0.5932
  845TIP3   OH223949   6.654   2.559  14.611 -1.1524  0.5838 -0.9325
  845TIP3    H123950   6.589   2.497  14.578 -0.3627 -0.5437 -0.4347
  845TIP3    H223951   6.698   2.513  14.682  0.0140  1.4166 -1.0754
  846TIP3   OH223952   0.848   2.227  15.307  0.0655  0.2273 -0.5321
  846TIP3    H123953   0.826   2.144  15.264  0.2523  0.5934 -1.3443
  846TIP3    H223954   0.766   2.253  15.350 -0.3317  0.2003 -1.2484
  847TIP3   OH223955   6.014   4.426   0.077  0.6235  0.1207 -0.3274
  847TIP3    H123956   6.106   4.402   0.081  1.5013  3.1814  0.3722
  847TIP3    H223957   5.999   4.445  -0.016  1.8884  3.2041 -0.0485
  848TIP3   OH223958   1.971   3.092  11.615  0.5892 -0.1337 -0.5413
  848TIP3    H123959   2.012   3.006  11.626  1.9223  0.8011  3.1746
  848TIP3    H223960   1.991   3.139  11.696 -1.2806  3.2301 -1.8315
  849TIP3   OH223961   1.435   3.587  13.378  0.1682  0.3799 -0.6344
  849TIP3    H123962   1.501   3.550  13.437 -0.4504  0.8011  0.3578
  849TIP3    H223963   1.460   3.555  13.291  0.4817 -1.2011 -0.0132
  850TIP3   OH223964   1.583   5.250   4.861  0.3705 -0.2526  0.0169
  850TIP3    H123965   1.596   5.163   4.823  1.7652 -0.3491  0.6515
  850TIP3    H223966   1.497   5.277   4.830  0.5143 -1.2631 -1.3576
  851TIP3   OH223967   4.468   0.108  10.997 -0.3780 -0.0454  0.3367
  851TIP3    H123968   4.508   0.023  10.981 -0.8272  0.0492 -1.5979
  851TIP3    H223969   4.494   0.161  10.921 -0.6808  1.3212  1.1625
  852TIP3   OH223970   1.804   4.537   3.650 -0.0070 -0.1357 -0.3765
  852TIP3    H123971   1.800   4.450   3.689 -1.8839 -0.7236 -1.7267
  852TIP3    H223972   1.743   4.590   3.701  1.6931  0.6734  0.9323
  853TIP3   OH223973   2.870   2.964  16.366 -0.0558 -0.4631  0.3987
  853TIP3    H123974   2.779   2.992  16.380 -0.8668 -1.1775 -2.5512
  853TIP3    H223975   2.862   2.876  16.329  1.6966  0.0417 -1.3712
  854TIP3   OH223976   3.558   3.107  11.748 -0.7371  0.2813  0.5664
  854TIP3    H123977   3.602   3.188  11.772 -1.4784  0.3186  1.9258
  854TIP3    H223978   3.598   3.081  11.665 -1.0866  2.4639 -0.3276
  855TIP3   OH223979   2.745   6.501  14.227 -0.3894  0.6693  0.0078
  855TIP3    H123980   2.779   6.590  14.235  0.2305  0.6381 -1.7688
  855TIP3    H223981   2.780   6.470  14.144 -3.0719 -0.1331 -0.9286
  856TIP3   OH223982   1.645   3.107  15.561  0.0539 -0.2384  0.1791
  856TIP3    H123983   1.576   3.047  15.536  1.0653 -1.0816 -0.6884
  856TIP3    H223984   1.599   3.181  15.602 -1.2554 -1.2353  0.5687
  857TIP3   OH223985   5.377   2.839  14.121 -0.1332 -0.0709 -0.4130
  857TIP3    H123986   5.446   2.899  14.093  1.0059 -0.4439  1.4348
  857TIP3    H223987   5.330   2.816  14.040  1.6141  0.5349 -1.6474
  858TIP3   OH223988   6.239   4.396   5.007 -0.3924 -0.0203 -0.4414
  858TIP3    H123989   6.217   4.311   5.046  2.3085 -0.4911  0.2281
  858TIP3    H223990   6.333   4.405   5.021 -0.6311  3.1974 -0.3209
  859TIP3   OH223991   4.644   6.747   4.952 -0.0423 -0.2567 -0.6241
  859TIP3    H123992   4.736   6.757   4.931  0.1755 -0.3350  0.2566
  859TIP3    H223993   4.631   6.653   4.962  0.8029 -0.1291  3.4203
  860TIP3   OH223994   0.906   3.480   5.745 -0.4376  0.0219 -0.2967
  860TIP3    H123995   0.922   3.575   5.744  0.8661 -0.1830 -1.4349
  860TIP3    H223996   0.993   3.441   5.734 -1.1001 -1.2938 -1.0539
  861TIP3   OH223997   4.438   1.243  14.684 -0.6269 -0.4075  0.0151
  861TIP3    H123998   4.431   1.285  14.598  1.7003  1.5231  0.6606
  861TIP3    H223999   4.520   1.276  14.721 -0.5210 -2.7579  2.1725
  862TIP3   OH224000   2.438   4.460  13.512 -0.0887 -0.3741 -0.2831
  862TIP3    H124001   2.468   4.507  13.434 -0.3546  0.1842 -0.0512
  862TIP3    H224002   2.517   4.444  13.562  0.0971 -0.8109 -0.7017
  863TIP3   OH224003   0.216   1.533  14.058 -0.4662  0.7530 -0.0402
  863TIP3    H124004   0.276   1.481  14.112 -0.4621 -0.1216 -0.8548
  863TIP3    H224005   0.274   1.579  13.997 -0.5319  1.0248  0.1021
  864TIP3   OH224006   3.368   0.893  15.147 -0.1900  0.0541  0.0096
  864TIP3    H124007   3.393   0.807  15.113  0.0413 -0.4019  1.2546
  864TIP3    H224008   3.311   0.930  15.080  0.7831 -0.5011 -1.1494
  865TIP3   OH224009   1.723   4.663   1.959  0.2221 -0.4370 -0.3231
  865TIP3    H124010   1.764   4.685   2.043 -2.4306 -0.3808  1.0562
  865TIP3    H224011   1.783   4.698   1.894  1.5323  1.0910  1.5667
  866TIP3   OH224012   1.013   3.494  14.812  0.2584  0.4045 -0.0477
  866TIP3    H124013   0.931   3.448  14.831 -0.4615  1.3214 -0.8175
  866TIP3    H224014   1.028   3.550  14.888  2.1933 -2.4305  1.8295
  867TIP3   OH224015   4.733   4.673  13.891  0.4946 -0.1209 -0.0176
  867TIP3    H124016   4.697   4.626  13.967  1.7408  0.0300  0.6957
  867TIP3    H224017   4.800   4.731  13.928 -1.6452  3.0099 -0.7301
  868TIP3   OH224018   5.836   1.101   5.201 -0.2277 -0.0365  0.2261
  868TIP3    H124019   5.802   1.190   5.195 -0.8303 -0.2770 -0.0213
  868TIP3    H224020   5.913   1.108   5.257  0.9220  0.9803 -1.4102
  869TIP3   OH224021   6.582   5.856   1.762 -0.2574  0.5364 -0.4269
  869TIP3    H124022   6.501   5.895   1.729 -0.4926  0.7486  0.4008
  869TIP3    H224023   6.607   5.793   1.694 -0.8674  0.7981 -0.9016
  870TIP3   OH224024   6.188   4.267  13.249  0.5322  0.5197 -0.1102
  870TIP3    H124025   6.188   4.344  13.307  0.1771 -0.0939  0.7344
  870TIP3    H224026   6.259   4.283  13.188  0.2517  1.6768 -0.1630
  871TIP3   OH224027   5.356   2.202   4.805 -0.6421  0.3286  0.2395
  871TIP3    H124028   5.394   2.168   4.886  1.4809  1.7936 -0.0593
  871TIP3    H224029   5.265   2.172   4.807 -0.5344 -0.0699  2.9203
  872TIP3   OH224030   2.632   1.246   1.037  0.6692  0.3220  0.0808
  872TIP3    H124031   2.548   1.209   1.010  0.9729 -0.6117  0.3654
  872TIP3    H224032   2.625   1.257   1.131 -0.0328  2.6655 -0.1705
  873TIP3   OH224033   6.419   5.855  13.122  0.2901 -0.0183 -0.2078
  873TIP3    H124034   6.507   5.847  13.160  0.5035 -0.2160 -0.7324
  873TIP3    H224035   6.432   5.837  13.028 -0.5272 -1.4695 -0.0739
  874TIP3   OH224036   0.294   5.722   3.549  0.1437  0.3665  0.5708
  874TIP3    H124037   0.378   5.676   3.552  0.1956  0.2112 -1.9411
  874TIP3    H224038   0.283   5.755   3.639  2.3554 -0.5042  1.2413
  875TIP3   OH224039   5.671   6.578  16.445 -0.0027 -0.6762  0.2288
  875TIP3    H124040   5.723   6.659  16.446  0.2490 -0.8131 -0.6127
  875TIP3    H224041   5.690   6.539  16.359 -1.9340 -0.4511 -0.3389
  876TIP3   OH224042   6.506   5.030   3.028  0.2221 -0.0041 -0.5041
  876TIP3    H124043   6.428   5.008   2.978  1.1066 -1.2510 -1.3739
  876TIP3    H224044   6.507   4.967   3.100 -1.1835  1.9321  1.3711
  877TIP3   OH224045   6.057   6.232   2.292 -0.1582  0.2227  0.0273
  877TIP3    H124046   6.133   6.190   2.332  0.8975  1.9397 -0.1048
  877TIP3    H224047   5.996   6.159   2.275  1.3394 -1.1560  0.3325
  878TIP3   OH224048   5.601   3.843  12.508  0.2021 -0.0396  0.9333
  878TIP3    H124049   5.549   3.873  12.582 -0.2744  0.3995  0.4251
  878TIP3    H224050   5.605   3.918  12.448  0.3571 -0.4682  0.3913
  879TIP3   OH224051   2.763   1.617  13.539  0.5152 -0.6311  0.1360
  879TIP3    H124052   2.794   1.708  13.538 -2.5925  0.5758  0.9801
  879TIP3    H224053   2.716   1.607  13.456 -1.0272 -0.6873  0.9912
  880TIP3   OH224054   0.854   2.670   1.803 -0.0527  0.3963  0.1260
  880TIP3    H124055   0.805   2.742   1.765 -1.7856 -1.2393 -0.9250
  880TIP3    H224056   0.836   2.595   1.746  0.9266 -1.0964  1.6444
  881TIP3   OH224057   5.609   1.284  13.245 -0.0000 -0.2101 -0.0355
  881TIP3    H124058   5.648   1.295  13.158 -0.0223 -0.3465 -0.0623
  881TIP3    H224059   5.573   1.370  13.266 -1.0868 -0.4833 -0.6900
  882TIP3   OH224060   1.357   5.325  12.232 -0.1024  0.4980 -0.0654
  882TIP3    H124061   1.414   5.386  12.184  2.0349 -1.6548 -0.4743
  882TIP3    H224062   1.349   5.249  12.173 -0.6948 -0.5996  1.3745
  883TIP3   OH224063   5.909   4.539   0.323  0.2815 -0.2677  0.1367
  883TIP3    H124064   5.946   4.524   0.236  2.0401 -0.2700  0.8459
  883TIP3    H224065   5.930   4.630   0.343 -0.2210 -0.2318  0.5164
  884TIP3   OH224066   5.029   6.571   2.041  0.4788 -0.2034 -0.0958
  884TIP3    H124067   4.979   6.549   2.119  1.4742  0.5593  0.7931
  884TIP3    H224068   5.028   6.491   1.988  0.3054 -0.9338  0.9880
  885TIP3   OH224069   3.528   6.301  10.614 -0.1979 -0.2931 -0.1021
  885TIP3    H124070   3.506   6.375  10.558 -1.2272 -1.4349 -1.2933
  885TIP3    H224071   3.515   6.333  10.703  2.3627  1.8527 -0.3738
  886TIP3   OH224072   0.567   1.214   1.940 -0.2518 -0.0527  0.4124
  886TIP3    H124073   0.480   1.240   1.908  1.1580  2.2293 -1.9282
  886TIP3    H224074   0.585   1.274   2.013 -0.6782 -0.6496  1.0206
  887TIP3   OH224075   2.469   5.137   1.268  0.4330  0.2233 -0.5418
  887TIP3    H124076   2.466   5.062   1.209 -0.8397  0.0929 -0.3353
  887TIP3    H224077   2.487   5.099   1.354 -0.5050  0.0942 -0.3853
  888TIP3   OH224078   2.535   5.828  14.149 -0.9113  0.0951 -0.3125
  888TIP3    H124079   2.586   5.758  14.109 -0.2532  0.3805 -0.0053
  888TIP3    H224080   2.486   5.786  14.219 -0.0912  0.0209  0.2336
  889TIP3   OH224081   4.952   3.032   6.245  0.3313 -0.5195  0.1022
  889TIP3    H124082   4.899   2.977   6.303 -2.1976  0.5374 -1.0472
  889TIP3    H224083   5.022   2.974   6.215 -0.0368 -1.9643  1.8185
  890TIP3   OH224084   2.324   6.272   6.903 -0.4335 -0.1519  0.6360
  890TIP3    H124085   2.352   6.364   6.908  0.2041 -0.3371  0.5112
  890TIP3    H224086   2.345   6.246   6.813 -1.4910 -0.1464  0.3770
  891TIP3   OH224087   6.707   6.438  16.213  0.0941  0.3684  0.2797
  891TIP3    H124088   6.717   6.398  16.299 -2.0021 -0.7377  0.0652
  891TIP3    H224089   6.761   6.384  16.155 -1.3608 -1.2113  0.3028
  892TIP3   OH224090   5.326   3.330  14.251  0.1768  0.7155 -0.7496
  892TIP3    H124091   5.283   3.309  14.334 -0.9103  0.6490 -1.2984
  892TIP3    H224092   5.380   3.406  14.270  1.1216 -0.2019  0.3639
  893TIP3   OH224093   0.670   5.147  15.066 -0.1508  0.0843  0.5017
  893TIP3    H124094   0.582   5.135  15.031  1.1481 -2.1711 -2.5208
  893TIP3    H224095   0.712   5.208  15.005  1.0882 -0.9512  0.2649
  894TIP3   OH224096   1.410   5.714  13.657 -0.2044  0.3160  0.2476
  894TIP3    H124097   1.386   5.708  13.750  0.2640 -0.4771  0.3267
  894TIP3    H224098   1.496   5.757  13.658 -0.8467  1.6651  0.0703
  895TIP3   OH224099   2.656   3.595  11.488  0.1652  0.4784 -0.1851
  895TIP3    H124100   2.568   3.566  11.463  0.6203 -0.8273 -0.3258
  895TIP3    H224101   2.690   3.638  11.410  0.2246 -0.3973 -0.6520
  896TIP3   OH224102   6.505   3.002  16.166 -0.6112  0.9447 -0.4720
  896TIP3    H124103   6.472   3.060  16.097 -2.4250 -0.0223 -0.4697
  896TIP3    H224104   6.457   3.028  16.244 -0.6348  0.1643 -0.2237
  897TIP3   OH224105   2.718   1.493  10.796 -0.7145 -0.7072 -0.0833
  897TIP3    H124106   2.725   1.397  10.800  1.7687 -0.6393 -1.0881
  897TIP3    H224107   2.808   1.524  10.810 -0.5737  1.2728 -4.1001
  898TIP3   OH224108   5.159   1.536  17.045 -0.0467 -0.5843  0.2852
  898TIP3    H124109   5.087   1.511  17.103 -0.6217  0.6181  0.1234
  898TIP3    H224110   5.119   1.598  16.983  0.6984 -1.3376 -0.9815
  899TIP3   OH224111   1.994   6.343  14.307  0.5776 -0.1517 -0.2568
  899TIP3    H124112   2.089   6.337  14.318  0.6219  1.5931  0.6224
  899TIP3    H224113   1.964   6.252  14.310  2.1965 -0.7170 -0.3735
  900TIP3   OH224114   4.569   2.833   0.443  0.4165 -0.6015  0.4925
  900TIP3    H124115   4.624   2.755   0.455  0.7741 -0.6628 -1.2706
  900TIP3    H224116   4.620   2.904   0.483  0.5511 -1.0817  1.2060
  901TIP3   OH224117   0.834   3.156  16.785  0.2472  0.0238 -0.4806
  901TIP3    H124118   0.791   3.234  16.750  0.5309 -0.2944 -1.5867
  901TIP3    H224119   0.777   3.127  16.856 -0.3119  0.7452 -0.6192
  902TIP3   OH224120   5.319   2.779  13.496  0.0394  0.5077  0.1869
  902TIP3    H124121   5.403   2.749  13.460 -0.4572 -0.1810 -0.4330
  902TIP3    H224122   5.285   2.703  13.544 -0.2280  0.7934  0.4593
  903TIP3   OH224123   4.639   5.793  12.825  0.2635  0.8263  0.0380
  903TIP3    H124124   4.692   5.860  12.868  0.6007 -0.1349  1.1770
  903TIP3    H224125   4.582   5.759  12.894 -0.5992  0.6262 -0.7534
  904TIP3   OH224126   0.874   4.872   0.168 -0.4939  0.0090 -0.1101
  904TIP3    H124127   0.862   4.933   0.095 -0.4769  1.7172  1.2563
  904TIP3    H224128   0.950   4.819   0.143 -1.0097 -0.0355 -1.6923
  905TIP3   OH224129   5.461   5.366  16.422  0.0200 -0.2091  0.2285
  905TIP3    H124130   5.488   5.414  16.501 -1.5333  0.1015  0.5961
  905TIP3    H224131   5.386   5.415  16.389  0.2457 -0.7245 -1.0824
  906TIP3   OH224132   3.849   6.318   1.346  0.4445 -0.1734 -0.6009
  906TIP3    H124133   3.766   6.277   1.324  0.0202  0.4630 -0.1973
  906TIP3    H224134   3.885   6.262   1.415  0.5023 -0.6204 -0.9869
  907TIP3   OH224135   1.012   4.628  12.475 -0.4080  0.6282 -0.3663
  907TIP3    H124136   0.978   4.560  12.417 -0.9127  0.9653 -0.4686
  907TIP3    H224137   1.096   4.652  12.437  0.2774 -0.6875  0.2600
  908TIP3   OH224138   1.928   5.718  10.746 -0.0426 -0.3189 -0.0794
  908TIP3    H124139   1.839   5.749  10.759  0.6161  0.9971  1.7866
  908TIP3    H224140   1.947   5.736  10.654 -1.5693 -0.3115 -0.4063
  909TIP3   OH224141   6.490   6.283   2.365  0.8776 -0.2455  0.8769
  909TIP3    H124142   6.480   6.351   2.432  0.4629 -0.9507  1.5577
  909TIP3    H224143   6.570   6.306   2.319  1.0423  0.3976  1.4581
  910TIP3   OH224144   4.691   0.014   3.609 -0.1447  0.0208  0.3898
  910TIP3    H124145   4.653  -0.044   3.675 -1.3463 -0.7696 -0.9339
  910TIP3    H224146   4.654   0.100   3.630  0.7498  0.1204  1.6784
  911TIP3   OH224147   0.857   1.848   4.760  0.4739 -0.0534  0.0970
  911TIP3    H124148   0.869   1.943   4.765  0.8206 -0.0717 -0.3500
  911TIP3    H224149   0.814   1.833   4.676 -0.9954 -0.1634  0.8374
  912TIP3   OH224150   5.226   0.151   0.934  0.0688 -0.0782  0.3296
  912TIP3    H124151   5.275   0.232   0.924 -0.1410  0.4481  2.8676
  912TIP3    H224152   5.161   0.153   0.863  1.0676  1.1862 -0.5908
  913TIP3   OH224153   3.180   1.559  16.279 -0.3064 -0.3204 -0.1238
  913TIP3    H124154   3.243   1.565  16.351  0.7051 -1.1711 -0.9160
  913TIP3    H224155   3.095   1.568  16.322  0.2948 -0.2093  1.1055
  914TIP3   OH224156   1.291   1.765   6.350 -0.1016  0.1287 -0.4292
  914TIP3    H124157   1.372   1.715   6.334 -0.3981 -0.4981 -0.0022
  914TIP3    H224158   1.227   1.725   6.291  0.1640  1.3695 -1.6232
  915TIP3   OH224159   3.791   3.047  14.563  0.2552 -0.1534 -0.2057
  915TIP3    H124160   3.753   3.051  14.476 -1.1928 -2.0239  0.2880
  915TIP3    H224161   3.885   3.059  14.548 -0.0054 -0.0177 -1.9527
  916TIP3   OH224162   6.485   3.601  13.044  0.2079 -0.6415 -0.2162
  916TIP3    H124163   6.544   3.568  12.977 -0.0896 -1.4703 -0.0747
  916TIP3    H224164   6.402   3.556  13.028 -1.4605  2.7985 -2.4414
  917TIP3   OH224165   4.189   1.252  12.662  0.0990 -0.6605  0.5230
  917TIP3    H124166   4.259   1.301  12.619  0.4752  1.0202  2.8891
  917TIP3    H224167   4.151   1.199  12.592  0.8680  1.6496 -1.8012
  918TIP3   OH224168   4.468   0.355   1.277  0.2159  0.5596 -0.4279
  918TIP3    H124169   4.394   0.408   1.306 -0.5382 -0.7561  0.1366
  918TIP3    H224170   4.447   0.331   1.187  0.4268  0.9622 -0.5898
  919TIP3   OH224171   6.208   1.554   0.123 -0.4615 -0.2727 -0.0332
  919TIP3    H124172   6.169   1.564   0.036 -1.5699  0.2929  0.5005
  919TIP3    H224173   6.150   1.605   0.181  0.3003 -0.5679  1.0207
  920TIP3   OH224174   1.970   4.843  11.461  0.1142  0.2700  0.1143
  920TIP3    H124175   1.914   4.766  11.468 -0.2805  0.3151 -2.0197
  920TIP3    H224176   1.940   4.902  11.531  0.1775 -1.3144  1.5328
  921TIP3   OH224177   0.994   4.658  14.518 -0.1115  0.3148  0.3377
  921TIP3    H124178   1.087   4.650  14.541  0.1482  1.8174 -0.0954
  921TIP3    H224179   0.952   4.684  14.600 -0.3265 -1.2203  0.7548
  922TIP3   OH224180   2.973   3.450   2.974  0.4244 -0.0268  0.0478
  922TIP3    H124181   3.050   3.434   3.028  0.8221  1.9164  0.1020
  922TIP3    H224182   2.995   3.414   2.888  0.9139 -0.5184  0.3742
  923TIP3   OH224183   2.871   6.440   1.742  0.5876 -0.2251  0.4633
  923TIP3    H124184   2.844   6.365   1.690 -0.7849  0.0790  0.7018
  923TIP3    H224185   2.861   6.412   1.833  1.3724 -0.1940  0.5688
  924TIP3   OH224186   4.693   0.779  16.975 -0.1178 -0.0740  0.0885
  924TIP3    H124187   4.719   0.844  16.909 -1.2387  0.2997  0.0011
  924TIP3    H224188   4.715   0.695  16.935  0.3338  0.1973 -0.2496
  925TIP3   OH224189   1.957   4.859  14.117  0.0732  0.4441 -0.3528
  925TIP3    H124190   1.983   4.925  14.181 -1.4651  2.4012 -1.6313
  925TIP3    H224191   1.878   4.820  14.154  0.7685 -0.4585  0.2222
  926TIP3   OH224192   2.350   0.667  14.044 -0.1407 -0.1152  0.2362
  926TIP3    H124193   2.403   0.648  14.122 -0.9690  1.8091  1.3200
  926TIP3    H224194   2.413   0.698  13.979  0.3385 -0.0363  0.7357
  927TIP3   OH224195   0.138   1.565  11.695  0.0399 -0.2109 -0.8080
  927TIP3    H124196   0.154   1.659  11.692 -1.7848  0.1792 -0.0153
  927TIP3    H224197   0.104   1.549  11.783  0.2159 -1.5912 -0.9682
  928TIP3   OH224198   1.467   2.408   5.130  0.3092 -0.3348 -0.0675
  928TIP3    H124199   1.527   2.361   5.072  2.0758  1.2287  0.4141
  928TIP3    H224200   1.463   2.497   5.095  0.1783  0.2325  1.3073
  929TIP3   OH224201   4.304   5.027  17.162  0.5280  0.5326 -0.5235
  929TIP3    H124202   4.275   4.994  17.077 -1.0046  0.5732 -0.0424
  929TIP3    H224203   4.373   4.966  17.190  0.8615  0.3764 -1.6631
  930TIP3   OH224204   4.198   1.417   1.110  0.1630  0.3801  0.7946
  930TIP3    H124205   4.166   1.327   1.109  0.4078  0.2902  0.1316
  930TIP3    H224206   4.129   1.468   1.067 -0.3369  0.6501  1.8801
  931TIP3   OH224207   4.957   1.618   1.291 -0.3339 -0.3262  0.3835
  931TIP3    H124208   5.046   1.608   1.327  0.1234 -0.2497 -0.6890
  931TIP3    H224209   4.906   1.654   1.364  0.7148  0.4400  0.7712
  932TIP3   OH224210   2.262   2.700  12.373  0.3310  0.5537 -0.2685
  932TIP3    H124211   2.238   2.736  12.458 -1.0412 -0.4645 -0.1934
  932TIP3    H224212   2.196   2.735  12.313  0.1678 -0.2145 -0.5513
  933TIP3   OH224213   3.970   3.820  14.858 -0.3037  0.1122  0.4999
  933TIP3    H124214   3.967   3.733  14.897  0.0605  0.0576  0.4156
  933TIP3    H224215   4.059   3.827  14.824 -0.0059  0.9193  1.4220
  934TIP3   OH224216   0.611   2.281   4.615  0.6474 -0.3149  0.5065
  934TIP3    H124217   0.518   2.281   4.637  0.3742  0.7465 -0.5770
  934TIP3    H224218   0.615   2.255   4.523  1.3260  0.6803  0.2306
  935TIP3   OH224219   6.755   5.595  11.443 -0.0659  0.3629 -0.2074
  935TIP3    H124220   6.760   5.502  11.463  1.5818  0.4634 -0.0738
  935TIP3    H224221   6.773   5.639  11.526 -0.1799  0.8023 -0.4116
  936TIP3   OH224222   0.911   6.235   4.632  0.3728  0.7261 -0.0796
  936TIP3    H124223   0.937   6.167   4.694 -1.6413 -0.2204 -0.1878
  936TIP3    H224224   0.956   6.212   4.551 -1.1213 -1.2215 -0.4482
  937TIP3   OH224225   3.226   3.679   3.686  0.4497 -0.4829 -0.4599
  937TIP3    H124226   3.146   3.637   3.720 -0.4631  1.5098  0.0097
  937TIP3    H224227   3.269   3.714   3.764 -1.6787  4.1807 -1.0344
  938TIP3   OH224228   2.768   3.083   1.214  0.2019  0.2375 -0.2555
  938TIP3    H124229   2.825   3.131   1.154  1.7513 -1.4336 -0.1951
  938TIP3    H224230   2.828   3.042   1.276 -1.0811 -1.4060 -0.0477
  939TIP3   OH224231   2.105   6.342  14.022 -0.3371 -0.0613 -0.1875
  939TIP3    H124232   2.051   6.277  14.066 -1.4968  1.5403  0.8618
  939TIP3    H224233   2.069   6.426  14.049  1.9208  1.0740 -0.4470
  940TIP3   OH224234   5.447   2.126   4.561  0.0773 -0.3822  0.3033
  940TIP3    H124235   5.435   2.175   4.643  1.4014 -0.9612  0.8723
  940TIP3    H224236   5.367   2.073   4.554 -0.2611  0.0101  0.9775
  941TIP3   OH224237   2.862   5.066   1.661 -0.5063  0.5058  0.1775
  941TIP3    H124238   2.853   4.971   1.671 -0.3495  0.4707 -0.0037
  941TIP3    H224239   2.786   5.102   1.706 -1.3546  0.2346 -0.9796
  942TIP3   OH224240   2.739   4.189   3.565  0.5637 -0.3174 -0.7098
  942TIP3    H124241   2.829   4.206   3.591  0.9249 -0.9354 -1.4810
  942TIP3    H224242   2.702   4.275   3.545  0.7817 -0.0035  0.1986
  943TIP3   OH224243   3.074   5.592  14.071 -0.4386  0.7199 -0.2407
  943TIP3    H124244   3.127   5.586  14.151  0.9949  1.4717 -1.0818
  943TIP3    H224245   3.111   5.526  14.012  0.4047  2.0241 -1.2562
  944TIP3   OH224246   4.139   3.168  13.141  0.2752 -0.7967 -0.8139
  944TIP3    H124247   4.046   3.156  13.158  0.2962  2.0566  2.4274
  944TIP3    H224248   4.182   3.109  13.203  0.6592 -1.6291 -1.8483
  945TIP3   OH224249   0.409   3.232   6.115 -0.8079 -0.2887  0.5062
  945TIP3    H124250   0.423   3.155   6.170 -1.8713 -1.2442 -0.4864
  945TIP3    H224251   0.321   3.263   6.138 -1.6762 -1.2776 -1.2296
  946TIP3   OH224252   5.685   0.661   1.535 -0.2075 -0.5901 -0.2966
  946TIP3    H124253   5.761   0.719   1.523 -1.4123  1.0370 -0.4454
  946TIP3    H224254   5.721   0.573   1.527  1.6904  0.1217 -0.2307
  947TIP3   OH224255   6.131   5.403   1.764  0.0224  0.3427  0.0450
  947TIP3    H124256   6.156   5.316   1.734  0.8080  0.4937  0.2437
  947TIP3    H224257   6.207   5.458   1.744 -0.7673  1.1554 -0.8144
  948TIP3   OH224258   4.843   0.238  17.107 -0.3487  0.2223  0.2579
  948TIP3    H124259   4.909   0.300  17.075  0.9141 -2.2022 -2.2608
  948TIP3    H224260   4.869   0.220  17.197  0.3781  1.8276  0.4143
  949TIP3   OH224261   0.654   3.530   0.143 -0.1923 -0.1740 -0.1161
  949TIP3    H124262   0.587   3.573   0.091  0.3182 -2.1979 -2.7018
  949TIP3    H224263   0.607   3.463   0.193 -0.6039  1.4027  1.7465
  950TIP3   OH224264   6.235   0.558  16.419 -0.2343  0.1045 -0.1503
  950TIP3    H124265   6.203   0.554  16.509  1.8947  1.7475  0.7658
  950TIP3    H224266   6.210   0.645  16.388  0.5375  0.1976 -0.5263
  951TIP3   OH224267   3.586   5.537  17.021  0.2857 -0.2190  0.4432
  951TIP3    H124268   3.676   5.568  17.008  0.1478 -0.6419 -1.9428
  951TIP3    H224269   3.593   5.442  17.021 -0.1302 -0.2512  0.3185
  952TIP3   OH224270   0.953   3.452   6.593  0.2182 -0.2911 -0.2684
  952TIP3    H124271   1.041   3.420   6.613  1.1240  1.1766 -1.6682
  952TIP3    H224272   0.959   3.547   6.602 -1.1721 -0.1502 -0.6106
  953TIP3   OH224273   1.112   1.346  13.754  0.4572 -0.1846  0.1037
  953TIP3    H124274   1.038   1.322  13.698  0.0723 -0.0106  0.5312
  953TIP3    H224275   1.189   1.318  13.705  0.1414  0.1941 -0.6278
  954TIP3   OH224276   2.069   4.489   2.927  0.6759  0.0976  0.3248
  954TIP3    H124277   1.980   4.520   2.910  0.7245  0.5381  0.8629
  954TIP3    H224278   2.060   4.425   2.998  0.5616 -1.2478 -0.8493
  955TIP3   OH224279   4.022   5.986  13.816  0.6689 -0.1546  0.3231
  955TIP3    H124280   4.087   5.963  13.883 -0.1415 -2.2937  0.4819
  955TIP3    H224281   3.941   6.002  13.866  0.3329 -0.6361 -0.0544
  956TIP3   OH224282   5.704   1.721  12.849  0.0303 -0.0855 -0.0819
  956TIP3    H124283   5.650   1.743  12.925  0.5839 -0.2094  0.3542
  956TIP3    H224284   5.662   1.644  12.810 -0.9573  0.6993 -0.6303
  957TIP3   OH224285   5.320   6.121   3.465  0.1235 -0.7228  0.3001
  957TIP3    H124286   5.322   6.027   3.446  0.0657 -1.5359  3.6784
  957TIP3    H224287   5.397   6.136   3.519 -1.0225  0.6790  1.6271
  958TIP3   OH224288   4.117   5.226  11.271 -0.2426 -0.2577  0.4405
  958TIP3    H124289   4.048   5.235  11.205 -0.7316  0.4132  1.0311
  958TIP3    H224290   4.198   5.240  11.222 -0.6873  2.0633  0.2764
  959TIP3   OH224291   5.367   5.912  14.839 -0.5923  0.2035  0.7168
  959TIP3    H124292   5.349   5.893  14.931  0.8494 -2.3177  0.5582
  959TIP3    H224293   5.281   5.933  14.801 -1.7752 -2.0017  1.9651
  960TIP3   OH224294   2.376   5.612  14.938 -0.3813  0.0566  0.4023
  960TIP3    H124295   2.372   5.518  14.956  1.0954 -0.1659 -0.3017
  960TIP3    H224296   2.441   5.621  14.869  1.4869  1.8507  2.2558
  961TIP3   OH224297   6.587   5.103   1.809 -0.2068  0.0811 -0.0791
  961TIP3    H124298   6.506   5.070   1.772 -1.3434  1.8420  0.7335
  961TIP3    H224299   6.624   5.027   1.855 -1.1382 -0.8562 -0.8100
  962TIP3   OH224300   5.333   1.748  13.672 -0.2137  0.2978 -0.3351
  962TIP3    H124301   5.267   1.802  13.629 -0.2220 -1.2028 -2.2980
  962TIP3    H224302   5.283   1.688  13.728 -0.2047  2.1861  1.8543
  963TIP3   OH224303   0.504   3.653  13.341 -0.2985  0.2138 -0.6944
  963TIP3    H124304   0.501   3.717  13.413 -2.1179  0.4060 -0.9017
  963TIP3    H224305   0.595   3.657  13.310 -0.1803  2.2036 -0.2566
  964TIP3   OH224306   3.884   2.219  16.959  0.3342 -0.2872 -0.2484
  964TIP3    H124307   3.829   2.142  16.975 -0.2570  0.2411  0.3102
  964TIP3    H224308   3.826   2.294  16.976  0.6942  0.2984 -1.4471
  965TIP3   OH224309   0.546   5.076  11.998 -0.1924 -0.1974  0.5887
  965TIP3    H124310   0.562   5.005  11.936  1.8208  0.2161  0.5647
  965TIP3    H224311   0.547   5.034  12.084 -1.2411 -0.5045  0.4671
  966TIP3   OH224312   1.544   2.778  14.018 -0.8061  0.2112 -0.0475
  966TIP3    H124313   1.517   2.686  14.013 -0.0633 -0.0059 -0.1178
  966TIP3    H224314   1.614   2.787  13.954 -0.6039  0.7311  0.2352
  967TIP3   OH224315   3.234   1.581  13.388  0.2993  0.1030 -0.2415
  967TIP3    H124316   3.183   1.616  13.315 -0.3642  0.6343  0.4534
  967TIP3    H224317   3.218   1.486  13.385  1.4854 -0.0711 -1.6679
  968TIP3   OH224318   4.881   6.696  13.333  0.1302 -0.1759 -0.0792
  968TIP3    H124319   4.927   6.652  13.261 -0.8597 -2.0298  0.3574
  968TIP3    H224320   4.932   6.674  13.411 -0.2293 -0.3294  0.1125
  969TIP3   OH224321   2.901   0.552   5.122  0.1199 -0.5089 -0.1310
  969TIP3    H124322   2.924   0.479   5.179 -2.1517 -1.0883  0.1236
  969TIP3    H224323   2.816   0.529   5.086 -0.5369  1.8880 -0.2884
  970TIP3   OH224324   0.933   1.082   5.877 -0.1396 -1.1594  0.2918
  970TIP3    H124325   0.842   1.107   5.892  0.0347 -0.3743  0.1031
  970TIP3    H224326   0.961   1.042   5.960 -0.5610 -1.1122  0.4575
  971TIP3   OH224327   2.002   1.289  12.270 -0.0657  0.1601 -0.9380
  971TIP3    H124328   1.969   1.226  12.206 -1.5990  0.4665 -0.4798
  971TIP3    H224329   2.065   1.239  12.322 -1.1356 -0.9805 -0.6882
  972TIP3   OH224330   6.663   2.078  12.056  0.0147  0.5121  0.2090
  972TIP3    H124331   6.702   1.991  12.060  1.5463  0.9903 -2.3417
  972TIP3    H224332   6.568   2.061  12.051 -0.1242 -0.7487  4.0252
  973TIP3   OH224333   6.403   4.203  15.277 -0.2028 -0.1376  0.5214
  973TIP3    H124334   6.329   4.180  15.221  1.0796  0.0092 -1.3208
  973TIP3    H224335   6.397   4.142  15.351 -1.6526 -0.6908 -0.0160
  974TIP3   OH224336   2.006   1.375  16.925  0.5700  0.6038 -0.1129
  974TIP3    H124337   2.031   1.454  16.973 -1.5630  0.3245  1.6038
  974TIP3    H224338   1.917   1.392  16.895 -1.0209 -2.0077  2.5672
  975TIP3   OH224339   1.241   2.145  17.186  0.2368  0.0350  0.3366
  975TIP3    H124340   1.183   2.195  17.243 -0.2390  0.2757 -0.3438
  975TIP3    H224341   1.195   2.061  17.174 -0.6024  0.6770 -1.1952
  976TIP3   OH224342   2.211   5.682  14.282  0.3172 -0.1096  0.5242
  976TIP3    H124343   2.298   5.646  14.298 -0.1112 -0.1167  3.3792
  976TIP3    H224344   2.157   5.646  14.352 -2.2227 -0.6957 -1.5612
  977TIP3   OH224345   5.923   0.029  13.692 -0.0573 -0.2953 -0.2777
  977TIP3    H124346   5.931  -0.065  13.703  1.0250 -0.6405 -3.2082
  977TIP3    H224347   5.832   0.048  13.718 -0.4184 -2.1804 -0.0017
  978TIP3   OH224348   2.729   5.368   3.365 -0.5402 -0.0502 -0.2470
  978TIP3    H124349   2.741   5.459   3.394 -0.1255 -0.2024  0.0626
  978TIP3    H224350   2.763   5.367   3.276  1.2871 -0.3382  0.4145
  979TIP3   OH224351   1.242   4.080   3.786 -0.0156 -0.2698 -0.3015
  979TIP3    H124352   1.163   4.104   3.835  1.0524  2.4106  0.3355
  979TIP3    H224353   1.280   4.008   3.836 -1.2552 -0.5437  0.2767
  980TIP3   OH224354   1.954   5.464   5.641 -0.0063 -0.0876  0.1000
  980TIP3    H124355   1.895   5.500   5.706  1.2545  0.7147  0.8318
  980TIP3    H224356   1.962   5.371   5.664  0.0885  0.0978  0.8171
  981TIP3   OH224357   4.160   3.029   1.799  0.0015 -0.0355 -0.4605
  981TIP3    H124358   4.068   3.024   1.776 -0.6001 -0.8265  1.8265
  981TIP3    H224359   4.177   3.123   1.810 -1.0081  0.0463  0.6632
  982TIP3   OH224360   6.312   1.940   1.020 -0.1516 -0.0527 -0.3638
  982TIP3    H124361   6.305   2.015   0.961  0.7923  0.0920 -0.3209
  982TIP3    H224362   6.292   1.975   1.107  0.0255  0.0966 -0.3822
  983TIP3   OH224363   1.652   2.175  12.919 -0.3060  0.1226  0.2160
  983TIP3    H124364   1.706   2.121  12.977 -0.0646 -0.7428 -0.7960
  983TIP3    H224365   1.594   2.223  12.979  1.0257  0.4878  1.2705
  984TIP3   OH224366   3.668   4.507   4.846  0.0972  0.2035 -0.5637
  984TIP3    H124367   3.688   4.559   4.924 -0.4608  1.3614 -1.1663
  984TIP3    H224368   3.573   4.516   4.835 -0.2033 -1.8685 -0.0651
  985TIP3   OH224369   0.636   2.870   2.463  0.2177  0.3291  0.2730
  985TIP3    H124370   0.628   2.826   2.548 -0.6963 -0.5071 -0.2242
  985TIP3    H224371   0.579   2.819   2.405 -1.1900  2.3921 -0.2455
  986TIP3   OH224372   4.029   5.791   4.159 -0.5031  0.1935  0.0511
  986TIP3    H124373   4.078   5.786   4.076 -2.4209 -0.3433 -1.1106
  986TIP3    H224374   4.085   5.843   4.216  0.2413  1.9107 -2.0667
  987TIP3   OH224375   5.202   2.438  12.021 -0.3734 -0.3025 -0.2670
  987TIP3    H124376   5.119   2.395  12.001 -0.5552  0.3883 -1.0381
  987TIP3    H224377   5.206   2.438  12.117 -2.1222  1.2087 -0.1356
  988TIP3   OH224378   3.764   1.338   2.515  0.5278 -0.2505 -0.0694
  988TIP3    H124379   3.759   1.269   2.450  0.0899  0.5792 -0.9389
  988TIP3    H224380   3.710   1.409   2.480  2.6486  1.3946 -0.2414
  989TIP3   OH224381   2.270   5.414   2.882 -0.6507  0.1645  0.4165
  989TIP3    H124382   2.340   5.349   2.888 -0.7297  0.1576  1.3216
  989TIP3    H224383   2.259   5.428   2.788  1.8125  1.5308  0.2650
  990TIP3   OH224384   3.204   6.161   4.751  0.2510  0.2179  0.0357
  990TIP3    H124385   3.246   6.092   4.700 -0.3808  0.5166 -0.9220
  990TIP3    H224386   3.233   6.145   4.841  3.3017  1.0698 -0.6697
  991TIP3   OH224387   4.463   1.962   3.974 -0.4275 -0.2318 -0.1736
  991TIP3    H124388   4.483   2.054   3.955 -2.6284  0.5608  0.9823
  991TIP3    H224389   4.440   1.961   4.067  0.0678 -2.0729 -0.0247
  992TIP3   OH224390   1.743   2.636   5.167 -0.1849  0.5131  0.4646
  992TIP3    H124391   1.712   2.562   5.114 -2.5605  2.2680 -0.7841
  992TIP3    H224392   1.818   2.671   5.118  0.8506 -0.8583  0.9762
  993TIP3   OH224393   2.998   5.482   0.723  0.0114 -0.0492 -0.5380
  993TIP3    H124394   3.006   5.577   0.712  0.8223 -0.2140 -1.5281
  993TIP3    H224395   3.046   5.445   0.649  0.1773 -1.2430  0.1430
  994TIP3   OH224396   1.662   3.979   1.586  0.0079 -0.5795 -0.0428
  994TIP3    H124397   1.660   4.075   1.593 -0.8725 -0.7046  1.9253
  994TIP3    H224398   1.672   3.963   1.492  1.1811  1.4324 -0.3304
  995TIP3   OH224399   1.980   2.055  13.745  0.5538 -0.0706  0.3654
  995TIP3    H124400   1.985   1.997  13.820 -1.3129 -2.0840 -0.9393
  995TIP3    H224401   2.030   2.011  13.676 -0.3284  0.1571 -0.4504
  996TIP3   OH224402   0.365   3.550  11.970  0.1787 -0.4297 -0.2122
  996TIP3    H124403   0.353   3.458  11.948  1.2632 -0.2194 -1.8372
  996TIP3    H224404   0.391   3.550  12.062 -2.3594 -1.5224  0.5958
  997TIP3   OH224405   6.277   2.137  12.656  0.3853 -0.3958 -0.2578
  997TIP3    H124406   6.330   2.185  12.719  1.5672 -0.0177 -1.4986
  997TIP3    H224407   6.273   2.194  12.579 -1.7902 -0.4430 -0.2382
  998TIP3   OH224408   0.696   4.589  11.033  0.5524 -0.5441 -0.4178
  998TIP3    H124409   0.613   4.634  11.046  0.8307 -0.2894  0.5549
  998TIP3    H224410   0.733   4.629  10.954  0.4675  0.4528  0.0325
  999TIP3   OH224411   6.085   5.391  14.434  0.2143 -0.0973 -0.2845
  999TIP3    H124412   6.009   5.342  14.465 -0.0413  0.1500 -0.5097
  999TIP3    H224413   6.140   5.403  14.512  0.0936 -0.4044 -0.1523
 1000TIP3   OH224414   6.103   0.500  13.914 -0.1773 -0.1504 -0.1962
 1000TIP3    H124415   6.057   0.435  13.967  0.6125 -0.4063  0.1945
 1000TIP3    H224416   6.130   0.567  13.976 -0.2323  0.1175 -0.4597
 1001TIP3   OH224417   3.106   0.616  12.684  0.1945  0.1374 -0.4712
 1001TIP3    H124418   3.068   0.646  12.766  3.1223  2.2574  0.2741
 1001TIP3    H224419   3.054   0.658  12.616 -1.6540 -0.8640  0.2644
 1002TIP3   OH224420   3.239   1.181  12.323 -0.3927  0.3076 -0.0776
 1002TIP3    H124421   3.303   1.212  12.387  0.5741  0.3089 -1.0121
 1002TIP3    H224422   3.258   1.232  12.243 -2.4557  1.3189 -0.0104
 1003TIP3   OH224423   1.072   4.510   5.550 -0.3649 -0.3222 -0.0717
 1003TIP3    H124424   1.135   4.464   5.607 -1.0336  1.2696  2.1054
 1003TIP3    H224425   0.987   4.488   5.587 -0.7268  2.2852  0.8505
 1004TIP3   OH224426   5.509   6.077  11.854 -0.4253  0.5865  0.4086
 1004TIP3    H124427   5.458   6.112  11.781 -1.1587  0.4132  0.8251
 1004TIP3    H224428   5.520   5.984  11.833  2.3578  1.1736 -1.1826
 1005TIP3   OH224429   3.610   2.057  13.937 -0.1135  0.2107  0.1274
 1005TIP3    H124430   3.586   1.966  13.954  0.3313  0.0258 -0.2217
 1005TIP3    H224431   3.546   2.088  13.873 -2.2741  1.1382  2.5702
 1006TIP3   OH224432   5.798   2.739  16.368  0.2151 -0.9401  0.5045
 1006TIP3    H124433   5.881   2.716  16.408  0.6429 -0.0786  0.1376
 1006TIP3    H224434   5.796   2.835  16.369  0.1316 -0.8908 -1.2550
 1007TIP3   OH224435   5.440   3.446  14.567  0.4439  1.0262 -0.1917
 1007TIP3    H124436   5.481   3.499  14.499 -0.5444  2.6119  0.3814
 1007TIP3    H224437   5.505   3.440  14.636 -0.0422  3.1221  0.5150
 1008TIP3   OH224438   2.506   2.240  14.581  0.6354  0.3956  0.0541
 1008TIP3    H124439   2.570   2.296  14.537 -2.2731  2.1287 -2.3412
 1008TIP3    H224440   2.425   2.290  14.580 -1.1911 -2.2420  1.6177
 1009TIP3   OH224441   3.666   1.667  16.027  0.3725  0.2241  0.3643
 1009TIP3    H124442   3.624   1.651  16.112  0.7096  0.5410  0.5942
 1009TIP3    H224443   3.594   1.683  15.967  0.1961  2.6737  1.1354
 1010TIP3   OH224444   1.499   5.300   4.473  0.0355  0.1261  0.4737
 1010TIP3    H124445   1.446   5.365   4.520  0.2968  0.8215 -0.1834
 1010TIP3    H224446   1.571   5.281   4.533 -0.1922  0.2279  0.7862
 1011TIP3   OH224447   3.134   2.462  12.044  0.1146 -0.0459 -0.1817
 1011TIP3    H124448   3.094   2.525  11.984  0.5736  0.3825 -0.0469
 1011TIP3    H224449   3.175   2.516  12.111 -1.6694 -0.5357  1.3801
 1012TIP3   OH224450   2.757   0.257   5.329  0.0835 -0.5274 -0.6411
 1012TIP3    H124451   2.725   0.168   5.314  0.8515 -0.8137 -0.6280
 1012TIP3    H224452   2.848   0.255   5.300  1.4829 -0.9180  3.2434
 1013TIP3   OH224453   5.606   4.846  15.192 -0.0010  0.0979  0.1154
 1013TIP3    H124454   5.638   4.777  15.249  1.4776 -1.0688 -1.9787
 1013TIP3    H224455   5.681   4.905  15.182 -1.0388  1.7102  1.3523
 1014TIP3   OH224456   2.039   4.896   2.113  0.3373 -0.1624 -0.0864
 1014TIP3    H124457   2.080   4.918   2.029  0.5401  1.3649  0.3825
 1014TIP3    H224458   2.098   4.832   2.153  0.4134 -0.6430 -0.9592
 1015TIP3   OH224459   5.286   3.947  17.224  0.9732  0.2794  0.3635
 1015TIP3    H124460   5.229   3.930  17.299  0.6370  0.3227  0.1188
 1015TIP3    H224461   5.266   3.877  17.162  1.7831 -0.1885  0.6181
 1016TIP3   OH224462   0.386   6.596  16.455 -0.0267 -0.0968 -0.5466
 1016TIP3    H124463   0.377   6.545  16.535 -1.2978  2.0316  0.7655
 1016TIP3    H224464   0.349   6.540  16.387  0.0811 -1.5288  0.5310
 1017TIP3   OH224465   2.418   0.807   1.949  0.1160 -0.2702 -0.1065
 1017TIP3    H124466   2.329   0.807   1.915 -0.5421  3.3073  1.2068
 1017TIP3    H224467   2.424   0.727   2.002 -2.5299 -0.2838  0.3007
 1018TIP3   OH224468   0.684   4.569  14.765 -0.1623 -0.6304 -0.0604
 1018TIP3    H124469   0.670   4.663  14.774 -0.6297 -0.6398 -0.6087
 1018TIP3    H224470   0.763   4.551  14.816  0.8787  0.3317 -1.2722
 1019TIP3   OH224471   2.899   2.103   3.435  0.4951  0.4964  0.0048
 1019TIP3    H124472   2.886   2.189   3.476 -0.3020 -0.3539  1.6219
 1019TIP3    H224473   2.991   2.081   3.453 -0.3244 -0.7634  3.3171
 1020TIP3   OH224474   5.611   3.308  15.770  0.3911  0.1505 -0.1359
 1020TIP3    H124475   5.652   3.246  15.830 -1.4527  0.0377  1.1000
 1020TIP3    H224476   5.583   3.381  15.827 -2.7016 -0.5989 -0.5123
 1021TIP3   OH224477   6.297   3.783   2.340 -0.5785  0.4916  0.4564
 1021TIP3    H124478   6.369   3.738   2.384 -0.4692  0.1881 -0.0252
 1021TIP3    H224479   6.330   3.800   2.252 -1.1477  0.2200  0.1846
 1022TIP3   OH224480   5.563   6.452   2.994 -0.1394  0.4105  0.3587
 1022TIP3    H124481   5.489   6.399   3.024 -1.0848  2.0398  1.0518
 1022TIP3    H224482   5.575   6.426   2.903  0.1220 -1.7057  0.9476
 1023TIP3   OH224483   4.211   5.893  13.366 -0.5845  0.1809  0.2142
 1023TIP3    H124484   4.131   5.841  13.372 -0.2373 -0.2702  1.1174
 1023TIP3    H224485   4.274   5.847  13.423  0.2082  0.7145 -0.2170
 1024TIP3   OH224486   5.484   4.832   5.356 -0.0275 -0.1393 -0.5216
 1024TIP3    H124487   5.570   4.799   5.382 -0.2407 -0.0928  0.2602
 1024TIP3    H224488   5.493   4.928   5.360  0.6736 -0.0314 -3.0521
 1025TIP3   OH224489   5.566   2.856   4.707  0.8843  0.4861  1.1352
 1025TIP3    H124490   5.627   2.814   4.646 -2.2252 -1.6813 -0.7390
 1025TIP3    H224491   5.549   2.941   4.669  1.9766  0.7610  1.2139
 1026TIP3   OH224492   5.276   5.528   5.160 -0.8755  0.2387  0.5846
 1026TIP3    H124493   5.334   5.457   5.188  0.6130  0.9239 -0.6236
 1026TIP3    H224494   5.189   5.501   5.189 -0.1761 -1.5339  1.1433
 1027TIP3   OH224495   6.430   3.823   3.406 -0.1101 -0.0788  0.1384
 1027TIP3    H124496   6.506   3.864   3.365  0.8148 -1.2230  0.6146
 1027TIP3    H224497   6.467   3.749   3.455 -1.7717 -2.1600 -1.5405
 1028TIP3   OH224498   3.703   0.111   3.038 -0.1836 -0.0295  0.1101
 1028TIP3    H124499   3.689   0.042   3.102 -0.0078 -1.1765 -1.0414
 1028TIP3    H224500   3.765   0.171   3.080 -0.8255 -0.2171  1.3716
 1029TIP3   OH224501   1.954   1.873  10.967  0.0685  0.5438 -0.2734
 1029TIP3    H124502   1.897   1.940  11.004 -1.4890 -0.0067 -1.5588
 1029TIP3    H224503   1.897   1.798  10.951  1.2810 -0.2625 -1.0152
 1030TIP3   OH224504   3.246   5.749  12.408 -0.0477 -0.6067 -0.4427
 1030TIP3    H124505   3.289   5.808  12.470 -2.0667  0.0785  0.3571
 1030TIP3    H224506   3.238   5.666  12.456 -2.4891  0.1978  0.6646
 1031TIP3   OH224507   0.864   0.986   3.855  0.2551  0.1452 -0.5758
 1031TIP3    H124508   0.932   0.988   3.787 -0.1313 -0.6344 -1.0013
 1031TIP3    H224509   0.810   0.910   3.833  0.8259 -0.8639  1.3168
 1032TIP3   OH224510   3.494   0.809   1.828 -0.0720 -0.1892 -0.4581
 1032TIP3    H124511   3.539   0.742   1.878  1.4169  1.1248  0.0574
 1032TIP3    H224512   3.445   0.859   1.893  1.7707  1.4483 -0.2414
 1033TIP3   OH224513   6.460   2.508   2.319 -0.2625 -0.1808 -0.2516
 1033TIP3    H124514   6.401   2.532   2.390 -2.0248  1.4243 -2.0974
 1033TIP3    H224515   6.547   2.529   2.351 -1.0617  1.1474  1.1903
 1034TIP3   OH224516   6.427   6.423  14.126  0.5576 -0.1873  0.2054
 1034TIP3    H124517   6.498   6.446  14.067  0.7967 -1.3860 -0.0088
 1034TIP3    H224518   6.350   6.468  14.091  0.6312 -1.1182 -1.2262
 1035TIP3   OH224519   2.127   4.381   1.264  0.8074  0.5576  0.1032
 1035TIP3    H124520   2.201   4.331   1.299  0.9740  1.0832  0.5240
 1035TIP3    H224521   2.134   4.372   1.169  1.8435  1.1915  0.0999
 1036TIP3   OH224522   2.749   4.846   1.378 -0.1630  0.1269  0.3534
 1036TIP3    H124523   2.751   4.785   1.304  0.9287  0.6616 -0.0754
 1036TIP3    H224524   2.806   4.918   1.352 -0.5309  0.7981  1.3248
 1037TIP3   OH224525   4.851   5.818   1.967  0.2620 -0.0693  0.1960
 1037TIP3    H124526   4.849   5.901   2.015  1.5758  0.3961 -0.4856
 1037TIP3    H224527   4.943   5.808   1.940  0.2646 -2.0473  0.7674
 1038TIP3   OH224528   1.692   2.373  14.303  0.2567 -0.6257 -0.0453
 1038TIP3    H124529   1.760   2.360  14.368  0.9625  0.5231 -0.5243
 1038TIP3    H224530   1.738   2.371  14.219 -0.5644 -1.5798 -0.4963
 1039TIP3   OH224531   1.372   6.115  15.526 -0.1431 -0.2587  0.3940
 1039TIP3    H124532   1.308   6.092  15.592  0.6001 -1.3027  0.7822
 1039TIP3    H224533   1.421   6.188  15.564 -1.0405  0.5002  0.1189
 1040TIP3   OH224534   5.424   3.887  11.036 -0.0514 -0.2335  0.2352
 1040TIP3    H124535   5.432   3.906  11.129  1.5280  0.0259  0.0732
 1040TIP3    H224536   5.381   3.964  10.999 -0.8118 -0.3985  0.7559
 1041TIP3   OH224537   5.874   5.482   5.067  0.0593  0.1658 -0.2873
 1041TIP3    H124538   5.831   5.567   5.076 -0.5518 -0.0712 -0.8577
 1041TIP3    H224539   5.887   5.472   4.973 -1.0150 -0.9109 -0.3499
 1042TIP3   OH224540   0.426   2.101  11.912  0.2453  0.2392  0.1164
 1042TIP3    H124541   0.339   2.138  11.931 -0.3551 -0.4886 -1.0691
 1042TIP3    H224542   0.410   2.040  11.840  1.9023  0.8250 -0.7996
 1043TIP3   OH224543   2.326   0.826   4.293  0.2741 -0.3056  0.1221
 1043TIP3    H124544   2.362   0.898   4.345 -0.9499  1.4181 -1.2647
 1043TIP3    H224545   2.402   0.785   4.252  1.0056  0.1190  1.0077
 1044TIP3   OH224546   3.877   1.885   1.012 -0.2887 -0.4167  0.2334
 1044TIP3    H124547   3.856   1.805   1.060 -0.0099 -1.5355 -1.3967
 1044TIP3    H224548   3.955   1.861   0.961  0.5058  1.2856  0.5835
 1045TIP3   OH224549   1.392   5.578  16.883 -0.1283  0.8146 -0.4389
 1045TIP3    H124550   1.306   5.574  16.926  0.3624 -0.2055  0.5084
 1045TIP3    H224551   1.390   5.659  16.832 -1.5382  0.9569 -0.1915
 1046TIP3   OH224552   2.583   1.081  16.493  0.5631 -0.0525  0.1534
 1046TIP3    H124553   2.544   1.088  16.406 -0.1082  0.9461  0.5182
 1046TIP3    H224554   2.521   1.030  16.544 -0.2334  1.3981  0.6890
 1047TIP3   OH224555   6.262   4.473  15.014  0.2550  0.1115 -0.0060
 1047TIP3    H124556   6.345   4.517  14.996 -1.0201  2.3354 -0.7303
 1047TIP3    H224557   6.250   4.481  15.109 -0.2574  1.9765 -0.1964
 1048TIP3   OH224558   5.024   6.024   0.519  0.1028 -0.4289 -0.2725
 1048TIP3    H124559   5.019   6.058   0.608 -1.2033  0.7464 -0.7499
 1048TIP3    H224560   4.964   5.948   0.519 -0.5710  0.0947 -0.3529
 1049TIP3   OH224561   1.075   6.103  16.637 -0.7488  0.4669  0.3482
 1049TIP3    H124562   1.141   6.036  16.620  0.6224  1.8683 -0.1657
 1049TIP3    H224563   1.055   6.139  16.550 -0.2399  1.7950  0.7548
 1050TIP3   OH224564   6.430   2.805   3.903  0.2259  0.4324  0.0172
 1050TIP3    H124565   6.508   2.808   3.958  0.0370  0.5588  0.2769
 1050TIP3    H224566   6.418   2.895   3.872  1.0928  0.1163 -1.2997
 1051TIP3   OH224567   2.442   2.570   0.161 -0.3794  0.0283 -0.1414
 1051TIP3    H124568   2.459   2.477   0.171  1.6691  0.6317  4.0044
 1051TIP3    H224569   2.351   2.582   0.189  0.9785 -0.3005  5.5790
 1052TIP3   OH224570   4.945   6.739   4.935  0.8000  0.9351 -0.4607
 1052TIP3    H124571   4.968   6.654   4.897  0.9625 -0.1319  1.8911
 1052TIP3    H224572   5.026   6.789   4.933  1.0928  0.4669 -0.4228
 1053TIP3   OH224573   6.350   1.205   6.401  0.0686 -0.1054  0.2945
 1053TIP3    H124574   6.344   1.261   6.478  0.4888 -1.6834  1.5265
 1053TIP3    H224575   6.367   1.265   6.328 -0.5011  1.4313  1.3971
 1054TIP3   OH224576   0.239   3.846  16.831  0.5170 -0.0054  0.3576
 1054TIP3    H124577   0.332   3.826  16.838  0.4330 -0.5186  0.0054
 1054TIP3    H224578   0.194   3.767  16.861  0.1881 -0.2135 -0.6482
 1055TIP3   OH224579   6.601   4.397  14.807  0.2743  0.4594  0.0063
 1055TIP3    H124580   6.536   4.328  14.792 -0.2387  1.1376 -1.0418
 1055TIP3    H224581   6.593   4.418  14.900  0.5928 -1.0251  0.4012
 1056TIP3   OH224582   2.257   6.075  14.731 -0.1140  0.0597 -0.0506
 1056TIP3    H124583   2.221   5.994  14.767  1.0709 -0.1105  0.7990
 1056TIP3    H224584   2.349   6.074  14.756 -0.4107  2.4788  1.5475
 1057TIP3   OH224585   5.038   4.129   6.194  0.5298  0.1938 -0.1845
 1057TIP3    H124586   4.943   4.124   6.194  0.5107 -0.5427 -2.6836
 1057TIP3    H224587   5.065   4.090   6.111  2.8608  3.2965 -1.0716
 1058TIP3   OH224588   2.562   2.374   4.076  0.8378  0.9560  0.0036
 1058TIP3    H124589   2.640   2.412   4.116  0.6550  0.6476  0.6845
 1058TIP3    H224590   2.510   2.343   4.151  0.2397  0.8263 -0.4557
 1059TIP3   OH224591   5.857   0.770   0.037  0.2432  0.1891  0.1259
 1059TIP3    H124592   5.922   0.804   0.098  0.4949 -2.2232  1.3071
 1059TIP3    H224593   5.908   0.746  -0.041  0.3874  0.4196  0.1466
 1060TIP3   OH224594   2.885   2.736   3.017 -0.8980  0.1489 -0.4655
 1060TIP3    H124595   2.893   2.803   2.949 -0.0630  0.3837 -0.1594
 1060TIP3    H224596   2.943   2.767   3.087  0.1850 -1.3121 -0.6665
 1061TIP3   OH224597   6.045   5.213   4.685  0.0768  0.5301  0.2131
 1061TIP3    H124598   6.079   5.131   4.722 -0.2794  1.2504  2.2875
 1061TIP3    H224599   5.980   5.185   4.620  0.6531 -0.8292  0.1893
 1062TIP3   OH224600   0.713   4.790   1.011  0.1078  0.3892 -0.2479
 1062TIP3    H124601   0.791   4.788   0.955 -0.4297  1.2159 -1.0467
 1062TIP3    H224602   0.731   4.859   1.074  0.2484  0.1941 -0.0691
 1063TIP3   OH224603   0.172   6.780  13.648 -0.3122  0.1225  0.2682
 1063TIP3    H124604   0.208   6.833  13.577  0.2956 -1.7749 -0.8937
 1063TIP3    H224605   0.249   6.750  13.697 -0.4964 -1.2359 -0.2425
 1064TIP3   OH224606   0.113   5.659   5.304  0.5548  0.0730 -0.1009
 1064TIP3    H124607   0.202   5.638   5.276  0.3077 -0.4817 -0.4798
 1064TIP3    H224608   0.124   5.698   5.391  1.0651 -1.3906  0.5190
 1065TIP3   OH224609   5.772   3.264  14.545 -0.4638 -0.1557 -0.0541
 1065TIP3    H124610   5.859   3.261  14.586 -0.6492  0.0757  0.3681
 1065TIP3    H224611   5.717   3.309  14.609 -0.6448  0.6787 -0.7813
 1066TIP3   OH224612   6.197   1.669   2.124  0.4419  0.1513 -0.1400
 1066TIP3    H124613   6.187   1.710   2.038  1.3394  0.8517  0.0675
 1066TIP3    H224614   6.260   1.725   2.170  0.4419 -0.5557  0.7534
 1067TIP3   OH224615   1.754   1.924  12.128 -0.9893  0.4310  0.3144
 1067TIP3    H124616   1.689   1.913  12.197 -1.4861  2.1908  0.1599
 1067TIP3    H224617   1.723   1.869  12.056 -2.5808  1.6115  0.0642
 1068TIP3   OH224618   1.925   0.862  14.791 -0.2792 -0.2584  0.0122
 1068TIP3    H124619   1.981   0.891  14.862 -0.3864 -0.5993  0.2398
 1068TIP3    H224620   1.899   0.942  14.746  2.0560 -0.1845 -1.3804
 1069TIP3   OH224621   6.423   2.273   2.634 -0.9221  0.0215  0.0101
 1069TIP3    H124622   6.436   2.195   2.688  0.9684  0.0608 -0.3142
 1069TIP3    H224623   6.444   2.244   2.545 -0.4069  0.8335 -0.1465
 1070TIP3   OH224624   1.365   2.733   2.243  0.2881  0.0019 -1.4925
 1070TIP3    H124625   1.448   2.775   2.221  0.1910  0.3985 -1.1138
 1070TIP3    H224626   1.300   2.775   2.186 -0.3635  2.6293  0.9569
 1071TIP3   OH224627   2.259   6.058   5.023 -0.1933 -0.3195  0.3282
 1071TIP3    H124628   2.228   5.982   5.073  0.0225 -0.6138  0.0159
 1071TIP3    H224629   2.289   6.120   5.090  0.7868 -1.0166  0.5410
 1072TIP3   OH224630   4.217   1.535   1.534 -0.0787 -0.3760 -0.3600
 1072TIP3    H124631   4.166   1.586   1.471  0.2273  0.4379  0.0280
 1072TIP3    H224632   4.188   1.568   1.620  1.8010  0.8478 -0.1443
 1073TIP3   OH224633   1.262   2.049   0.897  0.1171  0.5299  0.5184
 1073TIP3    H124634   1.301   1.971   0.856  2.5465  1.2479  1.3162
 1073TIP3    H224635   1.188   2.071   0.840 -0.8730 -2.4873  0.4199
 1074TIP3   OH224636   5.297   0.971  14.084 -0.4259 -0.0992  0.3781
 1074TIP3    H124637   5.272   0.879  14.090  0.0984 -0.2581  0.1586
 1074TIP3    H224638   5.392   0.971  14.093 -0.5223  0.5380  1.5855
 1075TIP3   OH224639   4.542   3.819   0.153  0.3884 -0.1865  0.1961
 1075TIP3    H124640   4.467   3.760   0.146  1.2813 -1.3972  0.3481
 1075TIP3    H224641   4.595   3.799   0.075  0.0386  1.4391 -0.5004
 1076TIP3   OH224642   4.652   4.708   2.664  0.1743  0.5524  0.1534
 1076TIP3    H124643   4.577   4.648   2.666  0.1091  0.6530  2.3226
 1076TIP3    H224644   4.728   4.652   2.679  0.7985  0.2499 -3.2347
 1077TIP3   OH224645   2.008   3.114   6.472  0.4648 -0.1001  0.7149
 1077TIP3    H124646   2.044   3.080   6.390 -0.1375  2.4385 -0.7291
 1077TIP3    H224647   2.070   3.182   6.499 -1.7021  2.4794 -0.3775
 1078TIP3   OH224648   4.872   2.692  13.962  0.1076  0.2714  0.0781
 1078TIP3    H124649   4.933   2.639  14.014 -0.6730  1.1918  2.0553
 1078TIP3    H224650   4.876   2.779  14.003  0.4343  1.4576 -2.2882
 1079TIP3   OH224651   0.269   2.168  14.735 -0.3474 -0.0709  0.6541
 1079TIP3    H124652   0.354   2.163  14.691 -1.0918 -0.9517 -0.7483
 1079TIP3    H224653   0.271   2.252  14.782  1.6600 -0.5143  1.4797
 1080TIP3   OH224654   6.476   4.460   5.750 -0.5528  0.5000 -0.0828
 1080TIP3    H124655   6.452   4.482   5.660 -1.7619 -1.3578 -0.2550
 1080TIP3    H224656   6.438   4.374   5.765 -0.5784  0.8651  2.2972
 1081TIP3   OH224657   3.692   0.409  12.559 -0.4296 -0.6675 -0.1116
 1081TIP3    H124658   3.674   0.378  12.470  0.6637  0.2018 -0.6569
 1081TIP3    H224659   3.696   0.504  12.550 -0.2144 -0.5827  0.8548
 1082TIP3   OH224660   6.440   0.099  15.323  0.2022  0.1639 -0.2765
 1082TIP3    H124661   6.386   0.071  15.397 -0.1687 -0.2829 -0.7099
 1082TIP3    H224662   6.412   0.044  15.250  1.5733 -0.4082 -0.4104
 1083TIP3   OH224663   2.818   6.569   4.567 -0.1808  0.6957 -0.1522
 1083TIP3    H124664   2.893   6.599   4.619 -1.1524  1.8146  0.6537
 1083TIP3    H224665   2.824   6.619   4.485 -0.3096  1.1195  0.0985
 1084TIP3   OH224666   5.847   1.541   4.973  0.0669 -0.1701 -0.0514
 1084TIP3    H124667   5.849   1.635   4.992 -0.6882 -0.1011 -0.2865
 1084TIP3    H224668   5.919   1.528   4.912  0.4596  0.1725  0.3250
 1085TIP3   OH224669   4.896   4.764  16.036  0.4623  0.9221 -0.0155
 1085TIP3    H124670   4.844   4.806  16.104 -0.8404 -1.7822  0.7591
 1085TIP3    H224671   4.984   4.802  16.047  0.2197  0.8331  2.9640
 1086TIP3   OH224672   3.238   1.750   1.047  0.0306 -0.1366  0.7290
 1086TIP3    H124673   3.153   1.746   1.090  0.8072 -0.8501  2.2773
 1086TIP3    H224674   3.240   1.673   0.991 -1.3415  1.2633 -1.4021
 1087TIP3   OH224675   3.882   2.009  14.642  0.1690 -0.2748 -0.1906
 1087TIP3    H124676   3.817   1.975  14.581 -1.5347 -0.2851  1.5328
 1087TIP3    H224677   3.901   1.937  14.702 -0.0312  0.4118  0.7377
 1088TIP3   OH224678   1.073   4.908   3.233  0.0824  0.4534 -1.0560
 1088TIP3    H124679   1.060   4.820   3.197  0.4162  0.0995 -0.3154
 1088TIP3    H224680   1.079   4.895   3.327  0.3415  1.2505 -0.9574
 1089TIP3   OH224681   5.352   5.383  10.375  0.1106  0.9496 -0.6305
 1089TIP3    H124682   5.383   5.467  10.407 -1.2746  1.3171 -0.2044
 1089TIP3    H224683   5.294   5.404  10.301 -0.4118  0.3895 -0.3923
 1090TIP3   OH224684   2.460   3.785  12.925  0.0806 -0.0927  0.1350
 1090TIP3    H124685   2.385   3.843  12.913 -0.8884 -0.8362  2.0288
 1090TIP3    H224686   2.531   3.825  12.875 -1.4254  0.9231 -1.2662
 1091TIP3   OH224687   2.445   1.742   6.067  0.0518  0.3177 -0.6421
 1091TIP3    H124688   2.387   1.743   6.144 -1.2434 -0.0605 -1.5766
 1091TIP3    H224689   2.435   1.829   6.029  0.9699  0.6267 -0.1969
 1092TIP3   OH224690   0.380   6.778  13.838  0.5982  0.0977  0.2546
 1092TIP3    H124691   0.375   6.873  13.850  0.5857  0.3413 -1.4281
 1092TIP3    H224692   0.392   6.744  13.927 -0.1145  1.6071  0.9821
 1093TIP3   OH224693   2.406   4.922   3.546 -0.1320  0.1853  0.0772
 1093TIP3    H124694   2.467   4.928   3.472  1.0150  1.2745  1.0722
 1093TIP3    H224695   2.445   4.977   3.614 -1.8536  0.2934  1.0253
 1094TIP3   OH224696   4.202   0.185  16.179 -0.1320 -0.0317 -0.3014
 1094TIP3    H124697   4.293   0.213  16.165  0.2257 -0.9523  0.1018
 1094TIP3    H224698   4.156   0.211  16.100  0.1124  1.9080  0.1281
 1095TIP3   OH224699   3.585   3.241   5.379  0.3743  0.1182  0.5321
 1095TIP3    H124700   3.662   3.297   5.365  0.1604  0.3024  0.0587
 1095TIP3    H224701   3.548   3.272   5.462  1.5156 -0.8132  1.4139
 1096TIP3   OH224702   4.044   2.460   0.336 -0.0049  0.6331  0.2599
 1096TIP3    H124703   4.111   2.424   0.278 -0.6288  1.4849 -1.0316
 1096TIP3    H224704   4.093   2.513   0.400  0.5717  1.1150 -0.5676
 1097TIP3   OH224705   1.565   5.509  14.240 -0.7699 -0.1517 -0.8060
 1097TIP3    H124706   1.655   5.491  14.268 -1.2088 -0.0094  0.7808
 1097TIP3    H224707   1.573   5.584  14.182 -0.0163  0.9360  0.6405
 1098TIP3   OH224708   2.430   3.690  14.378 -0.0161 -0.4059 -0.1330
 1098TIP3    H124709   2.490   3.760  14.404  0.2574 -0.0757 -1.5597
 1098TIP3    H224710   2.452   3.617  14.435  0.1168  0.4613  0.9691
 1099TIP3   OH224711   2.994   0.539  16.588  0.4373 -0.6295 -0.3100
 1099TIP3    H124712   2.994   0.634  16.576  2.4257 -0.6809 -1.0584
 1099TIP3    H224713   2.964   0.504  16.504 -0.6615 -0.6829  0.0865
 1100TIP3   OH224714   5.835   5.635  16.769  0.1876 -0.3114 -0.3909
 1100TIP3    H124715   5.755   5.583  16.765 -0.2619  0.3917 -0.7094
 1100TIP3    H224716   5.893   5.585  16.826 -1.1464  0.0552  1.3721
 1101TIP3   OH224717   4.935   6.044   2.502  0.3116 -0.0776 -0.4395
 1101TIP3    H124718   4.996   6.044   2.576 -0.5330  0.1562  0.2655
 1101TIP3    H224719   4.939   6.134   2.468 -0.8194  0.3827  0.6039
 1102TIP3   OH224720   6.497   1.410   4.100  0.2289  0.1085 -0.2134
 1102TIP3    H124721   6.444   1.408   4.021 -1.1953 -0.6660  0.7176
 1102TIP3    H224722   6.518   1.319   4.118 -1.2697  0.0254  1.4186
 1103TIP3   OH224723   5.901   1.734  13.981  0.5628  0.2753  1.1095
 1103TIP3    H124724   5.964   1.735  14.053  2.0771 -0.6285 -0.1182
 1103TIP3    H224725   5.954   1.754  13.903 -0.2880 -2.1192 -0.2096
 1104TIP3   OH224726   5.316   6.004   2.966 -0.5479  0.0461 -0.3791
 1104TIP3    H124727   5.354   5.993   3.053  1.1366 -0.0115 -1.0876
 1104TIP3    H224728   5.239   6.059   2.980 -0.5543 -0.3139  1.1884
 1105TIP3   OH224729   1.222   1.756   0.309 -0.2155  0.2035  0.5129
 1105TIP3    H124730   1.253   1.768   0.219 -0.8826  0.6030  0.3289
 1105TIP3    H224731   1.127   1.765   0.303 -0.1687  1.6054  1.4851
 1106TIP3   OH224732   4.892   2.927  14.106  0.0272  0.2521 -0.2158
 1106TIP3    H124733   4.826   2.960  14.167 -1.7939 -0.0488 -1.9358
 1106TIP3    H224734   4.948   2.871  14.160 -2.2805 -1.0707  0.9928
 1107TIP3   OH224735   6.391   3.065   2.710 -0.0312 -0.2190 -0.4589
 1107TIP3    H124736   6.483   3.067   2.739  0.9388 -1.7612 -3.0923
 1107TIP3    H224737   6.386   3.130   2.641 -0.3824 -1.3565 -1.5536
 1108TIP3   OH224738   2.208   1.751  16.348  0.3499  0.0946 -0.4605
 1108TIP3    H124739   2.172   1.766  16.261 -1.8256 -0.8674  0.2059
 1108TIP3    H224740   2.269   1.678  16.337 -1.5611 -1.5126 -0.8733
 1109TIP3   OH224741   4.329   2.967   5.600  0.1421 -0.1901 -0.2343
 1109TIP3    H124742   4.317   3.058   5.627  1.4491  0.0157 -0.2586
 1109TIP3    H224743   4.333   2.970   5.505 -1.5429 -0.5205 -0.3316
 1110TIP3   OH224744   0.290   5.768   0.779  0.4461 -0.0057  0.1454
 1110TIP3    H124745   0.378   5.746   0.811 -0.7612 -1.6864  2.6337
 1110TIP3    H224746   0.232   5.711   0.829 -2.3602  3.2832  1.0133
 1111TIP3   OH224747   2.393   4.830   2.487  0.1807 -0.0219  0.6435
 1111TIP3    H124748   2.409   4.915   2.447  0.9225 -0.3282  0.2483
 1111TIP3    H224749   2.472   4.813   2.539 -0.3622 -0.0608  1.4672
 1112TIP3   OH224750   6.667   6.663  14.814 -0.2939 -0.3582  0.6231
 1112TIP3    H124751   6.657   6.726  14.742  1.6135  0.1931  0.7907
 1112TIP3    H224752   6.669   6.578  14.770 -0.8609 -0.1693  0.2032
 1113TIP3   OH224753   1.541   3.056  11.408 -0.1398 -0.2330 -0.5082
 1113TIP3    H124754   1.477   3.126  11.403 -0.7492 -0.6698  0.7918
 1113TIP3    H224755   1.542   3.018  11.320 -1.0223  0.3290 -0.7723
 1114TIP3   OH224756   1.265   2.678   4.612  0.1966  0.0824 -0.2975
 1114TIP3    H124757   1.308   2.653   4.530  4.7222  0.8784  1.5441
 1114TIP3    H224758   1.278   2.603   4.670  2.9377  1.7021  1.4766
 1115TIP3   OH224759   3.252   2.878  11.260  0.0450  0.9843 -0.4055
 1115TIP3    H124760   3.343   2.862  11.284 -0.1997  0.4291  0.1770
 1115TIP3    H224761   3.257   2.934  11.183  0.9360 -1.1373 -1.9971
 1116TIP3   OH224762   0.956   1.803   0.240 -0.0479 -0.5482  0.0111
 1116TIP3    H124763   0.874   1.797   0.290 -0.1764 -0.2767 -0.1624
 1116TIP3    H224764   0.928   1.821   0.151  0.2424  2.2536  0.3875
 1117TIP3   OH224765   0.032   4.216  15.381 -0.4329  0.5118  0.3615
 1117TIP3    H124766   0.031   4.197  15.475 -0.9897  0.6698  0.3953
 1117TIP3    H224767  -0.035   4.158  15.345  0.7855 -0.6163 -0.1732
 1118TIP3   OH224768   0.589   5.703   3.336  0.3538 -0.4296 -0.3650
 1118TIP3    H124769   0.533   5.636   3.377 -1.3780  0.2675 -1.4524
 1118TIP3    H224770   0.527   5.761   3.291  1.9838  0.3905 -1.6559
 1119TIP3   OH224771   3.716   3.218  15.371  0.3105  0.1585 -0.0898
 1119TIP3    H124772   3.676   3.293  15.414  3.0568  1.9887 -0.4780
 1119TIP3    H224773   3.761   3.172  15.442  1.1483  0.6524 -0.2853
 1120TIP3   OH224774   2.931   0.234  13.583 -0.5487 -0.5032 -0.0220
 1120TIP3    H124775   2.885   0.255  13.502 -0.0110  1.7400  0.1980
 1120TIP3    H224776   2.862   0.217  13.647 -1.0165 -0.1730 -0.4384
 1121TIP3   OH224777   1.793   3.376   1.178  0.3158  0.2568 -0.0418
 1121TIP3    H124778   1.883   3.407   1.179  0.7551 -0.9077 -1.3827
 1121TIP3    H224779   1.800   3.281   1.172 -0.9955  0.1641 -0.4834
 1122TIP3   OH224780   4.016   6.677   2.776  0.1132  0.1196 -0.5122
 1122TIP3    H124781   3.959   6.671   2.700  0.2364  0.7695 -0.6653
 1122TIP3    H224782   4.092   6.624   2.753  1.1558  2.0261 -1.7845
 1123TIP3   OH224783   3.587   4.185  14.950  0.5669  0.2463  0.1718
 1123TIP3    H124784   3.570   4.111  15.008 -1.3994  2.0495  2.0741
 1123TIP3    H224785   3.618   4.254  15.008  0.6596  1.4744 -1.2874
 1124TIP3   OH224786   3.507   5.058   2.641 -0.7155  0.0063  0.0408
 1124TIP3    H124787   3.454   5.132   2.609  0.7483  0.6927 -0.8817
 1124TIP3    H224788   3.569   5.041   2.571 -1.0444 -2.1724  0.2147
 1125TIP3   OH224789   3.757   3.609   1.071 -0.1246 -0.4564  0.4252
 1125TIP3    H124790   3.718   3.556   1.002  0.3477 -1.9739  1.2853
 1125TIP3    H224791   3.851   3.600   1.059  0.0488  2.2549 -0.9251
 1126TIP3   OH224792   2.734   6.453   1.315 -0.2347  0.4247  0.3325
 1126TIP3    H124793   2.755   6.361   1.328  2.2427  0.8355 -0.2515
 1126TIP3    H224794   2.655   6.453   1.261  0.0640 -1.3619 -0.1559
 1127TIP3   OH224795   6.101   6.738   2.425  0.1317 -0.4627  0.8138
 1127TIP3    H124796   6.116   6.649   2.393  0.8992 -0.2669  0.6270
 1127TIP3    H224797   6.135   6.795   2.356 -0.8545 -0.0070  0.6820
 1128TIP3   OH224798   5.504   1.809   3.798 -0.0473  0.0413 -0.2968
 1128TIP3    H124799   5.487   1.884   3.856  0.2879  0.1930 -0.3912
 1128TIP3    H224800   5.470   1.837   3.713  4.0317  1.9812 -1.5489
 1129TIP3   OH224801   3.469   2.760  12.475 -0.4732 -0.4575  0.3550
 1129TIP3    H124802   3.536   2.749  12.407 -1.8727 -0.7133 -1.0334
 1129TIP3    H224803   3.450   2.672  12.505 -2.0056 -0.6672 -1.1137
 1130TIP3   OH224804   1.842   3.896  14.322 -0.0350 -0.0891 -0.0590
 1130TIP3    H124805   1.766   3.838  14.316  0.3564 -0.6990  0.8245
 1130TIP3    H224806   1.911   3.851  14.273  0.3908 -0.5815  0.9772
 1131TIP3   OH224807   2.872   5.669  13.820 -0.5724 -0.3968 -0.7436
 1131TIP3    H124808   2.963   5.655  13.844 -0.5364  0.5968 -0.2563
 1131TIP3    H224809   2.875   5.731  13.748 -0.9039  0.8034  0.2345
 1132TIP3   OH224810   4.392   4.514  12.090 -0.4862 -0.3466  0.8007
 1132TIP3    H124811   4.316   4.500  12.033 -0.1162 -0.1345  0.2416
 1132TIP3    H224812   4.439   4.431  12.088  0.3729  0.1350 -0.5009
 1133TIP3   OH224813   3.869   5.017  12.104 -0.4683  0.9960  0.1373
 1133TIP3    H124814   3.868   4.961  12.182  0.7963 -0.3082 -0.7391
 1133TIP3    H224815   3.799   4.982  12.049  0.0961  0.4695 -0.2598
 1134TIP3   OH224816   1.315   5.670  13.919  0.0291 -0.2327 -0.4391
 1134TIP3    H124817   1.306   5.733  13.990 -0.3008 -0.8519  0.0768
 1134TIP3    H224818   1.311   5.584  13.961  1.6238 -0.6199 -0.9868
 1135TIP3   OH224819   2.547   5.359  14.028  0.0754 -0.0770  0.5753
 1135TIP3    H124820   2.636   5.346  13.995 -0.4853  0.6907 -1.4117
 1135TIP3    H224821   2.539   5.296  14.100  1.6709 -1.3401 -0.2595
 1136TIP3   OH224822   4.193   1.188   3.532  0.1333 -0.5817  0.2456
 1136TIP3    H124823   4.277   1.146   3.514  0.7058  0.3347  0.6906
 1136TIP3    H224824   4.217   1.270   3.576 -1.0066 -0.4741  0.6881
 1137TIP3   OH224825   5.361   1.496  12.217 -0.7658  0.4093 -1.0911
 1137TIP3    H124826   5.277   1.526  12.253 -0.3493 -1.5641  1.8780
 1137TIP3    H224827   5.337   1.423  12.160 -1.1393  0.5458 -1.1177
 1138TIP3   OH224828   4.023   1.903  10.424  0.3475  0.1049  0.9068
 1138TIP3    H124829   4.114   1.873  10.417 -0.1530 -1.3314  0.0754
 1138TIP3    H224830   4.029   1.990  10.464  2.0453 -0.1776  1.3456
 1139TIP3   OH224831   3.590   5.852  11.643  0.1955  0.8232  0.3400
 1139TIP3    H124832   3.675   5.878  11.678  0.6786  0.9410 -0.8812
 1139TIP3    H224833   3.578   5.907  11.566 -0.5204  0.0985 -0.0737
 1140TIP3   OH224834   1.690   6.024   1.424  0.1284 -0.7221 -0.3224
 1140TIP3    H124835   1.763   5.963   1.434  1.0445  0.5670  1.4735
 1140TIP3    H224836   1.725   6.094   1.369  0.1650 -0.2710  0.2598
 1141TIP3   OH224837   0.077   4.712   5.437  0.2364 -0.0225 -0.2952
 1141TIP3    H124838   0.136   4.769   5.486  0.4498 -1.0709  0.7320
 1141TIP3    H224839   0.038   4.768   5.371  0.0073  1.4393  1.0295
 1142TIP3   OH224840   3.951   2.367  15.625 -0.1667 -0.2023 -0.6261
 1142TIP3    H124841   3.884   2.301  15.639 -2.4510  2.1296  0.4537
 1142TIP3    H224842   4.007   2.362  15.703 -1.5198  0.3453  0.4371
 1143TIP3   OH224843   0.284   3.533  14.043  0.0598  0.1215 -0.4737
 1143TIP3    H124844   0.243   3.598  13.986 -2.4935 -0.9263  0.0404
 1143TIP3    H224845   0.344   3.485  13.987  0.3211  1.4539 -1.3763
 1144TIP3   OH224846   6.349   3.633  12.785  0.3616 -0.2197 -0.4508
 1144TIP3    H124847   6.317   3.565  12.844 -1.2490 -1.2473 -2.3868
 1144TIP3    H224848   6.323   3.715  12.827  1.2310 -0.7822  1.3044
 1145TIP3   OH224849   3.102   1.476  16.713  0.1463  0.1412 -0.0722
 1145TIP3    H124850   3.025   1.530  16.696  0.3123  0.2071 -0.6399
 1145TIP3    H224851   3.105   1.416  16.639  0.0959 -0.4989  0.4381
 1146TIP3   OH224852   2.481   2.100   3.601 -0.6708 -0.1985 -0.0777
 1146TIP3    H124853   2.427   2.140   3.669 -2.0647 -2.4967  0.2833
 1146TIP3    H224854   2.476   2.161   3.527 -0.9902  1.2470  1.0872
 1147TIP3   OH224855   0.668   5.564  11.181 -0.2153  0.0290  0.0039
 1147TIP3    H124856   0.647   5.482  11.137 -1.9924  0.1734  0.5376
 1147TIP3    H224857   0.596   5.622  11.160 -0.4210  0.5485  1.9383
 1148TIP3   OH224858   0.515   2.631   2.386 -0.1368  0.1029  0.2830
 1148TIP3    H124859   0.552   2.583   2.460  2.2129 -1.7634 -1.9083
 1148TIP3    H224860   0.424   2.604   2.383  0.3616 -1.8362  1.0234
 1149TIP3   OH224861   0.149   2.698   4.932 -0.3131 -0.2942  0.1450
 1149TIP3    H124862   0.091   2.622   4.934 -0.3959 -0.2924 -1.3072
 1149TIP3    H224863   0.191   2.698   5.018 -0.2357 -2.0343  0.1324
 1150TIP3   OH224864   6.195   4.889  12.040 -0.2395 -0.4873 -0.0749
 1150TIP3    H124865   6.140   4.874  12.117  1.4014 -1.2216  1.0430
 1150TIP3    H224866   6.201   4.984  12.033 -0.0086 -0.3968  1.0680
 1151TIP3   OH224867   1.286   4.453   0.288 -0.4212 -0.2854 -0.3832
 1151TIP3    H124868   1.212   4.412   0.332 -0.4957  0.3695  0.1152
 1151TIP3    H224869   1.325   4.383   0.235 -0.5757 -0.9682  0.3984
 1152TIP3   OH224870   3.560   5.307  13.378 -0.1623 -0.7981 -0.0864
 1152TIP3    H124871   3.502   5.323  13.453 -0.5956 -0.2407 -0.5307
 1152TIP3    H224872   3.597   5.220  13.394 -1.4384 -1.3393  0.0050
 1153TIP3   OH224873   1.113   2.854  12.386 -0.5761 -0.3152 -0.3723
 1153TIP3    H124874   1.134   2.763  12.407  0.1539 -0.3413 -1.1921
 1153TIP3    H224875   1.099   2.896  12.471 -0.1484 -1.0133  0.0464
 1154TIP3   OH224876   1.725   3.153   1.484 -0.3566 -0.5936 -0.3986
 1154TIP3    H124877   1.726   3.143   1.389 -0.3308 -0.3217 -0.4281
 1154TIP3    H224878   1.660   3.222   1.500 -0.8314 -1.0914 -0.1768
 1155TIP3   OH224879   3.317   3.859  10.825 -0.7599  0.1629 -0.1499
 1155TIP3    H124880   3.279   3.815  10.749  0.7496 -1.3685 -0.0697
 1155TIP3    H224881   3.365   3.933  10.787 -1.6375  0.5900 -0.4694
 1156TIP3   OH224882   6.607   1.644  13.992 -0.4417 -0.2517  0.1185
 1156TIP3    H124883   6.600   1.625  14.086  0.0929  0.4402  0.3028
 1156TIP3    H224884   6.697   1.674  13.980 -1.4131  2.9728  0.0150
 1157TIP3   OH224885   1.427   4.667  15.895 -0.3236  0.6152  0.3617
 1157TIP3    H124886   1.339   4.688  15.864  0.0731  0.3155 -0.9998
 1157TIP3    H224887   1.429   4.572  15.901  0.5042  0.4872 -1.4977
 1158TIP3   OH224888   2.634   0.138   6.207 -0.2613  0.1372 -0.1720
 1158TIP3    H124889   2.721   0.174   6.221 -0.3946 -0.4551  2.8995
 1158TIP3    H224890   2.598   0.127   6.295 -2.9761 -0.7936 -1.2835
 1159TIP3   OH224891   5.573   4.397  14.759 -0.0419  0.5581 -0.1989
 1159TIP3    H124892   5.550   4.449  14.836  0.8799  1.8320 -0.7586
 1159TIP3    H224893   5.529   4.441  14.686  0.5594  0.4303 -0.6470
 1160TIP3   OH224894   2.638   2.745   2.207  0.3042  0.1073 -0.1312
 1160TIP3    H124895   2.689   2.681   2.257  2.6058  0.1162 -2.2877
 1160TIP3    H224896   2.672   2.830   2.236 -1.1746  0.3195  1.0998
 1161TIP3   OH224897   2.721   4.277  13.909  0.4895 -0.1223 -0.0033
 1161TIP3    H124898   2.780   4.351  13.896 -2.1486  2.2103  0.1694
 1161TIP3    H224899   2.716   4.266  14.004 -0.1668  0.4666  0.0422
 1162TIP3   OH224900   1.017   5.226  14.610  0.0836  0.6503  0.2787
 1162TIP3    H124901   0.958   5.160  14.645  0.5685 -0.0344 -0.1783
 1162TIP3    H224902   1.001   5.304  14.664 -2.0657  0.8605 -0.5512
 1163TIP3   OH224903   3.812   4.627  14.547 -0.5505 -0.0958 -0.1436
 1163TIP3    H124904   3.731   4.582  14.525 -0.7780  0.0960  0.3018
 1163TIP3    H224905   3.787   4.718  14.562 -0.2296 -0.0016 -0.1584
 1164TIP3   OH224906   4.218   5.587   5.562 -0.2385 -0.2906 -0.5375
 1164TIP3    H124907   4.153   5.598   5.630  0.6891 -1.7452  0.6461
 1164TIP3    H224908   4.287   5.651   5.583  0.5025 -1.3974  0.4994
 1165TIP3   OH224909   5.443   0.306   6.508 -0.6435  0.1019 -0.1338
 1165TIP3    H124910   5.375   0.368   6.480 -1.4770  0.5377  2.5308
 1165TIP3    H224911   5.395   0.226   6.528 -0.2901  0.1829  1.0871
 1166TIP3   OH224912   3.198   4.236   0.020  0.7459  0.6815  0.1758
 1166TIP3    H124913   3.200   4.290   0.099  0.9251  0.2054  0.5029
 1166TIP3    H224914   3.111   4.198   0.019  0.2933  1.7019 -0.5632
 1167TIP3   OH224915   5.900   6.603   0.112 -0.1933  0.8293  0.3381
 1167TIP3    H124916   5.942   6.534   0.163  0.2652 -0.0731 -1.1792
 1167TIP3    H224917   5.968   6.633   0.052 -1.8006 -1.3646 -2.8930
 1168TIP3   OH224918   4.365   1.003  13.927 -0.2436 -0.2205 -0.0756
 1168TIP3    H124919   4.302   1.064  13.965 -0.2944 -1.4254  1.9421
 1168TIP3    H224920   4.449   1.049  13.932 -0.4160  0.0268  0.6267
 1169TIP3   OH224921   4.095   2.198   0.098 -0.1829  0.4460 -0.2442
 1169TIP3    H124922   4.149   2.277   0.102 -0.7665  0.9133 -1.2873
 1169TIP3    H224923   4.126   2.145   0.171  0.1784  1.6614  0.5302
 1170TIP3   OH224924   4.797   4.467   0.596  0.0887  0.2797  0.4116
 1170TIP3    H124925   4.760   4.552   0.569  1.2007  0.8722  0.6949
 1170TIP3    H224926   4.749   4.403   0.544  0.3815  1.2036 -1.0594
 1171TIP3   OH224927   0.197   0.942   5.494  0.1600  0.0754 -0.2358
 1171TIP3    H124928   0.276   0.956   5.442 -0.2246  2.1528 -0.3445
 1171TIP3    H224929   0.162   1.030   5.509 -1.8674 -0.7487  0.2165
 1172TIP3   OH224930   0.803   3.493  12.017  0.2198 -0.0461  0.1522
 1172TIP3    H124931   0.882   3.440  12.018 -0.2333 -0.7277  0.7494
 1172TIP3    H224932   0.737   3.440  12.062 -1.2437 -0.5089 -2.3540
 1173TIP3   OH224933   6.670   5.534   3.190 -0.2741 -0.3357  0.3723
 1173TIP3    H124934   6.588   5.571   3.220 -1.0211  1.3232 -3.1716
 1173TIP3    H224935   6.736   5.600   3.211 -0.0946 -0.9062  1.6832
 1174TIP3   OH224936   6.267   1.893  16.908  0.4221  0.6317 -0.5283
 1174TIP3    H124937   6.216   1.947  16.967  0.6404 -0.9410  1.1957
 1174TIP3    H224938   6.203   1.850  16.852 -0.1688 -0.9062  1.2509
 1175TIP3   OH224939   3.632   0.853   4.731  0.0220 -0.0729 -0.2438
 1175TIP3    H124940   3.648   0.791   4.802 -0.2630 -0.6239 -0.6445
 1175TIP3    H224941   3.694   0.924   4.746 -0.9805  0.5107  1.3388
 1176TIP3   OH224942   2.471   3.621   4.631 -0.4823  0.7465  0.0656
 1176TIP3    H124943   2.426   3.705   4.643 -2.6723  0.0980 -2.6088
 1176TIP3    H224944   2.469   3.606   4.537  0.6095 -1.9151  0.3799
 1177TIP3   OH224945   4.892   4.702  14.964 -0.4393 -0.1944  0.1152
 1177TIP3    H124946   4.833   4.718  15.038 -1.4973 -0.9649 -0.5326
 1177TIP3    H224947   4.963   4.650  15.001 -0.0723  0.8688  0.9400
 1178TIP3   OH224948   5.064   0.937   6.260 -0.5779  0.0964 -0.3295
 1178TIP3    H124949   5.017   1.006   6.213 -1.6924  0.6892  1.5360
 1178TIP3    H224950   4.997   0.875   6.286 -0.4866  1.0012  2.4595
 1179TIP3   OH224951   5.620   4.033   3.345  0.5187 -0.2603  0.3816
 1179TIP3    H124952   5.633   4.077   3.429 -1.2096 -0.3052  0.7136
 1179TIP3    H224953   5.575   3.951   3.368 -2.5852  0.9992 -0.7295
 1180TIP3   OH224954   6.295   1.101   0.767  0.5667  0.2075  0.1899
 1180TIP3    H124955   6.366   1.162   0.744  0.0696  0.0210 -2.0437
 1180TIP3    H224956   6.324   1.062   0.849  3.3011 -0.1768 -0.8414
 1181TIP3   OH224957   1.036   3.198  13.640  0.1957 -0.6208 -0.4017
 1181TIP3    H124958   1.081   3.114  13.635  0.4943 -0.5992  1.1998
 1181TIP3    H224959   0.963   3.182  13.700 -0.4194 -0.0082 -0.9678
 1182TIP3   OH224960   2.125   0.422  15.212  0.4486 -0.1312  0.2945
 1182TIP3    H124961   2.181   0.359  15.167 -0.1241 -0.3593 -0.1063
 1182TIP3    H224962   2.036   0.394  15.191 -0.0074  3.2806 -3.6891
 1183TIP3   OH224963   2.650   6.335  12.665  0.1738 -0.3212  0.4325
 1183TIP3    H124964   2.708   6.410  12.678  1.0764 -1.0454  0.6924
 1183TIP3    H224965   2.569   6.359  12.712 -0.5316  1.5295 -1.5479
 1184TIP3   OH224966   2.812   4.155  13.047  0.6945  0.3823  0.2513
 1184TIP3    H124967   2.848   4.080  13.093  0.7405 -0.4165 -1.0334
 1184TIP3    H224968   2.723   4.128  13.024  1.6657 -0.5890 -2.8974
 1185TIP3   OH224969   5.292   0.171  15.118  0.8881  0.0241  0.2216
 1185TIP3    H124970   5.369   0.202  15.069  0.2696 -1.1126 -1.5750
 1185TIP3    H224971   5.218   0.211  15.072  0.3544  2.5322  2.9713
 1186TIP3   OH224972   3.725   1.973   5.287  0.2242 -0.7213  0.3329
 1186TIP3    H124973   3.820   1.962   5.296  0.3646 -0.4082 -0.7140
 1186TIP3    H224974   3.709   2.063   5.315  0.4813 -0.2000 -1.1089
 1187TIP3   OH224975   1.359   1.879  11.590 -0.3996 -0.3192 -0.0407
 1187TIP3    H124976   1.322   1.815  11.651 -0.3752 -0.3895 -0.1005
 1187TIP3    H224977   1.447   1.896  11.624 -1.0376  1.0756  1.0596
 1188TIP3   OH224978   4.403   6.656  16.744  0.5358  0.2978 -0.2598
 1188TIP3    H124979   4.369   6.744  16.756  0.1056  0.0275  0.6091
 1188TIP3    H224980   4.356   6.622  16.668 -0.1771  0.4072  0.1190
 1189TIP3   OH224981   2.648   0.399   2.695 -1.0650 -0.7296 -0.2732
 1189TIP3    H124982   2.639   0.493   2.714 -0.3373 -0.6877 -0.1104
 1189TIP3    H224983   2.604   0.388   2.610 -0.5521 -0.1093 -0.6260
 1190TIP3   OH224984   3.408   5.777  12.176 -0.3314  0.2110 -0.1855
 1190TIP3    H124985   3.443   5.860  12.143  1.3319 -0.6930 -0.8285
 1190TIP3    H224986   3.385   5.795  12.267  0.8102  1.1753 -0.0616
 1191TIP3   OH224987   4.379   1.084   1.763  0.6697  0.0506  0.1586
 1191TIP3    H124988   4.420   1.169   1.778  0.4978  0.3005 -0.7009
 1191TIP3    H224989   4.397   1.065   1.671  0.9718 -0.9958  0.4241
 1192TIP3   OH224990   1.996   4.229   2.101 -0.2358  0.2096  0.0770
 1192TIP3    H124991   2.041   4.146   2.118  2.1050  1.0048 -1.7263
 1192TIP3    H224992   1.960   4.255   2.186 -0.0727 -2.0819  0.9154
 1193TIP3   OH224993   3.955   3.002   2.107  0.0991 -0.3249 -0.1569
 1193TIP3    H124994   3.911   3.081   2.075  0.0002  0.5916  2.1063
 1193TIP3    H224995   3.917   2.931   2.055 -1.5149  0.8365 -0.6278
 1194TIP3   OH224996   6.696   2.608  15.659 -0.7030  0.1177  0.0581
 1194TIP3    H124997   6.694   2.514  15.642  3.1671 -0.3088  0.9033
 1194TIP3    H224998   6.752   2.643  15.589 -1.6342  1.7116  0.0755
 1195TIP3   OH224999   1.435   0.199   5.830  0.1086 -0.4691  0.6190
 1195TIP3    H125000   1.447   0.104   5.842 -3.1142 -1.3325 -1.4710
 1195TIP3    H225001   1.430   0.210   5.735 -1.0872  1.5151  0.8614
 1196TIP3   OH225002   5.248   5.080  13.411  0.0863 -0.2464 -0.5697
 1196TIP3    H125003   5.153   5.078  13.405  0.0642  0.8129 -0.6855
 1196TIP3    H225004   5.270   5.005  13.468 -0.8904  0.1557  0.3607
 1197TIP3   OH225005   0.803   0.104  14.055  0.1502 -0.5169 -0.3614
 1197TIP3    H125006   0.748   0.142  14.123 -0.8759 -2.8298  0.2029
 1197TIP3    H225007   0.755   0.121  13.974  0.9408  1.4675 -0.4743
 1198TIP3   OH225008   0.018   0.407  17.132 -0.3373 -0.5181 -0.0487
 1198TIP3    H125009  -0.056   0.462  17.157  0.1126  0.5587 -0.9702
 1198TIP3    H225010   0.001   0.384  17.040  1.3471  1.3400 -0.9136
 1199TIP3   OH225011   4.070   0.621   1.548  0.6052 -0.1631 -0.4777
 1199TIP3    H125012   4.095   0.712   1.534 -0.5807  0.0989 -1.0399
 1199TIP3    H225013   4.022   0.622   1.631  0.8831 -0.3427 -0.3127
 1200TIP3   OH225014   4.365   5.851   5.545  0.2167 -0.5048  0.0178
 1200TIP3    H125015   4.392   5.888   5.628  0.3346 -0.0782 -0.2112
 1200TIP3    H225016   4.272   5.872   5.538  0.1138 -0.8788  0.2192
 1201TIP3   OH225017   0.017   4.644  12.081 -0.0044 -0.2555  0.1610
 1201TIP3    H125018  -0.001   4.587  12.007  0.6354 -1.8038  1.1396
 1201TIP3    H225019  -0.022   4.598  12.156  1.2193  0.1935  1.0968
 1202TIP3   OH225020   5.404   4.598   1.448 -0.1541  0.3567  0.4067
 1202TIP3    H125021   5.363   4.555   1.373 -0.5100  1.8472 -0.3080
 1202TIP3    H225022   5.350   4.676   1.463  0.6841  0.7754  1.3651
 1203TIP3   OH225023   3.844   2.133  13.820 -0.5206 -0.4184  0.1975
 1203TIP3    H125024   3.765   2.084  13.844 -0.6825 -0.3870 -0.2447
 1203TIP3    H225025   3.916   2.086  13.861 -0.7952 -0.2782  0.8571
 1204TIP3   OH225026   5.931   3.353  15.875  0.0011  0.8530 -0.0745
 1204TIP3    H125027   5.891   3.419  15.819 -1.5808  0.1551  0.1673
 1204TIP3    H225028   5.963   3.401  15.951  1.5659  1.7151 -1.2092
 1205TIP3   OH225029   0.025   2.063   2.264 -0.1735  0.2386 -0.4105
 1205TIP3    H125030  -0.015   2.096   2.345 -0.1868 -0.6061 -0.0666
 1205TIP3    H225031   0.090   2.000   2.293 -2.9445 -3.2333 -1.0953
 1206TIP3   OH225032   0.633   3.630  12.502  0.2311  0.6567  0.6199
 1206TIP3    H125033   0.684   3.553  12.476  1.8384  2.1250 -0.7739
 1206TIP3    H225034   0.571   3.596  12.567 -0.9345 -2.3347 -1.7973
 1207TIP3   OH225035   5.589   4.463   0.312  0.5982 -0.0054  0.1422
 1207TIP3    H125036   5.680   4.489   0.298  0.1826  1.5636  0.1405
 1207TIP3    H225037   5.539   4.518   0.250 -0.6087  1.5768  2.3742
 1208TIP3   OH225038   5.050   1.071   5.932  0.0287  0.5791 -0.2040
 1208TIP3    H125039   4.989   1.101   6.000 -0.7946  0.0868 -0.7053
 1208TIP3    H225040   5.053   1.143   5.869  0.7770  1.0279  0.3261
 1209TIP3   OH225041   3.196   4.992  15.502 -0.2849  0.0238  0.3397
 1209TIP3    H125042   3.124   4.929  15.506 -0.1137 -0.4549 -2.4573
 1209TIP3    H225043   3.164   5.067  15.553 -2.4271 -0.5127 -0.0942
 1210TIP3   OH225044   3.915   3.306   3.572 -0.1867 -0.8294 -0.1906
 1210TIP3    H125045   3.968   3.226   3.569  0.0098 -0.7751  1.1782
 1210TIP3    H225046   3.922   3.336   3.663  0.7665  1.4681 -0.9502
 1211TIP3   OH225047   6.388   2.749  10.770  0.7622 -0.0321 -0.7802
 1211TIP3    H125048   6.306   2.795  10.789 -0.1361 -1.2042 -1.6950
 1211TIP3    H225049   6.454   2.819  10.767  0.0531  0.7954  1.1854
 1212TIP3   OH225050   1.829   0.937   0.365  0.5920 -0.1616  0.1856
 1212TIP3    H125051   1.764   0.984   0.418 -0.4673 -0.2371 -1.0037
 1212TIP3    H225052   1.913   0.957   0.407  0.1981  2.7117 -0.2210
 1213TIP3   OH225053   6.337   1.233   3.042  0.6730  0.4517 -0.3712
 1213TIP3    H125054   6.389   1.266   3.116  1.1421 -1.4699  0.2166
 1213TIP3    H225055   6.378   1.271   2.965  0.1314  2.5610  0.3173
 1214TIP3   OH225056   0.828   1.196  10.500 -0.4070 -0.0407  0.3345
 1214TIP3    H125057   0.754   1.224  10.555  0.8518  2.9509  0.7029
 1214TIP3    H225058   0.858   1.277  10.458  1.8434 -1.3952 -0.8457
 1215TIP3   OH225059   0.767   6.694   2.627  0.1006 -0.1213  0.7681
 1215TIP3    H125060   0.685   6.650   2.605  0.5037 -1.1854  1.3023
 1215TIP3    H225061   0.775   6.765   2.564  0.1801 -1.7541 -1.1391
 1216TIP3   OH225062   1.781   5.082  13.523 -0.4946 -0.1994  0.0613
 1216TIP3    H125063   1.689   5.057  13.533 -0.3249  0.0890  3.5816
 1216TIP3    H225064   1.830   5.006  13.555  0.4119  0.4508  0.2548
 1217TIP3   OH225065   4.917   0.227   2.009 -0.7619  0.3654  0.0389
 1217TIP3    H125066   4.921   0.223   1.913  4.5576  0.7986 -0.0642
 1217TIP3    H225067   4.906   0.136   2.036 -0.5113 -0.0107 -1.0566
 1218TIP3   OH225068   0.495   5.221  15.494  0.2148  0.5428  0.2679
 1218TIP3    H125069   0.584   5.255  15.489  0.7473 -0.8302  0.1064
 1218TIP3    H225070   0.472   5.226  15.587  0.9425 -0.2386  0.5073
 1219TIP3   OH225071   5.904   6.257   0.072  0.4753  0.4649  0.2633
 1219TIP3    H125072   5.817   6.282   0.041 -0.2767 -0.3344  1.6076
 1219TIP3    H225073   5.921   6.173   0.029 -0.0065 -0.0153  0.9862
 1220TIP3   OH225074   6.309   1.404  16.286  0.0324 -0.3320  0.6726
 1220TIP3    H125075   6.344   1.365  16.366 -2.5182 -1.0333  1.5297
 1220TIP3    H225076   6.294   1.496  16.308 -1.3567 -0.6847  1.2941
 1221TIP3   OH225077   3.120   3.723   3.264  0.0654 -0.0635  0.0339
 1221TIP3    H125078   3.199   3.732   3.317 -0.8030  1.5660  1.1415
 1221TIP3    H225079   3.050   3.706   3.328 -0.3153 -3.2606 -1.0333
 1222TIP3   OH225080   4.870   6.067   1.623 -0.3839  0.2381 -0.1633
 1222TIP3    H125081   4.869   6.038   1.532  0.0483  1.2969 -0.5190
 1222TIP3    H225082   4.802   6.135   1.628 -0.6785 -0.0902  0.4045
 1223TIP3   OH225083   2.723   2.312   2.893  0.8546  0.0941 -0.4039
 1223TIP3    H125084   2.751   2.243   2.832  2.7667 -0.3292  0.8409
 1223TIP3    H225085   2.722   2.269   2.979 -0.6401  0.9511  0.0376
 1224TIP3   OH225086   6.459   2.210   2.310 -0.7153 -0.1256  0.2611
 1224TIP3    H125087   6.497   2.189   2.225  0.2576  0.4445  0.5471
 1224TIP3    H225088   6.429   2.301   2.302  1.7427  0.8484  1.3067
 1225TIP3   OH225089   5.358   0.540  11.035  0.4695  0.1039 -0.2292
 1225TIP3    H125090   5.272   0.513  11.005  1.2112 -1.8473 -0.7491
 1225TIP3    H225091   5.398   0.460  11.070  1.8628  1.0727  0.5071
 1226TIP3   OH225092   6.497   6.481  12.355  0.1125  0.0386 -0.1067
 1226TIP3    H125093   6.464   6.436  12.276  0.9407 -1.9722  0.6217
 1226TIP3    H225094   6.432   6.461  12.422  0.3583  0.1707  0.1690
 1227TIP3   OH225095   4.435   0.392   3.831 -0.5221  0.5088  0.4702
 1227TIP3    H125096   4.472   0.348   3.754 -0.5582  1.4798 -0.1110
 1227TIP3    H225097   4.422   0.483   3.803  1.1190  1.3216  2.1585
 1228TIP3   OH225098   2.996   1.075  12.461  0.0304  0.1287  0.2211
 1228TIP3    H125099   3.065   1.127  12.422 -0.5537  0.7115 -0.0521
 1228TIP3    H225100   2.979   1.115  12.547 -1.0911  1.0192 -0.3893
 1229TIP3   OH225101   6.349   2.979  14.279  0.5261 -0.4941  0.1240
 1229TIP3    H125102   6.359   3.067  14.244  0.1430  0.0102  1.2292
 1229TIP3    H225103   6.437   2.941  14.273  1.0563  0.5367  1.0789
 1230TIP3   OH225104   6.088   0.002  16.747  0.8351 -0.2190  0.0667
 1230TIP3    H125105   6.156   0.035  16.689 -1.3837  1.9913 -1.4817
 1230TIP3    H225106   6.117  -0.086  16.770  4.6511  0.9440  0.3515
 1231TIP3   OH225107   3.126   2.602  11.674 -0.0263  0.1144 -0.5473
 1231TIP3    H125108   3.196   2.585  11.611  1.9306  0.0228  1.5174
 1231TIP3    H225109   3.132   2.530  11.737 -3.2382 -0.9294 -1.2016
 1232TIP3   OH225110   0.029   3.012  16.164 -0.1898  0.1694  0.2059
 1232TIP3    H125111  -0.059   2.988  16.135  0.5883 -1.2003 -1.1045
 1232TIP3    H225112   0.085   2.995  16.089  1.8651 -3.0721  2.2396
 1233TIP3   OH225113   2.312   3.410  16.888  0.1641  0.2183  0.1672
 1233TIP3    H125114   2.307   3.499  16.854 -0.3978 -0.1822 -0.8584
 1233TIP3    H225115   2.293   3.418  16.981 -1.1139  1.0252 -0.1484
 1234TIP3   OH225116   4.861   2.263  12.427  0.1116  0.2908 -0.1153
 1234TIP3    H125117   4.949   2.226  12.424 -0.2685 -0.6429 -0.0064
 1234TIP3    H225118   4.863   2.334  12.363  1.7209  2.1041  1.7955
 1235TIP3   OH225119   6.519   0.528   5.214  0.6026 -0.3026  0.2452
 1235TIP3    H125120   6.562   0.444   5.233  1.5371  0.4136  1.4164
 1235TIP3    H225121   6.468   0.547   5.293 -1.4008 -0.7825 -0.8436
 1236TIP3   OH225122   5.608   0.492   6.111 -0.0512 -0.5297  0.1773
 1236TIP3    H125123   5.675   0.499   6.178  3.5149  2.3092 -3.2132
 1236TIP3    H225124   5.629   0.412   6.063  1.7556  0.8135 -1.4431
 1237TIP3   OH225125   6.199   2.835  14.114  0.6538  0.6601 -0.1321
 1237TIP3    H125126   6.232   2.748  14.093 -0.3795  0.4519 -1.0137
 1237TIP3    H225127   6.254   2.865  14.186  2.8100  0.3912 -1.5559
 1238TIP3   OH225128   3.921   1.672   4.658 -0.8423  0.0311  0.3055
 1238TIP3    H125129   3.941   1.724   4.580 -0.1677 -0.8536 -0.1284
 1238TIP3    H225130   3.829   1.647   4.649  0.4430 -4.8867 -3.2512
 1239TIP3   OH225131   3.849   3.813  13.817 -0.1747 -0.2657  0.1766
 1239TIP3    H125132   3.837   3.728  13.773  1.9600 -0.2117 -0.6152
 1239TIP3    H225133   3.788   3.810  13.890 -0.2604 -2.4364  0.0963
 1240TIP3   OH225134   0.066   0.715  12.967 -0.5316  0.2891 -0.5559
 1240TIP3    H125135   0.109   0.646  12.917 -1.3960  1.7372 -3.5435
 1240TIP3    H225136  -0.027   0.707  12.944 -0.7276  2.0521 -0.4879
 1241TIP3   OH225137   4.454   1.588   4.536  0.3505  0.1296 -0.3091
 1241TIP3    H125138   4.452   1.506   4.586  1.3603  0.3488  0.1103
 1241TIP3    H225139   4.489   1.563   4.450 -0.3842 -0.0581 -0.5658
 1242TIP3   OH225140   0.231   6.407  16.353 -0.0399 -0.1216 -0.2908
 1242TIP3    H125141   0.259   6.323  16.389  0.9719 -0.0169 -0.8196
 1242TIP3    H225142   0.204   6.387  16.264 -1.1527 -0.1206  0.0294
 1243TIP3   OH225143   4.667   0.501  15.685 -0.0150  0.1253 -0.3884
 1243TIP3    H125144   4.584   0.499  15.637 -0.0883  2.1846 -0.4344
 1243TIP3    H225145   4.713   0.578  15.650  1.2072 -0.0385  0.7850
 1244TIP3   OH225146   6.020   1.327   5.224 -0.4653 -1.0787  0.9992
 1244TIP3    H125147   5.965   1.320   5.301  0.3880 -2.1999  1.5411
 1244TIP3    H225148   6.095   1.380   5.251 -1.0069  0.0141  0.4145
 1245TIP3   OH225149   0.178   1.542  13.701  0.1213  0.3308  0.0194
 1245TIP3    H125150   0.139   1.477  13.642  0.1755  1.2955 -1.1203
 1245TIP3    H225151   0.224   1.490  13.767 -0.6457 -0.7888 -0.2961
 1246TIP3   OH225152   1.223   0.009  14.378  0.0847  0.8247 -0.0166
 1246TIP3    H125153   1.166   0.060  14.436 -1.7914 -3.7186  2.6218
 1246TIP3    H225154   1.171  -0.004  14.298 -1.3115 -0.4880  1.0563
 1247TIP3   OH225155   6.460   0.251  13.685  0.0292  0.0664  0.4952
 1247TIP3    H125156   6.423   0.300  13.611 -1.3403 -2.3144 -0.5336
 1247TIP3    H225157   6.387   0.198  13.717  1.2542 -0.8175  1.9470
 1248TIP3   OH225158   1.472   0.727  15.847  0.3027 -0.4350  0.2657
 1248TIP3    H125159   1.540   0.756  15.786 -0.5169  2.4407  0.5814
 1248TIP3    H225160   1.390   0.753  15.806 -0.6765 -3.3556  0.1503
 1249TIP3   OH225161   6.641   0.456   0.750  0.4741 -0.5192  0.0418
 1249TIP3    H125162   6.647   0.397   0.825  0.6854  0.0904  0.5147
 1249TIP3    H225163   6.551   0.445   0.719  0.2383 -0.4363  0.6737
 1250TIP3   OH225164   3.511   3.345  15.120  0.0583 -0.3037 -0.0895
 1250TIP3    H125165   3.438   3.326  15.060  0.1266 -0.8870  0.0112
 1250TIP3    H225166   3.559   3.262  15.126  0.0414 -0.2522  0.7926
 1251TIP3   OH225167   4.758   0.622  17.230  0.3146 -0.0825 -0.3180
 1251TIP3    H125168   4.782   0.609  17.138  1.0620  0.8403 -0.2697
 1251TIP3    H225169   4.824   0.683  17.263 -0.1741 -0.1113  0.7316
 1252TIP3   OH225170   3.493   1.366  14.992  0.6591  0.0719  0.1119
 1252TIP3    H125171   3.508   1.460  15.005  0.5195  0.0617  0.3649
 1252TIP3    H225172   3.490   1.331  15.081 -0.7185  0.0448  0.0745
 1253TIP3   OH225173   2.802   2.752  17.051 -0.0781  0.0284  0.0146
 1253TIP3    H125174   2.711   2.753  17.081 -0.4261 -0.9402 -0.9496
 1253TIP3    H225175   2.853   2.774  17.129 -1.0087 -1.5444  1.1245
 1254TIP3   OH225176   0.234   4.700   1.963  0.0338  0.2430  0.4377
 1254TIP3    H125177   0.197   4.777   1.921  0.8326  1.8152  2.4738
 1254TIP3    H225178   0.321   4.692   1.925 -0.2614 -0.0532 -0.2054
 1255TIP3   OH225179   2.859   2.359  13.348  0.1870  0.4213 -0.1799
 1255TIP3    H125180   2.947   2.322  13.338 -0.3927 -1.5942  1.4584
 1255TIP3    H225181   2.874   2.453  13.359  2.0619  0.2392 -0.7106
 1256TIP3   OH225182   1.427   4.233  14.563  0.1097  0.4538 -0.6871
 1256TIP3    H125183   1.366   4.293  14.520  0.5742  0.9251 -0.6866
 1256TIP3    H225184   1.513   4.269  14.547  0.3133  0.5528  0.4981
 1257TIP3   OH225185   6.540   0.615   2.555 -0.1794  0.2835  0.9071
 1257TIP3    H125186   6.503   0.533   2.588  0.2849  0.0943  0.9512
 1257TIP3    H225187   6.556   0.600   2.463 -0.5571  0.4932  0.8021
 1258TIP3   OH225188   5.501   0.954  12.730 -0.1872 -0.1971 -0.3227
 1258TIP3    H125189   5.500   0.891  12.658 -0.0796 -0.5110 -0.0530
 1258TIP3    H225190   5.526   0.902  12.807 -0.8054  0.0303  0.0373
 1259TIP3   OH225191   0.732   2.335  10.584 -0.4667 -0.6787  0.3958
 1259TIP3    H125192   0.810   2.287  10.613  0.1184 -0.2535 -0.4464
 1259TIP3    H225193   0.756   2.372  10.499 -1.1810  0.4510  0.6643
 1260TIP3   OH225194   0.800   0.855  15.231  0.1995 -0.0470  0.1968
 1260TIP3    H125195   0.768   0.803  15.157  2.6163  0.7041 -1.4634
 1260TIP3    H225196   0.729   0.918  15.248 -1.0676 -1.2501 -0.3746
 1261TIP3   OH225197   1.456   3.126   0.391 -0.0420 -0.3773 -0.3109
 1261TIP3    H125198   1.369   3.163   0.377 -0.3672 -0.0194  2.1951
 1261TIP3    H225199   1.440   3.032   0.405 -0.1105 -0.2214  0.7032
 1262TIP3   OH225200   0.361   1.648   0.396 -0.5527  0.3046 -0.8551
 1262TIP3    H125201   0.337   1.663   0.304 -2.6709 -0.9933 -0.5899
 1262TIP3    H225202   0.304   1.707   0.445  0.3536  0.7626 -0.3281
 1263TIP3   OH225203   2.977   4.335  12.293 -0.2389  0.3405  0.4690
 1263TIP3    H125204   3.040   4.274  12.331  1.1985  1.6973  0.3434
 1263TIP3    H225205   2.958   4.299  12.206 -0.2243 -0.4660  0.7917
 1264TIP3   OH225206   1.054   4.774  14.796 -0.1567 -0.0416 -0.0113
 1264TIP3    H125207   1.138   4.766  14.750  0.8007 -0.9661  1.7852
 1264TIP3    H225208   1.018   4.857  14.765  1.8192  0.7955 -0.2473
 1265TIP3   OH225209   5.879   5.399  15.424 -0.4187  0.0232 -0.1941
 1265TIP3    H125210   5.934   5.393  15.346 -1.1589  1.0847 -0.8179
 1265TIP3    H225211   5.807   5.339  15.406 -1.3002  1.2639 -0.9533
 1266TIP3   OH225212   1.874   3.746  17.215  0.4103  0.8763 -0.3923
 1266TIP3    H125213   1.806   3.769  17.279 -0.1147 -1.6905  0.1017
 1266TIP3    H225214   1.838   3.774  17.131 -0.7565  0.6041 -0.0049
 1267TIP3   OH225215   2.333   2.874   3.046  0.6312  0.3753 -0.0137
 1267TIP3    H125216   2.333   2.930   3.124  0.7294 -0.2967  0.4685
 1267TIP3    H225217   2.313   2.935   2.974  1.5485  1.1814  0.3914
 1268TIP3   OH225218   6.773   4.529  12.593 -0.4774  0.2057  0.6247
 1268TIP3    H125219   6.706   4.560  12.653 -0.3526  1.4211  0.1624
 1268TIP3    H225220   6.731   4.459  12.543 -1.2577  0.6484  0.6595
 1269TIP3   OH225221   4.055   6.218   5.562  0.6353  0.1625  0.5220
 1269TIP3    H125222   3.999   6.257   5.629  2.3682  1.5183  1.2761
 1269TIP3    H225223   4.053   6.281   5.490  0.7318 -0.0586  0.3263
 1270TIP3   OH225224   6.426   6.688  12.675 -0.2499  0.2466 -0.1530
 1270TIP3    H125225   6.340   6.703  12.636 -0.1728  2.0833  0.2823
 1270TIP3    H225226   6.483   6.751  12.630  0.6305 -0.1929  0.3253
 1271TIP3   OH225227   4.571   3.343   1.409 -0.4808 -0.2986  0.2659
 1271TIP3    H125228   4.493   3.365   1.459  0.1859 -1.1453  1.7766
 1271TIP3    H225229   4.601   3.260   1.447  0.4040 -0.6891 -1.1751
 1272TIP3   OH225230   3.724   3.306   0.076  0.0175 -0.3499 -0.0188
 1272TIP3    H125231   3.660   3.281   0.142  1.1211 -0.7520  0.9372
 1272TIP3    H225232   3.744   3.397   0.096 -0.6221 -0.0626 -0.6444
 1273TIP3   OH225233   2.706   4.748   1.755  0.2191 -0.1959 -0.5696
 1273TIP3    H125234   2.626   4.742   1.703  1.3336 -1.2965 -2.2487
 1273TIP3    H225235   2.678   4.787   1.838 -2.0221 -0.5028 -1.1275
 1274TIP3   OH225236   5.092   6.740  15.706  0.0042  0.1075  0.2622
 1274TIP3    H125237   5.164   6.749  15.643  0.0272  1.1780  0.4148
 1274TIP3    H225238   5.074   6.646  15.710  0.1547  0.0036 -1.1685
 1275TIP3   OH225239   4.167   0.434   0.556  0.4098 -0.6154 -0.1585
 1275TIP3    H125240   4.160   0.470   0.468 -1.0345 -2.4883 -0.8929
 1275TIP3    H225241   4.095   0.474   0.605  1.2136  0.4270  0.2256
 1276TIP3   OH225242   6.627   0.112   0.080 -0.3993  0.0781 -0.0362
 1276TIP3    H125243   6.609   0.155  -0.003 -2.2908  0.1106  0.3404
 1276TIP3    H225244   6.543   0.071   0.105  0.7561 -2.0465  0.6452
 1277TIP3   OH225245   3.911   0.003  13.110  0.3010 -0.1420  0.3470
 1277TIP3    H125246   3.918  -0.088  13.139 -1.2326 -0.9012 -1.4554
 1277TIP3    H225247   4.002   0.031  13.098  0.8690 -0.8415  2.5198
 1278TIP3   OH225248   2.635   2.560   0.612  0.4051 -0.0978 -0.5010
 1278TIP3    H125249   2.716   2.593   0.651  0.7964  0.1638 -1.4934
 1278TIP3    H225250   2.643   2.582   0.519 -0.4026 -0.8831 -0.7692
 1279TIP3   OH225251   3.298   2.735  14.766  0.5576  0.1959  0.0288
 1279TIP3    H125252   3.270   2.660  14.819  0.8366 -1.4851 -2.0803
 1279TIP3    H225253   3.392   2.723  14.756  0.9229  1.8603  1.1257
 1280TIP3   OH225254   1.409   5.980   3.336  0.5075 -0.4420 -0.5820
 1280TIP3    H125255   1.441   6.064   3.369  0.7282 -0.9849  0.6395
 1280TIP3    H225256   1.408   5.991   3.241 -1.6735  1.7247 -0.3937
 1281TIP3   OH225257   3.503   2.091   5.735 -0.1543 -0.8131 -0.2278
 1281TIP3    H125258   3.465   2.173   5.703  0.1989  0.4353  2.2585
 1281TIP3    H225259   3.548   2.054   5.659 -0.2153  1.3714 -1.4043
 1282TIP3   OH225260   3.000   5.967  11.235  0.1331 -0.0936 -0.4997
 1282TIP3    H125261   3.012   5.896  11.172 -2.8219 -0.8147 -0.3961
 1282TIP3    H225262   2.906   5.987  11.231  0.4185  2.0377  1.3816
 1283TIP3   OH225263   5.206   6.527  14.312 -0.3767 -0.6719 -0.1049
 1283TIP3    H125264   5.250   6.564  14.235 -2.2010  1.4924 -0.2314
 1283TIP3    H225265   5.187   6.603  14.367  0.9017 -2.1660  2.5942
 1284TIP3   OH225266   5.660   2.766  15.978  0.1321 -0.0795 -0.0294
 1284TIP3    H125267   5.565   2.758  15.968 -0.0292  1.6355 -0.1986
 1284TIP3    H225268   5.671   2.827  16.051  1.0953  0.0235 -0.2500
 1285TIP3   OH225269   0.314   1.190  11.870 -0.0928  0.1331  0.1795
 1285TIP3    H125270   0.228   1.203  11.832 -0.5111  0.2546  1.1356
 1285TIP3    H225271   0.329   1.268  11.924  0.5533  0.0494  0.1361
 1286TIP3   OH225272   2.441   1.122  15.156  0.0044  0.5550 -0.1834
 1286TIP3    H125273   2.489   1.195  15.117  1.9090 -1.9577 -2.9581
 1286TIP3    H225274   2.507   1.054  15.169 -2.2122 -1.9167 -1.0386
 1287TIP3   OH225275   2.422   0.923  17.267  0.2322 -0.5173 -0.1785
 1287TIP3    H125276   2.500   0.973  17.242 -0.1897  0.0606 -0.3710
 1287TIP3    H225277   2.355   0.953  17.206  0.2505 -2.1749 -1.0514
 1288TIP3   OH225278   4.691   1.702  15.426 -0.0618  0.1683  0.0296
 1288TIP3    H125279   4.647   1.782  15.452  0.4183  1.1269 -1.9049
 1288TIP3    H225280   4.632   1.632  15.453  0.2301  1.0091  3.1844
 1289TIP3   OH225281   0.881   2.697  16.082 -0.2738  0.1343  0.1926
 1289TIP3    H125282   0.803   2.751  16.069  0.0920  0.8443  0.8753
 1289TIP3    H225283   0.953   2.747  16.044 -0.3799 -1.3880 -2.2572
 1290TIP3   OH225284   2.012   5.072   4.500  0.5354  0.0016 -0.4618
 1290TIP3    H125285   2.001   5.165   4.481  0.5759  0.1218  0.0984
 1290TIP3    H225286   2.042   5.035   4.417  0.6825  0.5159 -0.6472
 1291TIP3   OH225287   3.639   5.259  12.330  0.5586 -0.2747  0.1932
 1291TIP3    H125288   3.564   5.308  12.295 -0.1204 -2.3646 -1.5109
 1291TIP3    H225289   3.715   5.301  12.291  0.0516 -0.1303 -0.6678
 1292TIP3   OH225290   2.523   1.430  11.496  0.1400  0.3607  0.7141
 1292TIP3    H125291   2.470   1.440  11.417  0.2902 -0.8199  0.4356
 1292TIP3    H225292   2.585   1.503  11.494  1.7736 -0.9637 -1.5659
 1293TIP3   OH225293   1.965   3.557   0.309 -0.0360  0.3493 -0.3559
 1293TIP3    H125294   1.909   3.527   0.381 -1.2794  0.1063 -1.3846
 1293TIP3    H225295   1.999   3.642   0.338  0.3668 -0.2320  0.9514
 1294TIP3   OH225296   4.496   1.922  15.339 -0.1761 -0.0866 -0.6720
 1294TIP3    H125297   4.542   1.989  15.289 -0.1097  1.0655  0.8529
 1294TIP3    H225298   4.495   1.845  15.282  1.8075  0.4865 -1.5534
 1295TIP3   OH225299   1.649   2.239  17.204  0.0126  0.7182 -0.0305
 1295TIP3    H125300   1.661   2.146  17.189 -0.4924  0.6808 -0.2117
 1295TIP3    H225301   1.629   2.246  17.298 -2.1765  0.4065 -0.4306
 1296TIP3   OH225302   6.054   2.072   6.368  0.4786 -0.1910 -0.5108
 1296TIP3    H125303   6.039   1.978   6.380 -1.5588  0.1416 -0.0070
 1296TIP3    H225304   6.143   2.087   6.399  0.0360 -1.5893  1.6456
 1297TIP3   OH225305   5.521   5.317   0.203  0.0240  0.5496 -0.1034
 1297TIP3    H125306   5.598   5.335   0.258  0.4956 -1.1058 -0.1861
 1297TIP3    H225307   5.503   5.401   0.160  0.8911  1.3483  1.0003
 1298TIP3   OH225308   6.745   2.536   3.444  0.4107  0.2347  0.3817
 1298TIP3    H125309   6.823   2.586   3.421  0.3018 -0.4756 -1.7459
 1298TIP3    H225310   6.756   2.453   3.397 -0.5731 -0.7697  1.8616
 1299TIP3   OH225311   2.166   2.103   1.880  0.2450  0.0188 -0.1213
 1299TIP3    H125312   2.251   2.081   1.841 -0.7048 -2.0274 -1.2444
 1299TIP3    H225313   2.141   2.185   1.837  0.1247 -1.1658 -2.4822
 1300TIP3   OH225314   2.961   1.893  12.285 -0.5033  0.1734  0.2731
 1300TIP3    H125315   3.050   1.927  12.280 -0.5959  0.4283  0.3404
 1300TIP3    H225316   2.919   1.924  12.205  0.1647 -1.9822 -1.0024
 1301TIP3   OH225317   0.296   3.185   4.077 -0.2826 -0.2512 -0.1726
 1301TIP3    H125318   0.388   3.196   4.052  0.1183  0.1907  1.3970
 1301TIP3    H225319   0.249   3.243   4.018  0.6905  1.2492  0.4682
 1302TIP3   OH225320   5.505   5.795   1.743  0.0859 -0.0979  0.2931
 1302TIP3    H125321   5.547   5.823   1.662  0.8056  1.3787  1.1344
 1302TIP3    H225322   5.429   5.743   1.714  0.6921 -0.1621 -1.2884
 1303TIP3   OH225323   6.688   2.249  12.604  0.1587  0.0624 -0.2484
 1303TIP3    H125324   6.657   2.165  12.570  0.3829  0.4836 -1.5357
 1303TIP3    H225325   6.619   2.311  12.581 -0.8120 -0.0180  2.1750
 1304TIP3   OH225326   4.246   3.792  15.781  0.2365  0.0330  0.2369
 1304TIP3    H125327   4.218   3.746  15.702 -1.7617 -0.0992  0.9723
 1304TIP3    H225328   4.246   3.725  15.850  0.0709  0.5436  0.7436
 1305TIP3   OH225329   5.138   0.160   3.762 -0.0687 -0.3376  0.3113
 1305TIP3    H125330   5.229   0.173   3.736 -0.0643 -0.5052  0.2423
 1305TIP3    H225331   5.108   0.086   3.709 -0.7203  0.6977 -0.8294
 1306TIP3   OH225332   2.481   6.158   4.805 -0.3748  0.7532  0.0655
 1306TIP3    H125333   2.519   6.112   4.879 -2.0428  0.1223  0.5848
 1306TIP3    H225334   2.415   6.098   4.770 -1.6168  2.1559 -0.1384
 1307TIP3   OH225335   6.591   0.073  12.478 -0.6021 -0.1288 -0.4413
 1307TIP3    H125336   6.646   0.011  12.431 -0.8964 -0.5954 -0.1808
 1307TIP3    H225337   6.636   0.157  12.469  1.0716 -0.7642  1.1446
 1308TIP3   OH225338   3.899   0.334   3.209  0.4978 -0.1983 -0.6060
 1308TIP3    H125339   3.857   0.412   3.246  0.6152 -0.3732 -0.0831
 1308TIP3    H225340   3.982   0.328   3.256 -0.2915 -1.6622  0.7148
 1309TIP3   OH225341   0.393   0.698   5.376 -0.0932  0.2596  0.5400
 1309TIP3    H125342   0.486   0.676   5.365  0.1193  1.4143 -0.0590
 1309TIP3    H225343   0.351   0.658   5.300 -0.4084 -1.8699  1.7474
 1310TIP3   OH225344   0.006   1.046  14.158  0.5656 -0.1558 -0.3914
 1310TIP3    H125345  -0.056   0.980  14.190 -0.5717 -0.4876 -2.9666
 1310TIP3    H225346  -0.007   1.122  14.214  0.5502 -1.4709  1.4625
 1311TIP3   OH225347   6.180   4.283   3.510 -0.3706  0.0467 -0.4160
 1311TIP3    H125348   6.134   4.200   3.515 -0.0231 -0.3435 -2.7970
 1311TIP3    H225349   6.124   4.339   3.456  0.7579  0.3715 -1.2904
 1312TIP3   OH225350   5.520   5.586   1.060 -0.0195 -0.2410 -0.4077
 1312TIP3    H125351   5.452   5.639   1.020  0.7512  0.7017 -0.5072
 1312TIP3    H225352   5.490   5.496   1.048 -0.7143  0.1075 -1.4273
 1313TIP3   OH225353   2.954   0.896   1.553  0.6785  0.0868  0.7272
 1313TIP3    H125354   2.994   0.902   1.639 -0.6228  0.4617  1.3267
 1313TIP3    H225355   2.860   0.902   1.569  0.4006 -0.0287 -0.6985
 1314TIP3   OH225356   4.205   2.962  15.650 -0.1181  0.0222 -0.1308
 1314TIP3    H125357   4.253   2.948  15.732 -0.2121 -0.6346 -0.1799
 1314TIP3    H225358   4.263   2.927  15.583 -0.7490 -0.9779 -0.1695
 1315TIP3   OH225359   0.957   5.805   1.821  0.5128  0.6800 -0.4424
 1315TIP3    H125360   1.004   5.873   1.868 -0.0076  1.5699 -1.1853
 1315TIP3    H225361   0.867   5.811   1.854  1.0936 -2.0412  2.1560
 1316TIP3   OH225362   2.212   0.362  14.078  0.1687 -0.0868 -0.5361
 1316TIP3    H125363   2.170   0.323  14.154  0.2023 -0.7927 -0.8786
 1316TIP3    H225364   2.172   0.449  14.071  0.5589  0.2013  0.6092
 1317TIP3   OH225365   2.525   2.835  14.911  0.5057 -0.3278  0.0371
 1317TIP3    H125366   2.535   2.852  14.817 -0.7897 -1.1512 -0.2797
 1317TIP3    H225367   2.534   2.921  14.952  0.2470  0.1760 -0.9208
 1318TIP3   OH225368   3.062   3.634   0.713 -0.4147  0.0715 -0.2579
 1318TIP3    H125369   3.062   3.634   0.809 -0.2112  0.8462 -0.2501
 1318TIP3    H225370   3.071   3.541   0.689 -1.9820 -0.2961  0.4570
 1319TIP3   OH225371   3.166   2.577   0.202  0.3365  0.3757 -0.0854
 1319TIP3    H125372   3.234   2.608   0.142  0.4698  0.4473  0.1015
 1319TIP3    H225373   3.157   2.484   0.182  2.4397 -0.3017  1.7427
 1320TIP3   OH225374   1.497   4.201   0.933 -0.5173 -0.5668 -0.3845
 1320TIP3    H125375   1.521   4.147   0.857 -0.5237 -1.0653 -0.0322
 1320TIP3    H225376   1.577   4.247   0.957 -0.1787 -1.4138  0.1238
 1321TIP3   OH225377   1.685   1.868  14.365 -0.5073 -0.0105 -0.2772
 1321TIP3    H125378   1.705   1.859  14.458  0.6853 -1.4130 -0.6144
 1321TIP3    H225379   1.615   1.932  14.360 -0.2728  0.4143  1.5488
 1322TIP3   OH225380   6.251   6.111   4.862  0.0700  0.1380 -0.6668
 1322TIP3    H125381   6.294   6.128   4.946  1.5375 -2.7343 -0.6971
 1322TIP3    H225382   6.158   6.103   4.883  0.1200  1.6792  0.2593
 1323TIP3   OH225383   6.175   4.993  16.625 -0.4886 -0.1465  0.4216
 1323TIP3    H125384   6.175   4.933  16.550 -1.6140  1.6545 -1.1032
 1323TIP3    H225385   6.267   5.018  16.634 -0.4976  0.7108 -1.3418
 1324TIP3   OH225386   6.660   1.096  15.952  0.2958  0.0221 -0.0563
 1324TIP3    H125387   6.736   1.076  15.897  0.0443  0.1771 -0.4614
 1324TIP3    H225388   6.613   1.164  15.904 -0.1766 -0.1770  0.1288
 1325TIP3   OH225389   4.907   3.943  13.449  0.6630  0.9881 -0.1211
 1325TIP3    H125390   4.985   3.932  13.504  0.1940 -1.1094  0.2142
 1325TIP3    H225391   4.929   3.900  13.367  0.2605  1.4374 -0.4737
 1326TIP3   OH225392   0.954   4.997  14.350 -0.1006  0.1338 -0.2103
 1326TIP3    H125393   0.928   5.087  14.330  2.0320  0.9608  0.5148
 1326TIP3    H225394   0.915   4.945  14.279 -1.6213  1.5413 -0.4901
 1327TIP3   OH225395   2.233   5.724   1.301  0.6955 -0.3539  0.7012
 1327TIP3    H125396   2.182   5.643   1.292 -0.9470  0.7592 -0.6225
 1327TIP3    H225397   2.316   5.696   1.340 -0.0733 -2.5705  0.8700
 1328TIP3   OH225398   4.660   3.859   3.733 -0.6666  0.0934 -0.4108
 1328TIP3    H125399   4.734   3.866   3.674  0.0379  1.0028  0.5465
 1328TIP3    H225400   4.616   3.778   3.708  0.6524 -0.4618 -0.9864
 1329TIP3   OH225401   4.349   4.586  10.936  0.3127 -0.0672  0.0255
 1329TIP3    H125402   4.304   4.503  10.950 -0.4107  0.1218 -1.0597
 1329TIP3    H225403   4.280   4.652  10.939  0.6420  0.3266 -0.6791
 1330TIP3   OH225404   5.209   1.676  14.386  0.4503  0.3575  0.3381
 1330TIP3    H125405   5.166   1.759  14.365 -1.6107 -0.6232  0.4314
 1330TIP3    H225406   5.268   1.697  14.459  0.0534  1.7400  0.2950
 1331TIP3   OH225407   4.020   4.620  13.754 -0.1270  0.1574  0.3300
 1331TIP3    H125408   3.927   4.608  13.736  0.0228 -0.2512 -0.2026
 1331TIP3    H225409   4.050   4.534  13.786 -0.0797  0.4797  1.1880
 1332TIP3   OH225410   6.070   4.677   3.867  0.2088  0.3232 -1.0603
 1332TIP3    H125411   6.118   4.600   3.898  0.2720  0.0401 -1.8460
 1332TIP3    H225412   6.132   4.723   3.810  0.7517  1.8695  0.6825
 1333TIP3   OH225413   5.719   4.776  16.840  0.4853  0.2542 -0.2468
 1333TIP3    H125414   5.774   4.829  16.782  2.5233 -1.3776  0.0837
 1333TIP3    H225415   5.757   4.688  16.836 -0.1024 -0.2197  2.5368
 1334TIP3   OH225416   2.737   3.326   6.452 -0.4859 -0.0434 -0.0645
 1334TIP3    H125417   2.726   3.277   6.533 -0.8976 -0.5088 -0.3924
 1334TIP3    H225418   2.829   3.349   6.450  0.2303 -2.6308 -0.9009
 1335TIP3   OH225419   5.074   6.497   4.913  0.8855 -0.0630 -0.4781
 1335TIP3    H125420   5.037   6.420   4.870  0.7181  0.2572 -0.9182
 1335TIP3    H225421   5.152   6.518   4.861  0.9749  0.0182 -0.3111
 1336TIP3   OH225422   6.608   1.613   3.567  0.5897  0.2317  0.3162
 1336TIP3    H125423   6.582   1.652   3.650  1.9081  0.7676  0.4921
 1336TIP3    H225424   6.635   1.524   3.590 -4.2462 -1.7602 -0.3246
 1337TIP3   OH225425   5.557   3.337   2.406 -0.3337 -0.5451 -0.5058
 1337TIP3    H125426   5.553   3.316   2.499 -0.3248  1.5894  0.0277
 1337TIP3    H225427   5.595   3.259   2.365 -3.2556 -2.8507  0.7761
 1338TIP3   OH225428   0.247   1.931   5.509  0.3058  0.4543 -0.3930
 1338TIP3    H125429   0.285   2.019   5.508 -1.2733  1.1678 -0.1513
 1338TIP3    H225430   0.295   1.883   5.441  1.8121  1.2106  0.0918
 1339TIP3   OH225431   3.514   0.704  14.947 -0.2940  0.0947 -0.1552
 1339TIP3    H125432   3.445   0.654  14.903  0.0884 -0.4321 -0.1605
 1339TIP3    H225433   3.530   0.656  15.028 -0.1906  0.4236  0.0218
 1340TIP3   OH225434   1.207   2.588  16.648  0.0896  0.5719 -0.5990
 1340TIP3    H125435   1.150   2.649  16.696 -1.7668  0.9723 -3.1209
 1340TIP3    H225436   1.292   2.598  16.691 -1.0425  2.0521  1.5511
 1341TIP3   OH225437   0.549   2.532  10.621  0.6626  0.5651 -0.3377
 1341TIP3    H125438   0.597   2.450  10.612  1.4744  1.1060 -1.1136
 1341TIP3    H225439   0.589   2.576  10.696  0.2277  0.2698  0.0781
 1342TIP3   OH225440   1.947   1.841  12.344  0.0564  0.5687  0.1719
 1342TIP3    H125441   1.894   1.856  12.266 -0.4840  0.5362  0.5269
 1342TIP3    H225442   1.889   1.865  12.417 -0.0316 -0.9591  0.6373
 1343TIP3   OH225443   4.647   5.940  12.222  0.3413 -0.3296 -0.0079
 1343TIP3    H125444   4.603   5.862  12.189 -0.2198  0.2746 -0.7356
 1343TIP3    H225445   4.663   5.994  12.144  0.4819  0.3973  0.5043
 1344TIP3   OH225446   5.475   2.260  10.762 -0.3811  0.4186 -0.4625
 1344TIP3    H125447   5.383   2.264  10.736 -0.0533 -0.6301 -1.9310
 1344TIP3    H225448   5.511   2.345  10.737 -0.3293 -0.1758 -2.5717
 1345TIP3   OH225449   4.810   4.499   5.450  0.3399  0.0414 -0.4936
 1345TIP3    H125450   4.863   4.460   5.519  2.2212  1.0337 -1.3046
 1345TIP3    H225451   4.846   4.463   5.369  1.1169  2.1859 -1.1772
 1346TIP3   OH225452   5.993   1.022  11.343  0.6799 -0.3038 -0.7864
 1346TIP3    H125453   5.911   0.990  11.379  0.8327 -1.0228 -1.0678
 1346TIP3    H225454   5.996   1.115  11.369  0.4853 -0.6323  0.4855
 1347TIP3   OH225455   6.166   3.979   2.096 -0.3139 -0.3445  0.2113
 1347TIP3    H125456   6.105   4.052   2.100 -1.1879 -0.9642 -1.1379
 1347TIP3    H225457   6.235   4.009   2.036 -0.7862 -0.6842 -0.5172
 1348TIP3   OH225458   4.837   0.084  15.714  0.6935  0.0483  0.3898
 1348TIP3    H125459   4.918   0.035  15.702  1.3044  1.2081 -0.3687
 1348TIP3    H225460   4.864   0.165  15.757 -0.1021  0.3552  0.3323
 1349TIP3   OH225461   5.664   6.086  11.283 -0.3020  0.3319 -0.0476
 1349TIP3    H125462   5.750   6.125  11.300 -0.8274  0.9308  1.3792
 1349TIP3    H225463   5.661   6.010  11.342 -0.3033 -0.4040 -0.9626
 1350TIP3   OH225464   0.084   2.886  11.034 -0.7246  0.2934 -0.2298
 1350TIP3    H125465   0.144   2.924  11.098 -0.7380  0.2136 -0.1707
 1350TIP3    H225466   0.096   2.939  10.955 -1.2905  0.9032  0.0820
 1351TIP3   OH225467   3.212   3.427  14.247  0.1122  0.1712  0.7669
 1351TIP3    H125468   3.187   3.420  14.339 -0.0819 -0.0639  0.6968
 1351TIP3    H225469   3.273   3.355  14.233 -0.4136 -0.2339  0.5309
 1352TIP3   OH225470   1.727   1.561   2.743  0.5681  0.1038  0.1367
 1352TIP3    H125471   1.704   1.468   2.737 -1.3844  0.5996 -0.5450
 1352TIP3    H225472   1.736   1.577   2.837  1.7256 -0.9310  0.2296
 1353TIP3   OH225473   0.975   2.982  13.299  0.1031 -0.0165  0.6368
 1353TIP3    H125474   1.041   3.008  13.235 -0.8374  1.4680  0.2173
 1353TIP3    H225475   0.987   3.044  13.372 -1.4571  0.9705  0.1044
 1354TIP3   OH225476   2.324   4.583   1.137 -0.0470 -0.3717  0.1776
 1354TIP3    H125477   2.375   4.595   1.056 -1.8949  1.1029 -0.8453
 1354TIP3    H225478   2.251   4.526   1.111 -1.0167  0.6410  0.6165
 1355TIP3   OH225479   2.409   0.768   0.900  0.2314 -0.3774 -0.5127
 1355TIP3    H125480   2.448   0.736   0.982  1.3306 -2.5383 -1.7861
 1355TIP3    H225481   2.318   0.788   0.923  0.4895 -1.0099  1.2078
 1356TIP3   OH225482   4.217   5.948  10.657  0.2116 -0.2814  0.3803
 1356TIP3    H125483   4.278   5.914  10.722 -0.1753 -0.4232  0.6728
 1356TIP3    H225484   4.132   5.946  10.700  0.2783  1.8198  0.7203
 1357TIP3   OH225485   6.307   2.974  12.584  0.5041  0.0579 -0.2201
 1357TIP3    H125486   6.214   2.996  12.582  0.6795  0.8048 -1.4424
 1357TIP3    H225487   6.324   2.932  12.499  1.6535  1.7338 -0.8833
 1358TIP3   OH225488   5.112   2.374   1.036  0.4617  0.4560 -0.0187
 1358TIP3    H125489   5.066   2.449   1.074 -0.0510 -0.9848  2.3567
 1358TIP3    H225490   5.082   2.299   1.086  0.7158 -1.4522 -2.5120
 1359TIP3   OH225491   3.367   3.618   2.086 -0.0425  0.2358  0.0492
 1359TIP3    H125492   3.327   3.645   2.169 -0.6214  2.2384 -0.8095
 1359TIP3    H225493   3.296   3.626   2.022  0.5561 -0.6499 -0.7504
 1360TIP3   OH225494   2.936   5.755  13.559  0.6222  0.1129  0.3724
 1360TIP3    H125495   2.914   5.688  13.494 -1.9458  0.8209  0.3895
 1360TIP3    H225496   2.948   5.835  13.507 -0.5762  0.4989  0.6586
 1361TIP3   OH225497   1.566   3.159   4.612  0.4428  0.0626  0.3243
 1361TIP3    H125498   1.486   3.106   4.615  1.1694 -1.0345  1.6620
 1361TIP3    H225499   1.625   3.111   4.554  0.5622  0.2262  0.3101
 1362TIP3   OH225500   1.479   6.363  10.979 -0.4088  0.2385  0.9228
 1362TIP3    H125501   1.444   6.396  10.896  0.1937  0.1965  0.6487
 1362TIP3    H225502   1.544   6.297  10.954  0.3880  0.8175  1.3880
 1363TIP3   OH225503   4.602   1.525  12.426 -0.2147 -0.0577 -0.2830
 1363TIP3    H125504   4.636   1.538  12.337  0.8511 -0.1316  0.0990
 1363TIP3    H225505   4.666   1.568  12.483  1.1441 -3.0851  0.7120
 1364TIP3   OH225506   5.983   4.009  12.495  0.0738 -0.1223  0.2829
 1364TIP3    H125507   5.937   3.996  12.412 -1.7411  1.9114  0.8697
 1364TIP3    H225508   6.013   4.100  12.492  0.3051 -0.1306  1.6801
 1365TIP3   OH225509   3.415   3.463   1.065  0.1352  0.5804 -0.7784
 1365TIP3    H125510   3.409   3.455   0.970  0.7632 -1.1547 -0.7199
 1365TIP3    H225511   3.389   3.553   1.084 -3.3210  0.0372 -2.2671
 1366TIP3   OH225512   0.057   3.704   5.725 -0.0702 -0.1453  0.4696
 1366TIP3    H125513   0.012   3.784   5.754 -1.7480 -0.9437  0.1808
 1366TIP3    H225514   0.046   3.642   5.797 -0.4267 -0.7186 -0.0692
 1367TIP3   OH225515   1.446   2.479  15.356 -0.4067 -0.3864 -0.4097
 1367TIP3    H125516   1.411   2.547  15.414  1.8992  1.0326 -0.5662
 1367TIP3    H225517   1.384   2.474  15.284 -0.4698  1.8503 -0.5676
 1368TIP3   OH225518   3.668   3.103  15.043  0.4397 -0.1095  0.7109
 1368TIP3    H125519   3.684   3.146  14.959 -0.9240  0.9940  0.9860
 1368TIP3    H225520   3.601   3.037  15.024 -0.4666  0.6863  1.0581
 1369TIP3   OH225521   4.252   2.550   1.559 -0.1135 -0.3528 -0.0654
 1369TIP3    H125522   4.160   2.541   1.580 -0.1061  0.0505  0.1570
 1369TIP3    H225523   4.277   2.635   1.595  0.5327 -0.7965  0.5697
 1370TIP3   OH225524   5.444   4.252  11.724 -0.3933  0.6993 -0.4540
 1370TIP3    H125525   5.414   4.285  11.808 -1.7348 -1.6022  0.0555
 1370TIP3    H225526   5.483   4.167  11.743  0.1544  0.5490 -2.0465
 1371TIP3   OH225527   1.168   5.646   4.471 -0.1590  0.5789  0.2838
 1371TIP3    H125528   1.102   5.691   4.419  0.3230 -1.4076 -2.2980
 1371TIP3    H225529   1.137   5.555   4.475  2.2517 -0.3944 -0.9365
 1372TIP3   OH225530   5.472   2.407  12.183 -0.1829 -0.2977 -0.5046
 1372TIP3    H125531   5.518   2.484  12.216  0.5578 -0.1146 -1.8772
 1372TIP3    H225532   5.383   2.437  12.165 -0.5027 -0.3188  0.9240
 1373TIP3   OH225533   0.440   1.217   2.533  0.2359 -0.2268 -0.4248
 1373TIP3    H125534   0.499   1.182   2.600  1.1649  0.3922 -0.8977
 1373TIP3    H225535   0.418   1.141   2.479 -2.3644 -1.2550  1.8283
 1374TIP3   OH225536   5.045   3.719  12.975 -0.0728  0.4239  0.0331
 1374TIP3    H125537   5.131   3.725  13.016  0.5996  0.6844 -1.3643
 1374TIP3    H225538   5.048   3.639  12.922 -0.8272  0.2345  0.2518
 1375TIP3   OH225539   2.120   2.358   2.047  0.2400 -0.3580  0.1113
 1375TIP3    H125540   2.041   2.356   1.992  0.2455 -2.3170  0.1077
 1375TIP3    H225541   2.099   2.303   2.122  0.3243  2.0941  2.0433
 1376TIP3   OH225542   4.149   2.564  12.546 -0.1872 -0.4157  0.7726
 1376TIP3    H125543   4.225   2.538  12.598 -0.8757 -0.8989  1.5555
 1376TIP3    H225544   4.138   2.657  12.565 -0.8119 -0.7168  2.0265
 1377TIP3   OH225545   0.942   3.325  13.935  0.1730 -0.9288 -0.3530
 1377TIP3    H125546   0.894   3.334  13.853  0.2852 -1.1271 -0.4423
 1377TIP3    H225547   0.995   3.405  13.941 -2.5192  0.8893  1.3327
 1378TIP3   OH225548   0.811   0.718  11.232 -0.1907 -0.6697 -0.4560
 1378TIP3    H125549   0.784   0.680  11.148 -0.0270 -0.1590 -0.7412
 1378TIP3    H225550   0.759   0.670  11.297 -2.3138  0.7113 -1.0229
 1379TIP3   OH225551   0.537   1.537   3.738  0.1055  0.2256 -0.0566
 1379TIP3    H125552   0.537   1.485   3.819  0.4857  0.5906  0.1833
 1379TIP3    H225553   0.612   1.504   3.689 -0.0358  0.1086 -0.1952
 1380TIP3   OH225554   3.782   4.116  14.358 -0.5549 -0.5996 -0.2899
 1380TIP3    H125555   3.715   4.170  14.316  0.6225  0.2889 -1.1208
 1380TIP3    H225556   3.828   4.176  14.416  2.0450 -0.0706 -2.6627
 1381TIP3   OH225557   0.942   1.417  15.932  0.3187 -0.1258 -0.5759
 1381TIP3    H125558   1.011   1.450  15.990  0.8160 -0.1330 -1.1554
 1381TIP3    H225559   0.922   1.491  15.874  0.2202 -0.2968 -0.7622
 1382TIP3   OH225560   3.410   4.933  11.895 -0.6063  0.0436  0.5714
 1382TIP3    H125561   3.413   5.028  11.911 -2.9313  0.3032 -0.1648
 1382TIP3    H225562   3.403   4.925  11.800 -0.7481 -0.8537  0.6481
 1383TIP3   OH225563   5.686   6.743  13.790  0.0962 -0.1992 -0.0982
 1383TIP3    H125564   5.659   6.663  13.745  2.6143 -1.3813  0.3277
 1383TIP3    H225565   5.678   6.721  13.883  2.5537 -0.7267  0.0624
 1384TIP3   OH225566   3.139   3.665  12.026 -0.4224  0.1134  0.1811
 1384TIP3    H125567   3.101   3.634  11.944 -0.4660  0.8169 -0.0706
 1384TIP3    H225568   3.213   3.606  12.041  0.3535  0.7385 -1.0224
 1385TIP3   OH225569   0.310   2.057   1.595 -0.9788 -0.0260  0.0880
 1385TIP3    H125570   0.302   2.137   1.543  0.8552  0.6166  0.7177
 1385TIP3    H225571   0.375   2.004   1.548 -3.0431 -1.7541 -0.9887
 1386TIP3   OH225572   6.740   5.308  13.632  0.1516 -0.0385  0.3172
 1386TIP3    H125573   6.678   5.242  13.598 -1.5058  0.8908  1.4115
 1386TIP3    H225574   6.777   5.268  13.710 -0.6306  0.1989  0.8153
 1387TIP3   OH225575   2.294   4.364   5.071 -0.3888 -0.5040  0.2326
 1387TIP3    H125576   2.267   4.342   5.160  0.1552  2.5082  1.2698
 1387TIP3    H225577   2.218   4.410   5.035 -0.3290 -1.0564 -0.6195
 1388TIP3   OH225578   0.684   2.036  15.134 -0.3715 -0.0214  0.2708
 1388TIP3    H125579   0.626   2.087  15.077  0.8944  1.2540  0.0495
 1388TIP3    H225580   0.749   1.998  15.075  0.2598  0.3385  0.7211
 1389TIP3   OH225581   0.557   2.207  15.930 -0.0736  0.2291  0.3230
 1389TIP3    H125582   0.566   2.227  16.023 -0.5811 -1.2825  0.7344
 1389TIP3    H225583   0.643   2.177  15.903 -0.5561 -1.9865  1.0422
 1390TIP3   OH225584   4.298   0.936  10.990 -0.0547 -0.2674  0.1145
 1390TIP3    H125585   4.351   0.988  10.929  1.2739 -2.2815 -0.5572
 1390TIP3    H225586   4.341   0.948  11.075  0.4934 -0.5666 -0.1147
 1391TIP3   OH225587   0.232   1.041  16.991 -1.0561  0.0514 -0.3804
 1391TIP3    H125588   0.232   1.106  17.061 -0.4174  0.0878 -0.4097
 1391TIP3    H225589   0.296   1.075  16.927  0.1175 -1.1466  0.1136
 1392TIP3   OH225590   1.991   4.357  11.482 -0.5019  0.1308 -0.1727
 1392TIP3    H125591   1.963   4.379  11.393 -0.9934  0.8482  0.1521
 1392TIP3    H225592   1.949   4.422  11.537  0.9348  0.5663  0.4572
 1393TIP3   OH225593   4.315   0.123  16.821  0.5667  0.3173 -0.1401
 1393TIP3    H125594   4.368   0.163  16.890  0.8284 -0.8036  0.3332
 1393TIP3    H225595   4.244   0.078  16.868  0.6886 -0.3775 -0.6067
 1394TIP3   OH225596   6.137   1.638  13.396  0.2197  0.0630  0.2608
 1394TIP3    H125597   6.067   1.636  13.331  0.3309  1.0439  0.0927
 1394TIP3    H225598   6.197   1.569  13.369 -0.5164 -0.5699  0.2185
 1395TIP3   OH225599   5.092   0.051  16.379  0.1477 -0.2437 -0.3402
 1395TIP3    H125600   5.107   0.113  16.450 -0.1310 -1.2690  0.6585
 1395TIP3    H225601   5.177   0.008  16.367  0.0418 -0.4908 -0.2083
 1396TIP3   OH225602   0.915   0.971  13.783 -0.0964 -0.7625  0.3998
 1396TIP3    H125603   0.956   1.041  13.833  1.4842 -1.5931  0.3236
 1396TIP3    H225604   0.841   1.013  13.739  1.0998  0.9758 -0.0432
 1397TIP3   OH225605   0.081   2.784  15.094 -0.4892  1.1313  0.6934
 1397TIP3    H125606   0.135   2.712  15.128 -2.4129 -1.1521 -0.7839
 1397TIP3    H225607   0.073   2.766  15.001  0.0206  4.0898 -0.0140
 1398TIP3   OH225608   2.529   6.699  15.613 -0.0973  1.2285  0.0225
 1398TIP3    H125609   2.477   6.662  15.542 -2.0378  2.9797  0.4307
 1398TIP3    H225610   2.503   6.649  15.690  0.5787  0.5849 -0.1604
 1399TIP3   OH225611   4.345   2.436  10.503 -0.0352 -0.0782 -0.0088
 1399TIP3    H125612   4.426   2.467  10.544 -0.6921  1.3571  0.2675
 1399TIP3    H225613   4.281   2.433  10.574 -0.6058  0.2704 -0.4952
 1400TIP3   OH225614   0.569   0.386   2.458  0.3845  0.0339  0.3241
 1400TIP3    H125615   0.587   0.436   2.538  0.6994 -0.8505  0.8321
 1400TIP3    H225616   0.649   0.392   2.407  0.0572  0.8992 -0.1006
 1401TIP3   OH225617   6.770   1.090  17.152 -0.0547  0.2904 -0.4908
 1401TIP3    H125618   6.783   1.065  17.061  0.2552 -0.5072 -0.2314
 1401TIP3    H225619   6.818   1.025  17.203 -0.4809  0.5444  0.2624
 1402TIP3   OH225620   3.353   4.365   1.415 -0.2829 -0.4991  0.1855
 1402TIP3    H125621   3.376   4.454   1.389  0.1548 -0.4513  0.7139
 1402TIP3    H225622   3.399   4.352   1.498 -0.6902 -1.0647  0.3272
 1403TIP3   OH225623   1.109   5.947   3.075 -0.2114 -0.2297 -0.3791
 1403TIP3    H125624   1.065   5.998   3.007 -0.2673 -2.5831 -2.2376
 1403TIP3    H225625   1.202   5.965   3.062 -0.3408  2.6431  1.8073
 1404TIP3   OH225626   4.359   2.877  14.590  0.3628 -0.0105  0.8040
 1404TIP3    H125627   4.302   2.805  14.615  0.0304 -0.0831 -0.1338
 1404TIP3    H225628   4.299   2.949  14.570  0.5728 -0.1727 -0.4648
 1405TIP3   OH225629   4.741   4.044   2.600  0.3706 -0.3212 -0.2296
 1405TIP3    H125630   4.653   4.076   2.618  0.3617  0.3479 -1.4081
 1405TIP3    H225631   4.761   3.988   2.675 -2.1156 -2.7222 -1.1696
 1406TIP3   OH225632   0.063   3.169  12.344  0.4640 -0.4224  0.4075
 1406TIP3    H125633  -0.032   3.171  12.335  0.5618 -0.0146 -0.6609
 1406TIP3    H225634   0.085   3.075  12.339  0.1958 -0.4547 -0.4585
 1407TIP3   OH225635   0.366   6.569   4.959 -0.3309 -0.4743  0.2880
 1407TIP3    H125636   0.276   6.540   4.975 -1.5208  2.9456  0.5771
 1407TIP3    H225637   0.368   6.587   4.865  0.0757 -0.5053  0.2924
 1408TIP3   OH225638   4.196   3.829  13.830 -0.9310  0.5926  0.0724
 1408TIP3    H125639   4.203   3.744  13.874  3.3549  0.0543 -1.1659
 1408TIP3    H225640   4.137   3.814  13.757 -1.9266 -0.6568  1.0800
 1409TIP3   OH225641   1.449   1.419  11.096  0.2471 -0.1062  0.1969
 1409TIP3    H125642   1.458   1.459  11.182 -0.3421 -1.0667  0.7202
 1409TIP3    H225643   1.496   1.478  11.037  1.0328  0.3355  1.2348
 1410TIP3   OH225644   6.345   0.602   4.584 -0.1691 -0.3507 -0.4551
 1410TIP3    H125645   6.434   0.595   4.619 -0.1887 -0.3109 -0.3961
 1410TIP3    H225646   6.289   0.598   4.662 -0.1110  3.3123 -0.0136
 1411TIP3   OH225647   1.239   5.143   4.390  0.6151  0.5192 -0.9846
 1411TIP3    H125648   1.266   5.066   4.441 -2.7837  1.7811  3.3257
 1411TIP3    H225649   1.286   5.216   4.432 -2.7882  1.6751  1.2186
 1412TIP3   OH225650   2.858   5.612   2.669 -0.0200  0.2130  0.6353
 1412TIP3    H125651   2.831   5.612   2.577 -0.1290  1.4850  0.6494
 1412TIP3    H225652   2.837   5.700   2.701 -0.3726 -0.3319  2.0009
 1413TIP3   OH225653   0.593   6.357  16.909 -0.7748 -0.0278 -0.0178
 1413TIP3    H125654   0.667   6.405  16.945  0.2759 -0.0001 -2.0838
 1413TIP3    H225655   0.525   6.364  16.976  0.6609  0.9894  1.3994
 1414TIP3   OH225656   4.325   1.938   0.781  0.3791 -0.1091 -0.1438
 1414TIP3    H125657   4.328   2.031   0.803  1.2820 -0.0565 -0.4636
 1414TIP3    H225658   4.384   1.896   0.843 -1.8853 -0.8472  1.6450
 1415TIP3   OH225659   1.643   5.939  11.323 -0.5982  0.1477  0.2747
 1415TIP3    H125660   1.734   5.910  11.326 -0.8132 -0.5570  0.2134
 1415TIP3    H225661   1.632   5.974  11.234 -0.8035 -1.2266 -0.2670
 1416TIP3   OH225662   0.752   3.057   3.541 -0.3291 -0.3535  0.6180
 1416TIP3    H125663   0.707   3.032   3.461  0.4153  0.1526  0.0301
 1416TIP3    H225664   0.682   3.087   3.599 -0.8369 -0.3777  0.0297
 1417TIP3   OH225665   5.509   2.441   4.503  0.4558 -0.0417  0.0645
 1417TIP3    H125666   5.547   2.365   4.548 -0.7094 -1.0845 -0.6334
 1417TIP3    H225667   5.439   2.404   4.449 -0.1160  1.5413 -0.3356
 1418TIP3   OH225668   5.976   3.542  13.118  0.0603  0.3380  0.1723
 1418TIP3    H125669   5.985   3.452  13.149  0.7666  0.2613 -0.2143
 1418TIP3    H225670   6.017   3.595  13.186  1.5062  0.1796 -0.5350
 1419TIP3   OH225671   4.025   0.635   5.370  0.4096  0.7644 -0.1408
 1419TIP3    H125672   4.082   0.580   5.316 -1.6314 -2.1629  0.4246
 1419TIP3    H225673   4.072   0.644   5.453  0.1914 -1.5586  0.3032
 1420TIP3   OH225674   5.575   3.147   0.176  0.0923  0.3166 -0.1237
 1420TIP3    H125675   5.487   3.153   0.215  0.2039  0.2062  0.1507
 1420TIP3    H225676   5.631   3.196   0.236 -0.0912  2.0845 -1.3221
 1421TIP3   OH225677   3.675   0.835   2.428  0.1171  0.1356 -0.4081
 1421TIP3    H125678   3.722   0.784   2.362 -0.9362  1.2380 -2.0966
 1421TIP3    H225679   3.583   0.816   2.411 -0.1904  0.5815  0.6609
 1422TIP3   OH225680   3.017   1.702   1.577  0.1991 -0.0351 -0.0695
 1422TIP3    H125681   3.065   1.751   1.510 -1.4470  0.0554 -1.2416
 1422TIP3    H225682   2.968   1.768   1.625  0.0984 -0.2653  0.1475
 1423TIP3   OH225683   4.803   2.867  17.202  0.1039  0.1187  0.4140
 1423TIP3    H125684   4.714   2.838  17.222  0.7130 -0.0890  3.0729
 1423TIP3    H225685   4.817   2.944  17.257  0.9358  1.3634 -1.4280
 1424TIP3   OH225686   0.291   5.443  15.525 -0.2333  0.0557  1.2347
 1424TIP3    H125687   0.262   5.356  15.495 -0.7802  0.7089 -0.2468
 1424TIP3    H225688   0.386   5.442  15.508 -0.2888 -0.1354  0.9160
 1425TIP3   OH225689   2.183   1.194   1.032 -0.0460 -0.0517  0.3108
 1425TIP3    H125690   2.213   1.154   1.114  0.5298 -0.6699 -0.1940
 1425TIP3    H225691   2.100   1.151   1.014 -0.9035  1.1031  1.2989
 1426TIP3   OH225692   1.102   4.278  13.732  0.2541 -0.4378  0.0593
 1426TIP3    H125693   1.191   4.246  13.746  0.0189 -0.5603  1.3732
 1426TIP3    H225694   1.046   4.204  13.756 -0.2751  0.6111  2.3982
 1427TIP3   OH225695   4.598   5.497   6.383  0.2574  0.1955 -0.0253
 1427TIP3    H125696   4.637   5.561   6.323 -0.5938 -0.0319 -0.8505
 1427TIP3    H225697   4.571   5.425   6.326 -0.7731  0.0725  0.6048
 1428TIP3   OH225698   4.722   3.484   2.558 -0.2305 -0.1292 -0.0605
 1428TIP3    H125699   4.644   3.493   2.503  0.1732 -2.3626 -1.1455
 1428TIP3    H225700   4.727   3.390   2.576  1.2379  0.2036  1.4729
 1429TIP3   OH225701   4.621   5.900   4.924 -0.1291 -0.5871  0.4717
 1429TIP3    H125702   4.531   5.923   4.897  0.5860 -0.8623 -2.5768
 1429TIP3    H225703   4.628   5.933   5.013 -2.1421  2.6997 -0.3920
 1430TIP3   OH225704   1.397   6.378   4.162  0.1926 -0.2391  0.0147
 1430TIP3    H125705   1.421   6.446   4.098 -0.2296 -0.0161  0.0895
 1430TIP3    H225706   1.473   6.320   4.165  0.7966  0.5656  0.3978
 1431TIP3   OH225707   1.059   3.135   1.922 -0.3919  0.7975  0.3375
 1431TIP3    H125708   1.152   3.123   1.904 -0.4282 -0.3901  0.8900
 1431TIP3    H225709   1.029   3.193   1.852  0.3962 -0.1717 -0.8405
 1432TIP3   OH225710   5.119   5.432  12.554 -0.2239  0.2415 -0.0901
 1432TIP3    H125711   5.203   5.440  12.509  0.3121  0.1293  0.8563
 1432TIP3    H225712   5.116   5.507  12.614 -0.5062 -0.1134  0.3481
 1433TIP3   OH225713   6.756   4.998   2.558 -0.6565  0.0566  0.2977
 1433TIP3    H125714   6.679   4.942   2.544 -2.9278  3.1462 -0.8198
 1433TIP3    H225715   6.746   5.029   2.648  0.5628 -1.1907  0.8943
 1434TIP3   OH225716   3.121   2.128   4.757  0.0429 -0.7110  0.4221
 1434TIP3    H125717   3.107   2.050   4.811 -0.2815 -1.1176 -0.2450
 1434TIP3    H225718   3.035   2.149   4.720  0.0750  0.1069  0.7721
 1435TIP3   OH225719   4.651   2.415  13.364  0.3601  0.0131 -0.5755
 1435TIP3    H125720   4.575   2.375  13.405 -1.4130  0.2628 -3.3130
 1435TIP3    H225721   4.628   2.508  13.358  0.9720  0.1352 -1.1815
 1436TIP3   OH225722   6.285   1.871  12.266  0.3162 -0.5421 -0.4385
 1436TIP3    H125723   6.231   1.937  12.310  1.7246 -0.5631  1.4636
 1436TIP3    H225724   6.234   1.791  12.272  0.6419 -0.6558  1.6955
 1437TIP3   OH225725   3.950   0.575  11.609 -0.1275  0.2728  0.0300
 1437TIP3    H125726   4.020   0.545  11.666  0.7645  2.4940  0.1914
 1437TIP3    H225727   3.961   0.526  11.528  1.8039  0.7824 -0.0446
 1438TIP3   OH225728   3.598   4.416   2.559  0.3272  0.1040  0.0413
 1438TIP3    H125729   3.516   4.419   2.607 -0.5321 -2.5967 -1.0758
 1438TIP3    H225730   3.638   4.332   2.582  2.5279  1.0743  0.0847
 1439TIP3   OH225731   3.884   4.921  13.236 -0.5385  0.9346 -0.6514
 1439TIP3    H125732   3.841   5.005  13.218 -1.9715 -0.1844 -2.8261
 1439TIP3    H225733   3.814   4.857  13.235  0.8248 -0.6286 -1.6463
 1440TIP3   OH225734   2.809   3.676   0.091 -1.0582  0.2321 -0.0993
 1440TIP3    H125735   2.849   3.670   0.177  0.1756 -2.7828 -0.7203
 1440TIP3    H225736   2.715   3.684   0.108 -0.7529  0.7243  1.4785
 1441TIP3   OH225737   5.995   4.068   3.430  0.1847 -0.5494 -0.2394
 1441TIP3    H125738   6.082   4.033   3.450  0.6000  1.0752  0.9562
 1441TIP3    H225739   5.937   4.027   3.495  0.8224  1.5073  1.7506
 1442TIP3   OH225740   2.469   2.649   1.816  0.5024  0.0515  0.2211
 1442TIP3    H125741   2.391   2.659   1.870  0.3218 -1.3225  0.2412
 1442TIP3    H225742   2.436   2.649   1.726  0.7126  1.4308  0.1077
 1443TIP3   OH225743   4.313   5.016   4.805  0.0608 -0.4695 -0.7361
 1443TIP3    H125744   4.351   4.952   4.867  0.5361  0.2970 -0.2164
 1443TIP3    H225745   4.219   5.006   4.816  0.0850 -1.9932 -1.6140
 1444TIP3   OH225746   0.927   4.641   2.787 -0.8584 -0.2437 -0.4881
 1444TIP3    H125747   0.904   4.634   2.880 -1.6469 -2.3509 -0.7795
 1444TIP3    H225748   0.990   4.570   2.773  0.9457  1.4161 -1.1267
 1445TIP3   OH225749   6.460   6.719   5.617  0.9952 -0.3391 -0.0585
 1445TIP3    H125750   6.504   6.803   5.604  0.8261 -0.3510 -0.7982
 1445TIP3    H225751   6.443   6.714   5.711  0.8804  0.5239 -0.0261
 1446TIP3   OH225752   4.644   6.627  13.824  0.2603 -0.6347 -0.2287
 1446TIP3    H125753   4.662   6.670  13.908  0.7422  1.8152 -1.4926
 1446TIP3    H225754   4.712   6.560  13.817  1.7121  0.7086  0.3300
 1447TIP3   OH225755   5.981   5.831  15.996 -0.4002  0.2075  0.4684
 1447TIP3    H125756   5.927   5.773  16.050  1.4271 -0.2290  1.9249
 1447TIP3    H225757   5.979   5.792  15.909 -0.6905 -1.0035  1.0021
 1448TIP3   OH225758   4.331   3.022   1.427  0.1596  0.2544  0.2738
 1448TIP3    H125759   4.254   3.018   1.370 -1.1872 -1.5229  2.0778
 1448TIP3    H225760   4.402   2.988   1.372 -0.7854 -0.1307 -0.7644
 1449TIP3   OH225761   3.662   2.554   1.141 -0.1560 -0.5586 -0.5329
 1449TIP3    H125762   3.750   2.581   1.169 -0.7203 -0.2660  1.0967
 1449TIP3    H225763   3.677   2.484   1.078  1.2620  0.4032 -1.3060
 1450TIP3   OH225764   0.274   5.022   5.126  0.1119 -0.4466 -0.0673
 1450TIP3    H125765   0.351   4.965   5.134 -0.5165 -1.7622 -2.3519
 1450TIP3    H225766   0.259   5.055   5.214  2.4943 -1.1936  0.6977
 1451TIP3   OH225767   6.620   5.312   3.007  0.4353 -0.8019 -0.4193
 1451TIP3    H125768   6.605   5.396   3.050  0.9432 -0.7664 -0.2997
 1451TIP3    H225769   6.549   5.304   2.943  1.6323  0.7846 -2.0529
 1452TIP3   OH225770   3.726   4.326  16.983  0.0375  0.1379  0.5239
 1452TIP3    H125771   3.713   4.321  17.077 -0.4507 -1.2099  0.4104
 1452TIP3    H225772   3.646   4.368  16.950 -1.3346 -2.3730  0.4376
 1453TIP3   OH225773   2.323   0.377  15.879  0.8196  0.5931 -0.3980
 1453TIP3    H125774   2.401   0.426  15.854  2.5090 -1.1121  1.1926
 1453TIP3    H225775   2.339   0.352  15.970  0.0916 -2.8419 -1.0660
 1454TIP3   OH225776   5.019   4.342   3.142 -0.7611  0.3739  0.4789
 1454TIP3    H125777   4.935   4.299   3.156 -0.8576  0.8561  1.4442
 1454TIP3    H225778   5.083   4.270   3.144 -1.1232  0.0264 -0.0883
 1455TIP3   OH225779   2.670   1.920   1.444 -0.2621  0.6698 -0.2039
 1455TIP3    H125780   2.687   2.012   1.423  1.5565  0.2328 -0.8308
 1455TIP3    H225781   2.729   1.900   1.516  0.8106 -0.4898 -1.3433
 1456TIP3   OH225782   5.004   1.502   4.222  0.0369  0.3967  0.0003
 1456TIP3    H125783   5.042   1.587   4.200  0.8308  0.6710  2.2106
 1456TIP3    H225784   4.949   1.520   4.298 -3.3997 -0.2906 -2.0790
 1457TIP3   OH225785   1.897   3.578  12.429 -0.2488 -0.0013  0.2118
 1457TIP3    H125786   1.988   3.556  12.410 -0.5123  0.0919 -1.2807
 1457TIP3    H225787   1.856   3.495  12.452 -0.5052 -0.6305 -2.2801
 1458TIP3   OH225788   6.600   4.662  15.302  0.0241 -0.4441  0.2991
 1458TIP3    H125789   6.622   4.678  15.211 -1.0341  2.2743  0.4337
 1458TIP3    H225790   6.578   4.569  15.306  2.5886 -1.2340 -1.6254
 1459TIP3   OH225791   2.572   5.525  14.614 -0.3716  0.0093  0.0227
 1459TIP3    H125792   2.626   5.462  14.661 -0.5440 -1.2294 -1.3636
 1459TIP3    H225793   2.486   5.482  14.607 -0.5886  0.5314 -0.6592
 1460TIP3   OH225794   4.044   0.547  15.545  0.5591  0.6214  0.3014
 1460TIP3    H125795   4.054   0.453  15.558  0.3997  0.7533  1.5606
 1460TIP3    H225796   4.067   0.562  15.454 -0.0010 -0.7147 -0.0755
 1461TIP3   OH225797   0.107   6.289   4.262  0.5007  0.2362  0.0559
 1461TIP3    H125798   0.026   6.247   4.234  0.9302  0.4444 -1.6209
 1461TIP3    H225799   0.100   6.378   4.229  0.2235  1.1158  2.3350
 1462TIP3   OH225800   2.872   3.452  14.532  0.0691 -0.3160  0.0049
 1462TIP3    H125801   2.889   3.485  14.444  1.4538  0.2532  0.4555
 1462TIP3    H225802   2.782   3.419  14.528 -0.1591  0.3727 -1.4082
 1463TIP3   OH225803   0.169   3.918  12.678 -0.5034 -0.5415  0.5092
 1463TIP3    H125804   0.150   4.011  12.676 -1.5333 -0.6728  1.9824
 1463TIP3    H225805   0.252   3.909  12.631 -0.4370  1.0910  0.2590
 1464TIP3   OH225806   5.803   5.889   3.373 -0.4308 -0.7019 -0.1010
 1464TIP3    H125807   5.861   5.948   3.325  0.8245 -2.2125 -0.5276
 1464TIP3    H225808   5.807   5.920   3.463 -2.2488  1.7248 -0.7561
 1465TIP3   OH225809   6.410   0.361  11.950 -0.0264 -0.1645  0.4223
 1465TIP3    H125810   6.500   0.368  11.917  0.1401 -1.1540  0.6210
 1465TIP3    H225811   6.392   0.267  11.948 -1.4994  0.0993 -0.7992
 1466TIP3   OH225812   0.431   2.432   3.999 -0.1460  0.4921  0.1282
 1466TIP3    H125813   0.414   2.338   4.001  0.9532  0.2859  1.0796
 1466TIP3    H225814   0.345   2.473   4.007 -0.8136 -0.3907 -2.0026
 1467TIP3   OH225815   0.419   4.082   2.818  0.4063 -0.1375 -0.0787
 1467TIP3    H125816   0.503   4.035   2.813  1.1657  1.1131  0.3534
 1467TIP3    H225817   0.417   4.117   2.907  0.4797  1.7011 -0.7553
 1468TIP3   OH225818   3.067   2.108  16.456  0.1992 -0.2773  0.7194
 1468TIP3    H125819   3.108   2.037  16.506  1.6003  0.3871  0.5683
 1468TIP3    H225820   3.110   2.105  16.370 -0.0509  0.4601  0.5632
 1469TIP3   OH225821   5.237   6.426   2.257 -0.4383 -0.3205 -0.0005
 1469TIP3    H125822   5.198   6.493   2.313 -1.0491  1.1363 -2.0742
 1469TIP3    H225823   5.330   6.450   2.253 -0.3022 -0.6996  0.7197
 1470TIP3   OH225824   2.108   2.478   0.912  0.1779  0.0153  0.2305
 1470TIP3    H125825   2.023   2.520   0.900 -0.7016 -1.9460 -0.9259
 1470TIP3    H225826   2.140   2.463   0.823 -0.0142 -2.5171  0.5046
 1471TIP3   OH225827   0.872   2.472   5.972  0.3081  0.5263  0.4883
 1471TIP3    H125828   0.868   2.548   6.030  0.0107  1.3827 -0.6108
 1471TIP3    H225829   0.811   2.493   5.901 -0.6418 -1.2430  0.7170
 1472TIP3   OH225830   1.925   3.170   5.394  0.5905  0.1052  0.5461
 1472TIP3    H125831   1.907   3.126   5.477  0.5693  1.1204  1.0933
 1472TIP3    H225832   1.881   3.116   5.328 -0.2143 -0.1806  1.3022
 1473TIP3   OH225833   0.173   5.977  14.278  0.9263  0.2894  0.0367
 1473TIP3    H125834   0.182   5.882  14.290 -0.1160 -0.2106 -2.5005
 1473TIP3    H225835   0.095   5.987  14.224  1.8007  2.4960 -0.9453
 1474TIP3   OH225836   4.820   3.919  12.166 -0.5890 -0.1345  0.0685
 1474TIP3    H125837   4.850   4.010  12.162 -0.2046 -0.2697 -2.8788
 1474TIP3    H225838   4.821   3.890  12.074  0.9520 -3.6528  1.0174
 1475TIP3   OH225839   0.817   5.846   4.142 -0.5359  0.3692 -0.2846
 1475TIP3    H125840   0.829   5.916   4.078 -1.3539  1.2053  0.4483
 1475TIP3    H225841   0.729   5.859   4.176 -1.2364 -1.8255 -1.0711
 1476TIP3   OH225842   1.804   4.070  14.839 -0.3506 -0.0620 -0.1724
 1476TIP3    H125843   1.779   3.987  14.800  0.2143 -0.5991  0.5760
 1476TIP3    H225844   1.872   4.105  14.781 -0.2365 -0.3638 -0.2214
 1477TIP3   OH225845   3.884   4.818   5.071 -0.0872  0.1278  0.2156
 1477TIP3    H125846   3.803   4.860   5.100 -0.6540  0.3935 -1.6488
 1477TIP3    H225847   3.881   4.731   5.111  0.1580  1.0922  2.5298
 1478TIP3   OH225848   5.815   5.769   2.970 -0.3576 -0.0708  0.2854
 1478TIP3    H125849   5.770   5.746   2.888  0.2881 -0.0664 -0.0727
 1478TIP3    H225850   5.747   5.761   3.037 -1.5566  2.2965 -0.5472
 1479TIP3   OH225851   1.229   6.118  13.644 -0.5643  0.2639  0.2726
 1479TIP3    H125852   1.235   6.076  13.730 -0.1312  0.4037  0.3142
 1479TIP3    H225853   1.305   6.083  13.596 -0.9826 -0.0583 -0.1585
 1480TIP3   OH225854   3.727   6.030   5.916 -0.3015 -0.4955  0.3056
 1480TIP3    H125855   3.815   5.994   5.920 -0.2144 -0.1896  2.0685
 1480TIP3    H225856   3.738   6.119   5.885  0.1356 -0.1607  1.3801
 1481TIP3   OH225857   5.601   0.468   4.259  0.3981 -0.2241  0.2685
 1481TIP3    H125858   5.532   0.401   4.255  0.5391 -0.3351 -0.3024
 1481TIP3    H225859   5.554   0.549   4.280  0.3061 -0.6120  1.6942
 1482TIP3   OH225860   0.725   6.419  12.949 -0.0351 -0.0172  0.4791
 1482TIP3    H125861   0.631   6.403  12.951 -0.1333 -0.3677 -2.4465
 1482TIP3    H225862   0.764   6.333  12.966 -0.2945 -0.2545 -0.0866
 1483TIP3   OH225863   4.287   2.795   5.044  1.0415 -0.3102  0.7692
 1483TIP3    H125864   4.221   2.864   5.038  4.6715  3.4751 -0.1505
 1483TIP3    H225865   4.300   2.766   4.954  0.4756 -1.2511  0.9826
 1484TIP3   OH225866   4.915   2.360  11.931  0.2272 -0.5856 -0.3423
 1484TIP3    H125867   4.877   2.383  12.016  1.2999 -0.4372  0.1029
 1484TIP3    H225868   4.870   2.279  11.906 -1.4775  0.3793 -0.5558
 1485TIP3   OH225869   1.542   5.340  12.640 -0.5339  0.4010 -0.0336
 1485TIP3    H125870   1.497   5.270  12.593 -0.1821 -0.1285  0.4035
 1485TIP3    H225871   1.633   5.311  12.645 -0.1058  1.5368 -1.0491
 1486TIP3   OH225872   1.520   1.459   0.147 -0.3189  0.0534 -0.3160
 1486TIP3    H125873   1.553   1.515   0.076 -2.0714  2.4545  0.6189
 1486TIP3    H225874   1.568   1.490   0.225 -0.9468 -0.1053  0.1354
 1487TIP3   OH225875   0.177   3.416  11.711 -0.5287 -0.4480  0.3171
 1487TIP3    H125876   0.109   3.437  11.774 -0.9509 -1.8493  0.3663
 1487TIP3    H225877   0.132   3.366  11.643  0.2795 -0.6208 -0.1069
 1488TIP3   OH225878   0.590   3.261  11.713  0.5106  0.2598  0.0483
 1488TIP3    H125879   0.566   3.312  11.635  0.4595 -1.9744 -1.4975
 1488TIP3    H225880   0.686   3.263  11.713  0.5540  2.4748  1.5750
 1489TIP3   OH225881   1.286   2.088  11.428  0.3569  0.5597 -0.4610
 1489TIP3    H125882   1.299   2.047  11.342 -0.6525  1.9318 -1.3076
 1489TIP3    H225883   1.301   2.017  11.490 -1.0207 -1.0395 -1.8422
 1490TIP3   OH225884   2.034   1.591  15.100 -0.6152 -0.0810 -0.2781
 1490TIP3    H125885   1.958   1.591  15.158 -0.9582 -1.2714 -0.6888
 1490TIP3    H225886   2.097   1.533  15.143  0.5027  1.6596  0.5566
 1491TIP3   OH225887   0.686   5.284  12.893 -0.0493  0.0206  0.0485
 1491TIP3    H125888   0.718   5.245  12.811  0.2963  0.3499  0.0240
 1491TIP3    H225889   0.634   5.214  12.933  0.6321 -0.5032  0.0471
 1492TIP3   OH225890   2.942   2.039   4.112  0.1801 -0.0211  0.2368
 1492TIP3    H125891   3.009   1.971   4.105 -1.7949 -1.8953 -1.9856
 1492TIP3    H225892   2.859   1.991   4.116 -1.3905  2.1863 -2.3783
 1493TIP3   OH225893   3.932   1.904   4.108 -0.2203  0.1210 -0.8228
 1493TIP3    H125894   4.019   1.939   4.087  0.1252  0.0578  0.4195
 1493TIP3    H225895   3.950   1.817   4.145 -0.5009  1.4392  2.6770
 1494TIP3   OH225896   6.346   6.074   3.419  0.3301  0.0618 -0.3120
 1494TIP3    H125897   6.376   6.164   3.402  2.2454 -0.6958 -1.2670
 1494TIP3    H225898   6.412   6.019   3.378  0.2368 -1.8460  1.9013
 1495TIP3   OH225899   6.605   3.801  16.610  0.4280 -0.1624 -0.3058
 1495TIP3    H125900   6.673   3.856  16.648 -1.4343  1.1606  1.3111
 1495TIP3    H225901   6.619   3.714  16.648  0.7648  0.2762  0.5999
 1496TIP3   OH225902   5.926   4.849   6.362  0.1071 -0.0002 -0.1431
 1496TIP3    H125903   5.956   4.856   6.453  1.4765 -0.6311 -0.5208
 1496TIP3    H225904   5.961   4.765   6.332 -0.2798  0.2280 -1.2722
 1497TIP3   OH225905   6.054   5.497  13.423  0.4714 -0.0987  0.1872
 1497TIP3    H125906   6.150   5.493  13.432  0.4862  0.8285  0.4997
 1497TIP3    H225907   6.037   5.583  13.386 -0.2536 -0.2420  0.1837
 1498TIP3   OH225908   4.686   4.689  16.334 -0.5901  0.3293  0.1762
 1498TIP3    H125909   4.611   4.661  16.387 -0.4375 -0.6687 -0.1186
 1498TIP3    H225910   4.651   4.702  16.246 -0.2926 -0.8525 -0.1310
 1499TIP3   OH225911   2.546   0.032   5.889  0.0319  0.1596 -0.3119
 1499TIP3    H125912   2.451   0.043   5.892  0.0027  0.1128 -0.8955
 1499TIP3    H225913   2.580   0.121   5.883  0.1945  0.4284  2.8160
 1500TIP3   OH225914   6.468   0.524   5.546 -0.0467 -0.6698 -0.4497
 1500TIP3    H125915   6.384   0.558   5.576 -0.4427 -0.9359 -1.2331
 1500TIP3    H225916   6.533   0.583   5.585 -0.6693  0.4249 -1.0355
 1501TIP3   OH225917   3.645   3.624   2.053 -0.0254 -0.5656 -0.0526
 1501TIP3    H125918   3.695   3.672   2.119 -0.5606 -0.5744  0.3699
 1501TIP3    H225919   3.554   3.635   2.080 -0.3776  0.6231 -1.5667
 1502TIP3   OH225920   2.323   3.849   0.302 -0.3562 -0.0752  0.6170
 1502TIP3    H125921   2.394   3.796   0.267  0.6228  2.5206 -1.7766
 1502TIP3    H225922   2.252   3.840   0.238 -0.4143  0.8869  0.5197
 1503TIP3   OH225923   0.722   5.329  15.710  0.5435  0.2138  0.0268
 1503TIP3    H125924   0.730   5.351  15.802  0.2191  0.9013 -0.1048
 1503TIP3    H225925   0.740   5.235  15.706  3.2230  0.6367  0.4300
 1504TIP3   OH225926   0.756   2.645  15.173 -0.3727 -0.5433  0.4514
 1504TIP3    H125927   0.739   2.599  15.255  0.1634 -1.0875  0.2646
 1504TIP3    H225928   0.670   2.671  15.141 -0.5884 -0.3303  1.1830
 1505TIP3   OH225929   1.950   0.063  14.256 -0.4353  0.8278 -0.7014
 1505TIP3    H125930   1.883   0.122  14.221 -0.9795  0.3475 -0.4831
 1505TIP3    H225931   2.022   0.121  14.280 -0.4044  1.2644 -1.7626
 1506TIP3   OH225932   4.894   2.670  12.645 -0.4985  0.2163 -0.7708
 1506TIP3    H125933   4.898   2.643  12.737  0.2214 -1.0192 -1.1408
 1506TIP3    H225934   4.935   2.756  12.643  1.4544 -0.6452 -0.2411
 1507TIP3   OH225935   6.099   0.111  16.319 -0.5134  0.1712  0.3708
 1507TIP3    H125936   6.148   0.098  16.401 -1.0415 -1.3409  0.4725
 1507TIP3    H225937   6.149   0.063  16.253 -1.7316 -1.2495  0.4423
 1508TIP3   OH225938   1.402   2.593  12.473 -0.0220  0.6385 -0.5044
 1508TIP3    H125939   1.308   2.582  12.456 -0.0845  1.4236 -0.6888
 1508TIP3    H225940   1.429   2.508  12.509 -0.1101 -0.8075 -3.5000
 1509TIP3   OH225941   1.105   6.673   4.536 -0.8354  0.5025 -0.3728
 1509TIP3    H125942   1.058   6.692   4.617  0.7728 -0.4928  0.8614
 1509TIP3    H225943   1.194   6.705   4.552 -0.9003  1.9486 -2.4697
 1510TIP3   OH225944   3.803   5.466  14.681  0.2140 -0.3484 -0.3853
 1510TIP3    H125945   3.882   5.419  14.707  0.6890 -0.0230 -1.2039
 1510TIP3    H225946   3.835   5.548  14.644 -0.4331 -0.6270 -1.6362
 1511TIP3   OH225947   4.960   6.008  13.944 -0.1593  0.3528 -0.2537
 1511TIP3    H125948   4.904   5.998  14.021 -0.0398  0.1616 -0.1921
 1511TIP3    H225949   5.042   5.963  13.967  0.7531  2.2414  0.3919
 1512TIP3   OH225950   1.401   3.585   0.268  0.0802 -0.0980  0.1927
 1512TIP3    H125951   1.323   3.542   0.232 -0.4203 -0.7204  1.9294
 1512TIP3    H225952   1.387   3.584   0.363  1.8209  0.5570  0.4827
 1513TIP3   OH225953   0.713   4.177  15.954 -0.1818 -0.1240 -0.7219
 1513TIP3    H125954   0.798   4.172  15.910 -0.3263 -1.6281 -0.8842
 1513TIP3    H225955   0.658   4.228  15.895  0.4967  0.5700 -0.7768
 1514TIP3   OH225956   2.016   4.492  13.801  0.1723 -0.3517  0.2890
 1514TIP3    H125957   2.084   4.542  13.756 -1.5698  2.2858  0.3787
 1514TIP3    H225958   2.055   4.469  13.886  0.3143  3.0945  1.2920
 1515TIP3   OH225959   1.069   3.649  15.043 -0.0984 -0.1645 -0.1543
 1515TIP3    H125960   1.010   3.718  15.071  2.1629  2.6873 -1.8360
 1515TIP3    H225961   1.139   3.649  15.109  0.8742  0.5540 -1.1458
 1516TIP3   OH225962   1.907   4.195  16.893 -0.5276 -0.1594 -0.4661
 1516TIP3    H125963   1.828   4.246  16.872 -0.2423  0.1089 -0.8917
 1516TIP3    H225964   1.878   4.104  16.890 -1.2206 -0.0318  0.9830
 1517TIP3   OH225965   2.018   0.920  11.232  0.0609  0.0148 -0.1194
 1517TIP3    H125966   2.092   0.980  11.220 -0.0548  0.2811  0.4793
 1517TIP3    H225967   2.056   0.833  11.219  0.6861  0.0870  1.0267
 1518TIP3   OH225968   1.287   1.694  15.771 -0.0337 -0.2814 -0.6640
 1518TIP3    H125969   1.251   1.617  15.726  0.2041 -1.2429  0.7369
 1518TIP3    H225970   1.364   1.661  15.816  1.3522  1.2769 -1.7829
 1519TIP3   OH225971   1.006   6.454   2.135  0.4216 -0.3884  0.1910
 1519TIP3    H125972   0.962   6.386   2.084  0.6750  1.0840 -2.1202
 1519TIP3    H225973   1.093   6.462   2.096  0.0986  1.8330 -0.2537
 1520TIP3   OH225974   4.243   5.630   3.732 -0.8354 -0.1963  1.2125
 1520TIP3    H125975   4.334   5.644   3.707 -1.1640  1.1364  0.7191
 1520TIP3    H225976   4.213   5.561   3.673 -0.2847 -0.3081  1.0527
 1521TIP3   OH225977   0.667   0.806   1.598 -0.1545 -0.5575  0.6844
 1521TIP3    H125978   0.640   0.715   1.597  0.3603 -0.7312  1.6498
 1521TIP3    H225979   0.753   0.806   1.640  0.1290  0.2988  0.1445
 1522TIP3   OH225980   1.928   2.784  13.148  0.3130 -0.0372  0.4421
 1522TIP3    H125981   1.941   2.854  13.212  0.9897 -0.3290  0.6414
 1522TIP3    H225982   1.862   2.727  13.187 -1.7999  1.5353 -0.6272
 1523TIP3   OH225983   0.713   3.472   2.154  0.1000  0.1069  0.4701
 1523TIP3    H125984   0.745   3.396   2.106  0.0832  0.3777  0.0191
 1523TIP3    H225985   0.710   3.444   2.246  0.1602 -0.4065  0.3158
 1524TIP3   OH225986   3.918   6.527  17.207 -0.3271 -0.5108  0.0140
 1524TIP3    H125987   3.897   6.620  17.210  1.4377 -0.0993  0.8496
 1524TIP3    H225988   3.933   6.508  17.114 -0.1109  0.1779 -0.0920
 1525TIP3   OH225989   1.741   3.911   4.130  0.1254  0.1045 -0.5680
 1525TIP3    H125990   1.676   3.878   4.192  0.4237  1.2609  0.4134
 1525TIP3    H225991   1.806   3.954   4.186 -0.9778  3.6536 -1.7741
 1526TIP3   OH225992   2.355   1.791   4.789 -0.2797  0.0904 -0.1858
 1526TIP3    H125993   2.390   1.708   4.821  0.3649 -0.7945 -2.9588
 1526TIP3    H225994   2.411   1.814   4.715 -0.6283  2.8897  0.3166
 1527TIP3   OH225995   3.678   3.451   3.213 -0.1609  0.0761 -0.1426
 1527TIP3    H125996   3.676   3.359   3.240 -1.5525  0.4057  0.9983
 1527TIP3    H225997   3.611   3.457   3.145  0.4428  0.1131 -0.7448
 1528TIP3   OH225998   1.444   1.202  11.685 -0.4370  0.4462  0.4829
 1528TIP3    H125999   1.433   1.108  11.672 -0.7824  0.5185  0.2540
 1528TIP3    H226000   1.420   1.216  11.777 -0.8942  0.3878  0.3742
 1529TIP3   OH226001   2.208   4.545   6.465  0.0494 -0.4621 -0.6185
 1529TIP3    H126002   2.136   4.501   6.510  0.8348 -1.8904 -0.7046
 1529TIP3    H226003   2.165   4.607   6.406 -1.1097 -1.3229 -0.7076
 1530TIP3   OH226004   6.067   5.193   3.756 -0.3020  0.0033 -0.4733
 1530TIP3    H126005   5.993   5.178   3.696  0.1213 -0.1915 -0.9561
 1530TIP3    H226006   6.029   5.243   3.828 -1.4139 -1.9791  0.4067
 1531TIP3   OH226007   3.020   2.775  11.116  0.7157  0.1702  0.4658
 1531TIP3    H126008   3.048   2.697  11.164  1.2427 -0.0523 -0.1969
 1531TIP3    H226009   3.102   2.822  11.096  0.3184  2.0743  2.7798
 1532TIP3   OH226010   0.896   4.342   5.991  0.1057 -0.0759 -0.4281
 1532TIP3    H126011   0.951   4.347   6.069 -1.5005 -1.1207  0.8181
 1532TIP3    H226012   0.906   4.427   5.949  2.4890 -0.1558 -0.1572
 1533TIP3   OH226013   6.117   3.295   2.977  0.1034  0.2066 -0.3365
 1533TIP3    H126014   6.100   3.202   2.990  1.6628 -0.0619 -0.0666
 1533TIP3    H226015   6.195   3.299   2.922 -0.3736  1.3638 -0.9768
 1534TIP3   OH226016   1.895   3.677   5.574 -0.2929  0.0134  0.8233
 1534TIP3    H126017   1.914   3.587   5.550  0.0742 -0.1812  1.8055
 1534TIP3    H226018   1.821   3.671   5.635 -0.3866  0.3944  0.7535
 1535TIP3   OH226019   4.295   0.430  11.420  0.0860 -0.2515  0.1649
 1535TIP3    H126020   4.358   0.434  11.348 -0.0635 -1.6114 -0.0601
 1535TIP3    H226021   4.219   0.386  11.383  0.1005 -1.1962  1.2247
 1536TIP3   OH226022   5.170   2.942   0.807 -0.1378  0.3206  0.2169
 1536TIP3    H126023   5.210   2.870   0.856  1.4616  0.9325 -0.1380
 1536TIP3    H226024   5.185   3.020   0.861 -1.5010  0.4858  0.4032
 1537TIP3   OH226025   0.568   2.020   3.609 -0.1839  0.0878  0.1294
 1537TIP3    H126026   0.525   1.935   3.618  0.4235 -0.0611  2.1311
 1537TIP3    H226027   0.653   2.008   3.652 -0.1499  1.7643  0.5834
 1538TIP3   OH226028   0.377   4.542  14.605 -0.6013  0.2314  0.0229
 1538TIP3    H126029   0.332   4.495  14.676  0.6569 -1.1845 -0.0685
 1538TIP3    H226030   0.445   4.482  14.576 -0.9707  0.8598 -2.2953
 1539TIP3   OH226031   5.618   2.447  11.077  0.6175 -0.3171 -0.3441
 1539TIP3    H126032   5.657   2.447  10.990  1.2532 -0.0588 -0.0738
 1539TIP3    H226033   5.534   2.491  11.067 -0.2603 -2.0902 -1.2084
 1540TIP3   OH226034   3.059   2.966   1.647  0.4985  0.0420  0.5028
 1540TIP3    H126035   2.981   2.965   1.592 -1.6500  3.0199  3.0863
 1540TIP3    H226036   3.048   2.893   1.707  0.9578 -0.9582 -0.5974
 1541TIP3   OH226037   6.294   4.721   1.092  0.3180 -0.0880 -0.6282
 1541TIP3    H126038   6.302   4.733   0.997  0.4458 -0.6255 -0.6919
 1541TIP3    H226039   6.219   4.663   1.103 -0.3111  0.7600 -0.3341
 1542TIP3   OH226040   6.654   2.367   0.419 -0.5759  0.5960 -0.5349
 1542TIP3    H126041   6.675   2.389   0.510 -1.6365  0.4641 -0.2439
 1542TIP3    H226042   6.593   2.435   0.392 -3.3495 -1.4369  0.1464
 1543TIP3   OH226043   3.391   6.247   4.377  0.0411  0.1389 -0.0363
 1543TIP3    H126044   3.395   6.342   4.365 -0.7727 -0.1890 -4.3125
 1543TIP3    H226045   3.297   6.227   4.382 -0.1059 -0.6524 -3.5542
 1544TIP3   OH226046   2.014   5.992   0.439  0.2790  0.1734  0.9303
 1544TIP3    H126047   1.994   6.011   0.530  1.5166 -0.8225  1.4486
 1544TIP3    H226048   2.107   5.969   0.439  0.2599 -0.0321 -0.5489
 1545TIP3   OH226049   5.335   4.357   3.548 -0.1616  0.4777 -0.2315
 1545TIP3    H126050   5.411   4.322   3.595 -1.1321  0.3393  1.2602
 1545TIP3    H226051   5.362   4.445   3.521 -0.1346  1.2280  2.0359
 1546TIP3   OH226052   1.270   3.534   4.406 -0.4959 -0.7352 -0.1264
 1546TIP3    H126053   1.201   3.487   4.453  0.2429  0.6588  2.5883
 1546TIP3    H226054   1.224   3.606   4.363 -0.9803 -0.8703  0.1506
 1547TIP3   OH226055   4.764   3.372   6.391  0.9177 -0.0729  0.2507
 1547TIP3    H126056   4.775   3.372   6.486  0.2979  0.2791  0.3291
 1547TIP3    H226057   4.671   3.356   6.378  0.4387  2.6410 -0.2028
 1548TIP3   OH226058   3.473   3.094  12.094 -0.1792  0.5499 -0.0923
 1548TIP3    H126059   3.503   3.029  12.030  1.1504  0.8632  0.1650
 1548TIP3    H226060   3.434   3.042  12.164 -2.8118  0.2584 -1.6621
 1549TIP3   OH226061   3.715   6.352  12.468  0.1128  0.1815 -0.6411
 1549TIP3    H126062   3.742   6.267  12.501  0.9722 -0.1477 -2.0984
 1549TIP3    H226063   3.796   6.393  12.437  0.1337  2.5556  2.1496
 1550TIP3   OH226064   1.725   0.384  12.395 -0.9602 -0.3035  0.0408
 1550TIP3    H126065   1.821   0.380  12.400 -0.9167  0.8764  0.4913
 1550TIP3    H226066   1.695   0.321  12.459 -0.4410  1.0233  1.6622
 1551TIP3   OH226067   6.521   3.289  14.425 -0.4686  0.1457  0.4168
 1551TIP3    H126068   6.562   3.209  14.458  0.1718  0.4695  0.4043
 1551TIP3    H226069   6.428   3.277  14.446 -0.4896 -0.8968 -0.1743
 1552TIP3   OH226070   2.638   5.402  12.643 -0.0431  0.1435  0.2089
 1552TIP3    H126071   2.603   5.376  12.729 -1.5960  0.6057 -0.2638
 1552TIP3    H226072   2.671   5.320  12.606  0.7930 -0.0393  1.2897
 1553TIP3   OH226073   5.842   5.832   1.306 -0.7751 -0.0614 -0.0990
 1553TIP3    H126074   5.854   5.920   1.269  0.8459  0.2320  1.0220
 1553TIP3    H226075   5.905   5.777   1.259 -0.8433 -0.3338  0.1265
 1554TIP3   OH226076   3.769   1.443  14.201  0.0609  0.0271 -0.4283
 1554TIP3    H126077   3.793   1.535  14.209  1.0349 -0.2478 -0.0471
 1554TIP3    H226078   3.831   1.397  14.258  0.1086 -0.9396 -1.2346
 1555TIP3   OH226079   2.821   5.800  14.354  0.0664  0.5419 -0.5383
 1555TIP3    H126080   2.906   5.808  14.311  1.0254  0.0701  1.1551
 1555TIP3    H226081   2.763   5.858  14.305  1.1280  0.2041 -2.2747
 1556TIP3   OH226082   3.122   5.311   0.013 -0.1748 -0.3558  0.0737
 1556TIP3    H126083   3.195   5.372   0.004  0.0745 -0.7884 -0.9701
 1556TIP3    H226084   3.154   5.229  -0.023 -0.2320 -1.3916  2.2061
 1557TIP3   OH226085   0.335   3.677   6.258 -0.1972  0.3878 -0.4400
 1557TIP3    H126086   0.281   3.677   6.179 -0.6329  0.9704 -0.1465
 1557TIP3    H226087   0.354   3.769   6.274 -0.7007  0.3255  0.5399
 1558TIP3   OH226088   2.243   2.129  15.396 -0.3520  0.2408 -0.3254
 1558TIP3    H126089   2.298   2.170  15.463  1.8742 -1.4288 -1.0281
 1558TIP3    H226090   2.254   2.185  15.319  0.4299 -0.1098 -0.4759
 1559TIP3   OH226091   2.198   4.561  14.842 -0.0799 -0.5749  0.3622
 1559TIP3    H126092   2.220   4.652  14.861  0.2664 -0.6253  0.2194
 1559TIP3    H226093   2.254   4.537  14.768  0.3805 -1.1270  0.8730
 1560TIP3   OH226094   1.158   5.667   3.618  0.4646 -0.4726 -0.3823
 1560TIP3    H126095   1.197   5.599   3.564  1.3963 -0.0741 -0.2299
 1560TIP3    H226096   1.167   5.747   3.566  0.0247 -0.3409 -0.2608
 1561TIP3   OH226097   3.635   2.632   0.011 -0.5367  0.1662 -0.1092
 1561TIP3    H126098   3.547   2.621   0.046 -1.0837  0.6060 -1.2703
 1561TIP3    H226099   3.682   2.554   0.039 -0.4079  1.1944  2.9478
 1562TIP3   OH226100   2.763   5.944  13.105  0.1481 -0.1576 -0.3450
 1562TIP3    H126101   2.700   6.015  13.090 -0.9495 -0.4575  2.3494
 1562TIP3    H226102   2.759   5.892  13.025 -0.0409  2.0075 -1.8452
 1563TIP3   OH226103   5.960   4.723   1.701  0.1216 -0.0445  0.6417
 1563TIP3    H126104   5.979   4.774   1.780  0.0704 -1.7795  1.8458
 1563TIP3    H226105   5.884   4.670   1.725  0.0170 -0.5036 -0.6364
 1564TIP3   OH226106   3.618   2.005   2.970 -0.0010  0.0544  0.0752
 1564TIP3    H126107   3.558   2.024   2.899 -2.7188 -2.1298  1.6053
 1564TIP3    H226108   3.649   2.091   2.999 -2.4783  1.3049 -0.7340
 1565TIP3   OH226109   3.520   2.814   4.485 -0.7110  0.1814 -0.0300
 1565TIP3    H126110   3.483   2.894   4.521 -0.4790 -0.5383  1.9088
 1565TIP3    H226111   3.598   2.843   4.437 -1.9768  1.3452 -1.4790
 1566TIP3   OH226112   4.926   5.578   0.861 -0.1312  0.5668 -0.2204
 1566TIP3    H126113   4.970   5.531   0.932 -0.6677  1.4207  0.7010
 1566TIP3    H226114   4.945   5.527   0.782 -0.5512 -1.1034  0.7162
 1567TIP3   OH226115   6.456   6.767   2.314 -0.3177  0.0840 -0.3716
 1567TIP3    H126116   6.419   6.687   2.277 -0.4262 -0.4090  0.7721
 1567TIP3    H226117   6.534   6.737   2.362 -0.5336  0.6102  0.3185
 1568TIP3   OH226118   1.767   3.971   5.676 -0.0367  0.3316 -0.1980
 1568TIP3    H126119   1.746   3.990   5.767 -0.7861 -3.4972  0.6243
 1568TIP3    H226120   1.859   3.942   5.678 -0.3220 -0.6498 -0.4242
 1569TIP3   OH226121   2.946   1.710   0.818  0.0596 -0.3956 -0.2197
 1569TIP3    H126122   2.991   1.683   0.898 -0.9122 -0.8927  0.1748
 1569TIP3    H226123   3.004   1.683   0.747  1.0529  0.2735  0.3086
 1570TIP3   OH226124   5.758   4.142   5.491 -0.4158  0.1686 -0.0745
 1570TIP3    H126125   5.761   4.095   5.408  0.2971  0.3000 -0.1327
 1570TIP3    H226126   5.717   4.081   5.552 -0.1863 -0.2448 -0.3280
 1571TIP3   OH226127   3.649   4.117   0.072 -0.0163  0.4092 -0.1727
 1571TIP3    H126128   3.696   4.192   0.037  0.4809 -0.8035 -2.3087
 1571TIP3    H226129   3.646   4.132   0.166 -1.3897  3.8750 -0.6226
 1572TIP3   OH226130   2.091   1.827   5.443 -0.5164  0.3895  0.1247
 1572TIP3    H126131   2.143   1.881   5.501 -0.4105  0.5121 -0.0817
 1572TIP3    H226132   2.016   1.800   5.496 -0.7268  0.9908  0.1405
 1573TIP3   OH226133   5.689   3.996  15.855 -0.1567 -0.6211 -0.1400
 1573TIP3    H126134   5.676   3.902  15.841 -3.0550  0.0992 -3.3586
 1573TIP3    H226135   5.622   4.020  15.919 -0.6806 -0.4649 -0.7376
 1574TIP3   OH226136   6.188   2.163   5.740  0.5454  0.0890 -0.0112
 1574TIP3    H126137   6.093   2.166   5.734  0.5097 -0.0465  0.3964
 1574TIP3    H226138   6.210   2.070   5.730  0.4847 -0.1394  1.6448
 1575TIP3   OH226139   4.865   0.286  16.470  0.2485  0.0240 -0.1463
 1575TIP3    H126140   4.890   0.220  16.405 -1.6651  1.4417 -2.5061
 1575TIP3    H226141   4.928   0.357  16.458  0.8332 -0.3433  0.6797
 1576TIP3   OH226142   1.679   2.921   4.832  0.2875  0.0031  0.3705
 1576TIP3    H126143   1.671   2.939   4.738 -0.0216  1.1627  0.6048
 1576TIP3    H226144   1.763   2.875   4.840  0.8888  0.9381 -0.3479
 1577TIP3   OH226145   2.250   4.124  11.964  0.0061 -0.4488 -0.4804
 1577TIP3    H126146   2.212   4.142  11.879  1.0235 -0.4564 -0.9573
 1577TIP3    H226147   2.291   4.038  11.954 -1.0213 -1.0641  0.4340
 1578TIP3   OH226148   6.389   5.815  15.328 -0.8502 -0.0348 -0.0296
 1578TIP3    H126149   6.379   5.812  15.233  2.4447 -1.2239 -0.4986
 1578TIP3    H226150   6.448   5.888  15.344  0.7524 -1.4085  0.7312
 1579TIP3   OH226151   1.894   6.223   0.374  0.4522 -0.5982  0.1840
 1579TIP3    H126152   1.827   6.209   0.306 -1.2673  1.4243  1.3436
 1579TIP3    H226153   1.917   6.135   0.403 -2.4892 -1.4241  0.3811
 1580TIP3   OH226154   2.374   0.663  16.778  0.1391  0.0534  0.0892
 1580TIP3    H126155   2.391   0.625  16.692 -0.5905 -0.5481  0.2018
 1580TIP3    H226156   2.404   0.754  16.771 -0.2503  0.1099 -0.9044
 1581TIP3   OH226157   3.053   2.194  12.279 -0.6967  0.2899  0.4079
 1581TIP3    H126158   3.004   2.265  12.238 -0.5784  1.3241  1.9872
 1581TIP3    H226159   2.993   2.119  12.277 -0.7011  0.2810 -1.5629
 1582TIP3   OH226160   0.654   4.191  13.602 -0.1756 -0.0918  0.5165
 1582TIP3    H126161   0.684   4.123  13.662  1.8357 -0.9875 -1.3760
 1582TIP3    H226162   0.723   4.198  13.536 -1.8640  1.4430 -1.2360
 1583TIP3   OH226163   2.025   1.169  11.385  0.4811 -0.2028  0.1344
 1583TIP3    H126164   2.043   1.148  11.477 -0.1143  1.0119  0.5487
 1583TIP3    H226165   1.951   1.112  11.362 -0.5601  0.7602  0.9802
 1584TIP3   OH226166   5.986   3.588  15.703  0.1981 -0.8313  0.2697
 1584TIP3    H126167   5.988   3.683  15.714  1.2653 -0.8043 -0.0905
 1584TIP3    H226168   5.912   3.573  15.644  0.2116 -0.1951  0.0787
 1585TIP3   OH226169   6.626   4.847   5.336  0.2392 -0.2988  0.2865
 1585TIP3    H126170   6.558   4.820   5.399  2.3510 -0.0243  2.8636
 1585TIP3    H226171   6.604   4.937   5.315  0.1434  0.0271  1.6672
 1586TIP3   OH226172   0.332   4.242  12.162  0.0344  0.6010  0.0156
 1586TIP3    H126173   0.387   4.210  12.233 -0.2640 -0.0827 -0.0586
 1586TIP3    H226174   0.328   4.170  12.099  0.1829  1.1497 -0.6307
 1587TIP3   OH226175   2.833   0.956  16.414  0.0680 -0.9789 -0.2301
 1587TIP3    H126176   2.770   0.988  16.479 -0.4750 -0.5163 -0.9692
 1587TIP3    H226177   2.780   0.939  16.337  0.7884 -1.0242 -0.7186
 1588TIP3   OH226178   6.437   0.465  15.389  0.2632 -0.2592 -0.4179
 1588TIP3    H126179   6.422   0.452  15.296  0.3423 -0.3676 -0.4160
 1588TIP3    H226180   6.533   0.470  15.398  0.4608 -3.2765  0.0488
 1589TIP3   OH226181   2.576   1.278  12.931  0.0697  0.5307  0.3502
 1589TIP3    H126182   2.515   1.216  12.892  0.4675 -0.3944  1.1433
 1589TIP3    H226183   2.656   1.227  12.946  1.2368  1.8270 -1.1212
 1590TIP3   OH226184   5.575   1.698   2.856  0.0785 -0.2060 -0.1847
 1590TIP3    H126185   5.518   1.772   2.877  0.7065  0.6488 -1.3499
 1590TIP3    H226186   5.624   1.681   2.937  1.0296  1.6845 -0.3079
 1591TIP3   OH226187   5.811   5.897  13.152 -0.4823  0.3989  0.4338
 1591TIP3    H126188   5.814   5.850  13.236  0.4651  0.2907  0.3522
 1591TIP3    H226189   5.903   5.913  13.130 -0.7524  1.8852  0.2274
 1592TIP3   OH226190   6.664   6.343   3.401  0.0879  0.0303  0.4433
 1592TIP3    H126191   6.706   6.352   3.487 -1.0906 -1.3443  1.2116
 1592TIP3    H226192   6.730   6.304   3.345  0.2512 -0.9859  1.3057
 1593TIP3   OH226193   1.324   6.507  17.078  0.6630 -0.5789  0.1675
 1593TIP3    H126194   1.379   6.561  17.135  1.5653 -0.5678 -0.6855
 1593TIP3    H226195   1.385   6.445  17.039  0.4723  0.7209 -2.3574
 1594TIP3   OH226196   4.051   2.836  11.891  0.0722 -0.0268  0.3389
 1594TIP3    H126197   4.024   2.924  11.864 -0.2787 -0.1920  0.1423
 1594TIP3    H226198   4.086   2.797  11.811  0.2900 -0.0428  0.4426
 1595TIP3   OH226199   3.981   2.704  15.377  0.5809 -0.2664  0.3241
 1595TIP3    H126200   3.933   2.748  15.306 -1.4593 -0.8847  1.2405
 1595TIP3    H226201   3.953   2.613  15.371  0.7677 -0.4165  1.6099
 1596TIP3   OH226202   3.783   3.340   1.350 -0.0976  0.5709 -0.2019
 1596TIP3    H126203   3.758   3.431   1.366  0.0003  0.7302 -0.9288
 1596TIP3    H226204   3.721   3.308   1.285 -1.0946 -0.3693  1.1513
 1597TIP3   OH226205   3.747   1.649   3.289  0.2208 -0.1946 -0.3744
 1597TIP3    H126206   3.784   1.566   3.258 -0.6729 -0.1616 -1.5999
 1597TIP3    H226207   3.734   1.701   3.210 -0.3859  0.6372  0.2502
 1598TIP3   OH226208   5.196   0.938  12.238  0.2499  0.1282  0.0180
 1598TIP3    H126209   5.179   0.959  12.330 -0.5046 -2.0416  0.4159
 1598TIP3    H226210   5.274   0.991  12.216  2.6356 -1.8440  2.9639
 1599TIP3   OH226211   2.457   5.485  12.297 -0.1456 -0.4453 -0.5524
 1599TIP3    H126212   2.441   5.527  12.212  0.2858  2.7970  0.8501
 1599TIP3    H226213   2.455   5.556  12.360  0.4283 -2.6289  2.1102
 1600TIP3   OH226214   0.300   3.088  12.977 -0.4485 -0.0376  0.5162
 1600TIP3    H126215   0.368   3.129  12.924 -0.4432 -2.2004 -1.3193
 1600TIP3    H226216   0.338   3.082  13.065  0.0348  2.5172  0.5533
 1601TIP3   OH226217   2.886   0.724   0.622  0.2231 -0.0244 -0.4641
 1601TIP3    H126218   2.922   0.765   0.701 -0.4151 -1.2313  0.4953
 1601TIP3    H226219   2.960   0.675   0.585  0.1003 -0.8476  0.3604
 1602TIP3   OH226220   4.524   5.232  14.583  0.2479 -0.2556 -0.3283
 1602TIP3    H126221   4.560   5.307  14.629 -1.1198  0.9876 -1.2240
 1602TIP3    H226222   4.597   5.201  14.528 -0.0254  2.5576 -2.5430
 1603TIP3   OH226223   3.491   1.723   1.292  0.4827  0.6030  0.6776
 1603TIP3    H126224   3.418   1.687   1.343 -1.0865  0.6835 -1.3818
 1603TIP3    H226225   3.530   1.647   1.249  0.7531  0.7195  0.7166
 1604TIP3   OH226226   5.836   0.332  12.823 -0.3860  0.4345 -0.4122
 1604TIP3    H126227   5.761   0.390  12.808 -1.1301 -0.2149  0.6448
 1604TIP3    H226228   5.911   0.391  12.827 -1.4187  1.7901  3.4273
 1605TIP3   OH226229   2.944   5.769   0.703  0.2306  0.9683 -0.0245
 1605TIP3    H126230   3.033   5.801   0.719  0.2941  0.8693 -0.1695
 1605TIP3    H226231   2.887   5.844   0.723  0.3878  1.2359 -0.5343
 1606TIP3   OH226232   6.117   3.550   5.576  0.2188 -0.0493 -0.2302
 1606TIP3    H126233   6.045   3.495   5.607  0.1863  0.4810  0.6734
 1606TIP3    H226234   6.168   3.493   5.519  0.7599 -1.3585  1.4834
 1607TIP3   OH226235   0.258   5.932   2.476  0.1177 -0.2772  0.2374
 1607TIP3    H126236   0.171   5.892   2.477 -0.5298  0.9059 -2.0716
 1607TIP3    H226237   0.293   5.909   2.390  0.9131  1.6114  0.0281
 1608TIP3   OH226238   5.080   1.797   0.230  0.3734 -0.2299 -0.3502
 1608TIP3    H126239   5.154   1.758   0.183 -0.0028 -0.4962 -0.7204
 1608TIP3    H226240   5.002   1.759   0.190 -0.0377  1.5253 -1.3251
 1609TIP3   OH226241   2.601   0.761   2.580  1.0730  0.1338 -0.5559
 1609TIP3    H126242   2.534   0.712   2.628  1.6977 -0.6339 -0.4401
 1609TIP3    H226243   2.682   0.714   2.599  1.5128  0.5391 -1.3836
 1610TIP3   OH226244   2.192   0.147   1.267  0.5195  0.0179  0.0806
 1610TIP3    H126245   2.245   0.160   1.346  0.9818 -0.1313 -0.1994
 1610TIP3    H226246   2.102   0.149   1.297  0.6432  1.4553  0.4120
 1611TIP3   OH226247   6.392   0.276   4.796 -0.0994  0.3286  0.2624
 1611TIP3    H126248   6.390   0.324   4.878  2.9668  0.0418  0.6528
 1611TIP3    H226249   6.421   0.340   4.731 -1.6368  0.3375 -0.4498
 1612TIP3   OH226250   4.147   0.438   1.855 -0.1745 -0.5564 -0.5671
 1612TIP3    H126251   4.058   0.469   1.835 -0.2328 -0.6309 -0.4252
 1612TIP3    H226252   4.197   0.519   1.869 -0.1616 -0.5084 -0.8878
 1613TIP3   OH226253   6.631   5.407   3.612 -0.5064  0.3994 -0.2861
 1613TIP3    H126254   6.682   5.476   3.654 -0.4503  0.2273 -0.0663
 1613TIP3    H226255   6.664   5.403   3.523 -1.0069  1.1490 -0.5155
 1614TIP3   OH226256   4.048   5.158   5.127  0.5019  0.2176  0.0473
 1614TIP3    H126257   4.083   5.076   5.163 -0.0868  0.2985  0.8325
 1614TIP3    H226258   4.121   5.197   5.079  0.0724 -2.1652 -2.8789
 1615TIP3   OH226259   0.282   0.127   1.664 -0.2679  0.3931 -0.4691
 1615TIP3    H126260   0.353   0.149   1.603  0.7332 -1.0196  0.1404
 1615TIP3    H226261   0.280   0.031   1.665 -2.5148  0.3814 -0.8069
 1616TIP3   OH226262   3.791   5.567   5.896  0.3506  0.7659  0.1967
 1616TIP3    H126263   3.841   5.486   5.891 -0.0740  0.3744  1.6628
 1616TIP3    H226264   3.720   5.548   5.957  0.5601  2.3923  1.0156
 1617TIP3   OH226265   2.303   0.911  14.148  0.0443 -0.0462  0.6018
 1617TIP3    H126266   2.286   0.819  14.128 -0.4207  0.5054 -1.8109
 1617TIP3    H226267   2.397   0.914  14.167  0.0445 -1.0113  0.8481
 1618TIP3   OH226268   2.488   2.922  11.176 -0.6605  0.3610 -0.2945
 1618TIP3    H126269   2.520   2.981  11.109  1.1380  2.0411  1.8903
 1618TIP3    H226270   2.563   2.867  11.197 -1.1142  0.0275  0.5064
 1619TIP3   OH226271   3.479   0.217  10.988  0.2361  0.6677 -0.5480
 1619TIP3    H126272   3.436   0.260  10.914  1.0181  0.2016 -1.2988
 1619TIP3    H226273   3.536   0.285  11.025 -2.3308  1.8420  1.5546
 1620TIP3   OH226274   3.446   3.016   4.150  0.2670  0.7328 -0.1470
 1620TIP3    H126275   3.502   2.952   4.108  0.2872  1.0082 -0.5376
 1620TIP3    H226276   3.494   3.098   4.144  0.7299  0.6019  1.3012
 1621TIP3   OH226277   4.337   1.628  12.802  0.1392 -0.2674  0.5247
 1621TIP3    H126278   4.353   1.590  12.716  0.0436 -1.3574  0.9728
 1621TIP3    H226279   4.361   1.559  12.864 -0.7349  0.1345  1.3479
 1622TIP3   OH226280   5.530   4.798   0.013  0.2767  0.2353  0.1203
 1622TIP3    H126281   5.552   4.865  -0.052 -0.5368 -0.3740 -0.8044
 1622TIP3    H226282   5.595   4.729   0.000  0.3078  0.2570  0.1645
 1623TIP3   OH226283   6.252   6.743   2.928  0.6863 -0.2699  0.4019
 1623TIP3    H126284   6.248   6.812   2.995  0.9974  1.1085 -0.9394
 1623TIP3    H226285   6.160   6.721   2.912  0.6360 -1.2471  1.8734
 1624TIP3   OH226286   5.517   3.207  17.185 -0.1131  0.0087  0.3276
 1624TIP3    H126287   5.526   3.193  17.279  1.1321  1.7892  0.5168
 1624TIP3    H226288   5.590   3.264  17.162  1.4668 -2.7782 -2.3242
 1625TIP3   OH226289   3.881   5.173  13.159  0.0651  0.0956  0.0975
 1625TIP3    H126290   3.908   5.153  13.069  2.7933  2.4478  0.2758
 1625TIP3    H226291   3.812   5.238  13.149  0.0704  0.0425 -0.2957
 1626TIP3   OH226292   0.921   0.742   4.098 -0.0368 -0.4915  0.0866
 1626TIP3    H126293   0.957   0.825   4.129 -0.4660 -0.9590  1.9286
 1626TIP3    H226294   0.981   0.676   4.133 -0.0712 -1.0159 -0.8125
 1627TIP3   OH226295   0.114   3.644  12.727 -0.0012  0.1932  0.1127
 1627TIP3    H126296   0.146   3.721  12.680 -1.8053 -0.5993 -2.7059
 1627TIP3    H226297   0.023   3.634  12.697 -0.1953 -2.3363  1.2809
 1628TIP3   OH226298   2.510   1.769   1.919 -0.0680  0.3149 -0.7064
 1628TIP3    H126299   2.496   1.682   1.883 -0.6164  0.8096 -1.7567
 1628TIP3    H226300   2.454   1.773   1.996  0.9793 -0.7104  0.1305
 1629TIP3   OH226301   3.435   5.326  12.898 -0.5426 -0.0256  0.2889
 1629TIP3    H126302   3.509   5.294  12.847 -0.4402  1.3740 -0.4898
 1629TIP3    H226303   3.361   5.272  12.869 -0.3274  0.2412 -0.8179
 1630TIP3   OH226304   5.108   3.018   0.555  0.2554 -0.3819  0.4738
 1630TIP3    H126305   5.102   3.016   0.651 -0.3352 -0.9476  0.4388
 1630TIP3    H226306   5.169   2.947   0.534  1.0850  0.3167  0.4615
 1631TIP3   OH226307   2.734   6.567   0.887 -0.2525 -0.1730 -0.3213
 1631TIP3    H126308   2.772   6.479   0.898 -1.6572 -0.9492 -1.3273
 1631TIP3    H226309   2.640   6.552   0.887 -0.6049  1.6274  1.5639
 1632TIP3   OH226310   5.492   3.977   3.023 -0.0388 -0.4443  0.1602
 1632TIP3    H126311   5.504   3.889   2.989 -1.3071 -0.8949  0.8167
 1632TIP3    H226312   5.419   4.013   2.973  0.3278  0.1564  0.0483
 1633TIP3   OH226313   2.352   0.563   5.639 -0.2934 -0.1887 -0.1993
 1633TIP3    H126314   2.416   0.628   5.668  0.0159 -0.9152  0.7863
 1633TIP3    H226315   2.397   0.515   5.569 -0.4020  0.4254 -0.7002
 1634TIP3   OH226316   4.361   5.880   4.032 -0.3306 -0.3246 -0.2721
 1634TIP3    H126317   4.352   5.879   4.128 -1.8617  0.1809 -0.3855
 1634TIP3    H226318   4.306   5.808   4.002  1.0924 -1.2679 -0.7449
 1635TIP3   OH226319   0.751   6.607   6.829  0.8556  0.7518  0.7617
 1635TIP3    H126320   0.800   6.593   6.910 -1.8854 -0.1923  2.3801
 1635TIP3    H226321   0.766   6.527   6.778 -0.6234 -0.5214  2.2098
 1636TIP3   OH226322   3.090   2.439   5.364 -0.0021 -0.0670  0.7032
 1636TIP3    H126323   3.059   2.349   5.379 -0.6467 -0.2217 -1.2133
 1636TIP3    H226324   3.019   2.495   5.394  0.8464 -0.1117  2.9303
 1637TIP3   OH226325   0.845   3.297   4.114  0.1564  0.2051  0.1882
 1637TIP3    H126326   0.886   3.227   4.064  0.5280  0.3170  0.3364
 1637TIP3    H226327   0.878   3.287   4.203  0.9496  1.1299  0.0102
 1638TIP3   OH226328   1.847   0.480  11.186  0.7825 -0.2102 -0.1380
 1638TIP3    H126329   1.842   0.534  11.107 -1.0394  0.1827  0.2008
 1638TIP3    H226330   1.938   0.450  11.189  1.1678  0.6819 -1.7646
 1639TIP3   OH226331   1.962   1.468   2.482 -0.3696  0.4154 -0.2846
 1639TIP3    H126332   1.935   1.537   2.543 -1.9473  0.8266 -1.3792
 1639TIP3    H226333   2.049   1.494   2.453  0.0678  0.6320  1.1713
 1640TIP3   OH226334   0.555   2.078   5.137  1.0516  0.1935 -0.0798
 1640TIP3    H126335   0.524   2.142   5.201  1.0187  0.8941 -0.7713
 1640TIP3    H226336   0.608   2.016   5.187  2.1387  1.4839  0.4153
 1641TIP3   OH226337   6.406   1.649   3.097  0.2680 -0.2972  0.6447
 1641TIP3    H126338   6.381   1.653   3.190  1.0963 -1.1039  0.9106
 1641TIP3    H226339   6.484   1.593   3.095 -0.9956 -2.1216 -0.7978
 1642TIP3   OH226340   4.284   3.213  12.425  0.0622  0.6318 -0.5508
 1642TIP3    H126341   4.270   3.121  12.448 -2.4498  0.6204 -1.7132
 1642TIP3    H226342   4.330   3.250  12.500 -2.5125 -0.6878  1.8593
 1643TIP3   OH226343   3.134   5.688   1.819 -0.3471 -0.0018 -0.4881
 1643TIP3    H126344   3.184   5.647   1.889 -0.6708  0.7229  0.1934
 1643TIP3    H226345   3.184   5.672   1.739  0.2700 -0.4335 -0.0138
 1644TIP3   OH226346   2.760   1.960  13.757  0.0239  0.2831  0.5492
 1644TIP3    H126347   2.672   1.992  13.738 -0.2243 -1.1423 -0.9128
 1644TIP3    H226348   2.817   2.008  13.698  0.4480  2.0267  2.2639
 1645TIP3   OH226349   5.095   0.137   2.255 -0.2665  0.4719 -0.0544
 1645TIP3    H126350   5.186   0.112   2.238 -1.0439 -1.6691 -1.5425
 1645TIP3    H226351   5.075   0.100   2.341  0.1905  0.7289  0.1617
 1646TIP3   OH226352   5.250   4.107   0.540  0.5958  0.3127 -0.8555
 1646TIP3    H126353   5.307   4.110   0.464  0.9851  0.6650 -0.5579
 1646TIP3    H226354   5.274   4.185   0.591  0.6297 -0.1247 -0.1762
 1647TIP3   OH226355   2.414   6.521   4.021 -0.5699 -0.5047  0.1236
 1647TIP3    H126356   2.488   6.580   4.035  0.9804 -1.4926 -3.1009
 1647TIP3    H226357   2.358   6.535   4.098  2.1496  1.4250  1.9375
 1648TIP3   OH226358   1.412   0.913  13.364  0.3342 -0.0775 -0.7434
 1648TIP3    H126359   1.352   0.983  13.389 -0.8955 -1.0750 -0.7979
 1648TIP3    H226360   1.381   0.885  13.277  0.0889 -1.4318 -0.2377
 1649TIP3   OH226361   1.999   3.298   5.842 -0.2683 -0.5511  0.0180
 1649TIP3    H126362   1.938   3.368   5.866  0.9980  0.9918 -0.9543
 1649TIP3    H226363   2.085   3.330   5.872  0.9864  0.2747 -3.7850
 1650TIP3   OH226364   3.877   0.920   1.308 -0.3769 -0.6153 -0.5001
 1650TIP3    H126365   3.904   0.986   1.372 -0.5796 -1.7292  0.7838
 1650TIP3    H226366   3.832   0.853   1.361  0.1214 -1.9406 -1.7051
 1651TIP3   OH226367   5.441   4.705   2.289  0.3276  0.0899  0.0560
 1651TIP3    H126368   5.387   4.640   2.335  1.6040 -1.2212 -0.2234
 1651TIP3    H226369   5.456   4.667   2.203  4.2738 -1.2077  1.1173
 1652TIP3   OH226370   3.745   2.082   4.059  0.2773 -0.5398 -0.2131
 1652TIP3    H126371   3.804   2.012   4.087 -1.3975 -1.0812  2.2649
 1652TIP3    H226372   3.750   2.147   4.129 -0.1747  0.6083 -1.2089
 1653TIP3   OH226373   2.348   4.262   3.596 -0.4441 -0.4034 -0.1983
 1653TIP3    H126374   2.330   4.203   3.670 -1.7073 -2.2492 -1.8929
 1653TIP3    H226375   2.321   4.213   3.519 -1.3703  2.3468 -1.7490
 1654TIP3   OH226376   0.934   3.755   5.690  0.2914 -0.0277  0.4391
 1654TIP3    H126377   1.020   3.773   5.728 -0.4496  1.1724  1.6272
 1654TIP3    H226378   0.938   3.796   5.603  1.3959 -1.2835 -0.1448
 1655TIP3   OH226379   5.612   1.039  15.042  0.1155  0.4421  0.5820
 1655TIP3    H126380   5.654   1.118  15.077  0.3154  0.6524 -0.1230
 1655TIP3    H226381   5.561   1.070  14.968  2.2003 -0.4089 -1.3263
 1656TIP3   OH226382   6.490   5.453  14.063  0.2835  0.7592 -0.3937
 1656TIP3    H126383   6.540   5.452  13.981  0.3069 -0.4865 -0.3805
 1656TIP3    H226384   6.468   5.361  14.079 -1.1232  1.1641  0.1441
 1657TIP3   OH226385   5.020   0.389   2.354 -0.5839  0.1916  0.1347
 1657TIP3    H126386   5.106   0.390   2.397 -0.9982  1.4663  0.9899
 1657TIP3    H226387   5.016   0.303   2.312  1.7384  0.6675 -1.2345
 1658TIP3   OH226388   4.096   5.521  15.528  0.2478 -0.3033 -0.5274
 1658TIP3    H126389   4.044   5.440  15.527 -0.3520  0.0794 -1.3676
 1658TIP3    H226390   4.177   5.498  15.483  0.9362 -0.9659  0.9896
 1659TIP3   OH226391   3.340   2.430  15.358  0.1375  0.5868  0.1626
 1659TIP3    H126392   3.267   2.463  15.304  1.2030  2.2962 -0.3338
 1659TIP3    H226393   3.347   2.338  15.335 -0.8168  0.7784 -1.0316
 1660TIP3   OH226394   5.642   6.512  11.776 -0.0268 -0.5960  0.1942
 1660TIP3    H126395   5.642   6.441  11.712 -0.9281  0.1355 -0.6594
 1660TIP3    H226396   5.550   6.537  11.784  0.1948 -0.0178  1.0319
 1661TIP3   OH226397   3.032   5.145  15.666  0.4908 -0.5932  0.1903
 1661TIP3    H126398   3.019   5.231  15.624  0.7279 -0.7485 -0.2094
 1661TIP3    H226399   2.992   5.154  15.752 -3.4065 -1.4107 -1.3296
 1662TIP3   OH226400   6.162   0.599   6.158  0.4239  0.1694  0.3460
 1662TIP3    H126401   6.239   0.640   6.118  2.4292 -4.1477 -0.8613
 1662TIP3    H226402   6.094   0.604   6.090  0.4225  1.7825  0.4343
 1663TIP3   OH226403   3.777   0.348  17.242  0.2607  0.0464 -0.4294
 1663TIP3    H126404   3.861   0.332  17.285 -0.1492  1.8896  1.2252
 1663TIP3    H226405   3.716   0.288  17.285  0.0415  1.2541  1.0623
 1664TIP3   OH226406   3.163   5.041  11.842  0.0143 -0.1129  0.3104
 1664TIP3    H126407   3.104   5.116  11.831 -0.4933 -0.7087 -1.3281
 1664TIP3    H226408   3.209   5.059  11.924 -0.4159  1.7659  0.1966
 1665TIP3   OH226409   5.954   2.028   5.941 -0.2795  0.0457 -0.0758
 1665TIP3    H126410   5.977   1.956   5.882  1.8664  0.5576  0.0756
 1665TIP3    H226411   5.933   2.101   5.883  2.0142  0.6069 -0.3037
 1666TIP3   OH226412   5.629   3.604   2.699  0.3531 -0.5539 -0.0048
 1666TIP3    H126413   5.618   3.653   2.617  0.2638  2.2089  1.5346
 1666TIP3    H226414   5.555   3.543   2.700 -2.0483  2.0939 -0.2606
 1667TIP3   OH226415   2.809   3.972  15.168 -0.2528 -0.6836  0.0204
 1667TIP3    H126416   2.753   3.995  15.242 -0.8399  0.9934 -0.9101
 1667TIP3    H226417   2.768   3.894  15.130  0.5570 -2.1244  1.9448
 1668TIP3   OH226418   4.185   6.274  11.214  0.6864  0.1171  0.2422
 1668TIP3    H126419   4.154   6.298  11.126  0.9927  0.5717  0.2570
 1668TIP3    H226420   4.247   6.343  11.237  1.5655 -0.6721  0.2970
 1669TIP3   OH226421   2.724   5.940   5.785  0.0320  0.0921 -0.0451
 1669TIP3    H126422   2.761   5.874   5.845 -0.9678  0.1491  0.6524
 1669TIP3    H226423   2.629   5.934   5.798 -0.1525  0.7055 -1.0091
 1670TIP3   OH226424   6.269   0.021  11.536  0.6357  0.3071 -0.0080
 1670TIP3    H126425   6.329   0.073  11.589  2.1153 -1.4479  0.1381
 1670TIP3    H226426   6.312   0.015  11.450  0.1434 -0.1142 -0.2308
 1671TIP3   OH226427   5.895   0.865   1.490 -0.0480 -0.1657 -0.4045
 1671TIP3    H126428   5.956   0.808   1.536  1.2717 -0.9746 -2.9391
 1671TIP3    H226429   5.941   0.949   1.481  0.4097 -0.5218 -1.6048
 1672TIP3   OH226430   2.226   0.327   5.114  0.8839  0.2184  0.2527
 1672TIP3    H126431   2.151   0.366   5.159 -0.3107 -2.6850  0.9933
 1672TIP3    H226432   2.203   0.333   5.021  0.1562  0.2115  0.4247
 1673TIP3   OH226433   5.004   3.076  14.544 -0.6255 -0.2492 -0.0945
 1673TIP3    H126434   4.930   3.121  14.584  0.0345  2.7749 -1.8957
 1673TIP3    H226435   5.003   3.105  14.453  2.1501 -0.8600 -0.4297
 1674TIP3   OH226436   3.220   5.063  16.023 -0.1366  0.4164  0.0659
 1674TIP3    H126437   3.213   5.129  15.953  0.8299 -0.2428 -0.6633
 1674TIP3    H226438   3.242   5.114  16.101  1.6659  0.8818 -0.7015
 1675TIP3   OH226439   5.995   2.390   1.745 -0.2328  0.4344  0.1157
 1675TIP3    H126440   6.008   2.428   1.658  0.2956 -1.3396 -0.6288
 1675TIP3    H226441   5.920   2.332   1.735 -0.3828  0.4790  0.9340
 1676TIP3   OH226442   4.501   5.185   1.220  0.0125 -0.8635 -0.1179
 1676TIP3    H126443   4.535   5.103   1.256  2.2589 -0.2975 -0.7458
 1676TIP3    H226444   4.447   5.157   1.146  2.0818 -1.8201 -1.3815
 1677TIP3   OH226445   2.546   1.061  17.068 -0.1700  0.6716 -0.5385
 1677TIP3    H126446   2.601   0.986  17.044  1.2271  0.4373  2.8618
 1677TIP3    H226447   2.458   1.034  17.045  0.2214 -2.3158  0.9852
 1678TIP3   OH226448   0.038   2.124  16.216 -0.1169  0.3106 -0.1063
 1678TIP3    H126449  -0.041   2.164  16.250  0.8611  1.7679  0.5524
 1678TIP3    H226450   0.105   2.192  16.223  1.2927 -0.9933 -0.2619
 1679TIP3   OH226451   5.844   4.845  12.715 -0.5195 -0.1178  0.5049
 1679TIP3    H126452   5.754   4.879  12.710 -1.1363 -1.5208  1.4229
 1679TIP3    H226453   5.833   4.751  12.725  1.1122 -0.5793 -1.3907
 1680TIP3   OH226454   3.005   2.500  14.576  0.1401 -0.1735  0.3268
 1680TIP3    H126455   2.954   2.540  14.506  0.3477 -0.9443 -0.2795
 1680TIP3    H226456   3.088   2.548  14.576 -0.2893  0.5814  0.8111
 1681TIP3   OH226457   3.927   0.873  13.114  0.0260 -0.0519 -0.1837
 1681TIP3    H126458   3.890   0.897  13.199 -0.3075  0.0221 -0.3472
 1681TIP3    H226459   4.009   0.923  13.108  0.1553 -0.2235  0.1858
 1682TIP3   OH226460   6.366   6.272  16.072 -1.0474 -0.3363  0.3059
 1682TIP3    H126461   6.389   6.180  16.078  2.2731  0.4174  1.1871
 1682TIP3    H226462   6.381   6.294  15.980  0.8104 -0.1557  0.6116
 1683TIP3   OH226463   2.020   6.245  12.366  0.4201 -0.7098 -0.0507
 1683TIP3    H126464   2.042   6.156  12.340 -0.1448 -1.8162  2.8793
 1683TIP3    H226465   2.041   6.299  12.290  2.6698 -3.0697 -1.2116
 1684TIP3   OH226466   2.920   5.869  14.614 -0.0655 -0.0437  0.2098
 1684TIP3    H126467   2.863   5.846  14.540 -0.0758  0.0453  0.1908
 1684TIP3    H226468   2.928   5.964  14.610  0.3014 -0.0782  0.0496
 1685TIP3   OH226469   5.294   4.690   2.644 -0.2394  0.1149 -0.1797
 1685TIP3    H126470   5.369   4.749   2.634  0.5259 -0.4849  1.6665
 1685TIP3    H226471   5.304   4.627   2.572  2.5166 -1.4441  1.3799
 1686TIP3   OH226472   2.572   6.188  13.805  0.1648  0.5635  0.5236
 1686TIP3    H126473   2.607   6.139  13.879  0.7905  1.8457  1.1144
 1686TIP3    H226474   2.488   6.221  13.835  0.1901  0.6647  0.4843
 1687TIP3   OH226475   3.516   3.996   1.780  0.1816 -0.0472  0.3412
 1687TIP3    H126476   3.473   4.021   1.861 -0.1164 -0.0830  0.1974
 1687TIP3    H226477   3.596   3.952   1.807  0.8991  1.3629  0.5920
 1688TIP3   OH226478   5.090   2.350  15.094  0.2031  1.1549 -0.5058
 1688TIP3    H126479   5.153   2.300  15.042 -1.6756 -0.5635 -1.2846
 1688TIP3    H226480   5.045   2.406  15.030 -0.9107  0.3225 -0.4905
 1689TIP3   OH226481   4.359   1.824  13.562 -0.6003 -0.1977  0.4977
 1689TIP3    H126482   4.410   1.870  13.628  0.1117  0.2257 -0.3407
 1689TIP3    H226483   4.338   1.890  13.496 -0.1298 -0.9061 -0.3907
 1690TIP3   OH226484   2.763   1.582  12.864  0.0607  0.0482  0.1239
 1690TIP3    H126485   2.848   1.579  12.820 -0.6763 -0.9147 -1.3169
 1690TIP3    H226486   2.784   1.576  12.957  1.6896  2.2799 -0.0199
 1691TIP3   OH226487   2.720   5.365   3.814  0.0828  0.6685  0.2569
 1691TIP3    H126488   2.683   5.293   3.763 -1.8919  0.5911  1.6956
 1691TIP3    H226489   2.814   5.363   3.794 -0.3882 -0.2901 -2.1458
 1692TIP3   OH226490   3.776   4.212  13.916 -0.3253 -0.4004  0.6239
 1692TIP3    H126491   3.835   4.155  13.867 -0.1410  1.4429 -1.4695
 1692TIP3    H226492   3.689   4.193  13.881 -0.4152 -0.1971  0.7330
 1693TIP3   OH226493   1.139   1.000   0.091  0.5907  0.0309 -0.1500
 1693TIP3    H126494   1.049   0.975   0.114  0.6459 -0.2222 -0.1989
 1693TIP3    H226495   1.138   1.009  -0.004 -0.2359  3.4550  0.0517
 1694TIP3   OH226496   2.573   2.110  15.183  0.0909  0.6574  0.0306
 1694TIP3    H126497   2.586   2.168  15.259  0.5294  0.1874  0.3169
 1694TIP3    H226498   2.516   2.041  15.216  0.2881  0.4481 -0.0700
 1695TIP3   OH226499   4.838   0.076   0.362  0.4219  0.5449  0.4807
 1695TIP3    H126500   4.797  -0.005   0.391  1.2963 -0.3992 -0.8210
 1695TIP3    H226501   4.863   0.120   0.443 -1.0270  0.0521  1.2310
 1696TIP3   OH226502   3.726   1.696   5.114 -0.0207 -0.0177  0.0829
 1696TIP3    H126503   3.819   1.720   5.114 -0.0948  0.3273  1.2176
 1696TIP3    H226504   3.721   1.623   5.176 -0.6256  0.5051  0.6636
 1697TIP3   OH226505   4.477   0.348  14.293 -0.0664  0.2919 -0.0505
 1697TIP3    H126506   4.385   0.363  14.316 -0.3120  0.0517 -0.8657
 1697TIP3    H226507   4.507   0.432  14.257 -1.0467 -0.6255 -3.2941
 1698TIP3   OH226508   0.608   2.234   5.569  0.6041  0.3876 -0.1736
 1698TIP3    H126509   0.672   2.217   5.638  1.4435  0.5449 -0.8961
 1698TIP3    H226510   0.637   2.317   5.530  0.3073  0.1561 -0.9022
 1699TIP3   OH226511   0.004   1.660  15.515  0.1295 -0.3550 -0.0429
 1699TIP3    H126512  -0.053   1.584  15.504 -0.5797  0.1386  0.0991
 1699TIP3    H226513   0.091   1.629  15.490 -0.2502 -1.0547 -0.5513
 1700TIP3   OH226514   3.510   5.092   0.777 -0.4176  0.0602 -0.1092
 1700TIP3    H126515   3.449   5.109   0.849  1.2011 -0.9696  1.5809
 1700TIP3    H226516   3.537   5.179   0.748 -3.0943  0.5761 -1.3574
 1701TIP3   OH226517   6.204   5.992  12.874 -0.2562 -0.5742  0.1753
 1701TIP3    H126518   6.188   5.957  12.786 -1.4417 -0.2814  0.2594
 1701TIP3    H226519   6.168   6.080  12.871  2.1788  0.5034  0.1389
 1702TIP3   OH226520   3.863   5.345   4.606  0.3760  0.0492  0.4202
 1702TIP3    H126521   3.857   5.252   4.625  0.5415 -0.2925 -1.1248
 1702TIP3    H226522   3.790   5.363   4.548  1.4536  0.4626 -0.8479
 1703TIP3   OH226523   4.643   5.172   3.316 -0.5003  0.2391 -0.4917
 1703TIP3    H126524   4.639   5.148   3.223 -0.8093  1.8261 -0.9356
 1703TIP3    H226525   4.633   5.268   3.316  0.4191  0.3745  1.1258
 1704TIP3   OH226526   4.536   3.020   2.499  0.0535  0.0833  0.1206
 1704TIP3    H126527   4.489   2.948   2.542 -0.4832  0.1795 -0.2989
 1704TIP3    H226528   4.618   2.981   2.470  0.0335 -0.2048  0.4499
 1705TIP3   OH226529   3.643   3.774  14.238 -0.0958  0.6675 -0.9923
 1705TIP3    H126530   3.653   3.766  14.143 -2.8621  0.8106 -1.3804
 1705TIP3    H226531   3.658   3.686  14.271  2.1448  0.8667 -1.3754
 1706TIP3   OH226532   0.302   3.791   5.710  0.9425  0.2017 -0.0697
 1706TIP3    H126533   0.210   3.767   5.700  1.0690  0.3441 -1.8234
 1706TIP3    H226534   0.342   3.716   5.756 -0.0838  0.2997  1.0421
 1707TIP3   OH226535   4.436   5.024  12.072  0.2123 -0.1100 -0.6464
 1707TIP3    H126536   4.374   5.083  12.030  0.9946  1.3777  0.2175
 1707TIP3    H226537   4.382   4.965  12.125 -0.4615  1.4131  0.4102
 1708TIP3   OH226538   5.476   2.196  15.687  0.2233 -0.0441  0.5774
 1708TIP3    H126539   5.449   2.287  15.700 -1.4463 -0.2707 -0.9241
 1708TIP3    H226540   5.394   2.148  15.679  0.9533 -0.9785 -3.2125
 1709TIP3   OH226541   5.386   3.026  13.601  0.3361  0.7501  0.5617
 1709TIP3    H126542   5.363   2.937  13.576  1.2002 -0.1800  2.8380
 1709TIP3    H226543   5.302   3.070  13.614 -0.1430  0.8888 -2.2974
 1710TIP3   OH226544   1.673   4.054   4.949  0.3108 -0.7586 -0.0135
 1710TIP3    H126545   1.750   4.054   5.005  1.6312  0.8214 -1.7078
 1710TIP3    H226546   1.645   4.146   4.946  0.6141 -0.6812 -2.2967
 1711TIP3   OH226547   0.014   2.520  13.394 -0.8077 -0.0504  0.7057
 1711TIP3    H126548   0.017   2.459  13.320 -0.5963  0.0930  0.5960
 1711TIP3    H226549   0.070   2.593  13.368  2.0720 -1.5141  2.3645
 1712TIP3   OH226550   2.733   4.993  13.017 -0.2523 -0.2101  0.2690
 1712TIP3    H126551   2.649   4.948  13.028 -0.3949 -0.4611 -1.5476
 1712TIP3    H226552   2.713   5.069  12.963  0.6596 -0.1898 -0.0575
 1713TIP3   OH226553   0.383   2.225   1.108  0.1901 -0.0347  0.6206
 1713TIP3    H126554   0.467   2.182   1.118  0.5521  0.2964 -0.7102
 1713TIP3    H226555   0.319   2.154   1.105  0.6095 -0.3907  0.0070
 1714TIP3   OH226556   3.156   4.847   0.732  0.7916 -0.7550 -0.0033
 1714TIP3    H126557   3.128   4.828   0.643 -1.8081  1.6179  0.1642
 1714TIP3    H226558   3.175   4.941   0.732  1.0531 -0.7663  1.8481
 1715TIP3   OH226559   4.741   1.353   4.177  0.0634  0.2823 -0.5968
 1715TIP3    H126560   4.801   1.346   4.103 -0.6060 -0.9854 -1.0443
 1715TIP3    H226561   4.740   1.447   4.198  1.8200  0.3928 -0.8647
 1716TIP3   OH226562   2.899   2.217   2.095 -0.3672 -0.0592 -0.0591
 1716TIP3    H126563   2.921   2.276   2.023 -0.5658  0.4392  0.2834
 1716TIP3    H226564   2.822   2.256   2.136 -0.7378 -0.7646 -0.0640
 1717TIP3   OH226565   1.491   4.865  11.712 -0.1319 -0.6780 -0.6882
 1717TIP3    H126566   1.513   4.935  11.651 -2.5430 -0.2429 -1.1633
 1717TIP3    H226567   1.397   4.854  11.702 -0.3215 -1.7972  1.7257
 1718TIP3   OH226568   2.916   0.861   5.195  0.7087  0.3428  0.4138
 1718TIP3    H126569   2.855   0.866   5.121  0.9022  1.1386  0.3007
 1718TIP3    H226570   2.931   0.767   5.207  0.0090  0.1715 -0.0059
 1719TIP3   OH226571   4.934   1.493   0.764 -0.4357 -0.0501 -0.0207
 1719TIP3    H126572   5.009   1.547   0.790 -0.8339  1.4848 -1.8577
 1719TIP3    H226573   4.962   1.404   0.782  1.9863  0.4331 -0.9222
 1720TIP3   OH226574   0.991   2.427  13.970  0.7198 -0.0427  0.2835
 1720TIP3    H126575   1.055   2.380  13.917 -0.4059 -1.4846  0.1201
 1720TIP3    H226576   0.935   2.471  13.905  1.3039  0.9030  0.4102
 1721TIP3   OH226577   4.311   4.679   2.588 -0.3775 -0.4043 -0.1560
 1721TIP3    H126578   4.313   4.734   2.666  1.2013 -2.3782  1.3048
 1721TIP3    H226579   4.276   4.735   2.519 -0.1779  1.9442  1.5609
 1722TIP3   OH226580   6.498   3.829   0.962  0.5052  0.4787 -0.4395
 1722TIP3    H126581   6.446   3.876   1.027  0.0835 -0.4220 -0.1030
 1722TIP3    H226582   6.439   3.761   0.929  1.0999  0.1775 -0.9054
 1723TIP3   OH226583   6.210   5.318  16.817  0.2016  0.2561 -0.1962
 1723TIP3    H126584   6.250   5.341  16.900 -0.3645  0.8786 -0.0838
 1723TIP3    H226585   6.277   5.337  16.751  0.4363  0.3452  0.0706
 1724TIP3   OH226586   2.596   3.018   2.561  0.5149 -0.3986  0.0408
 1724TIP3    H126587   2.532   2.975   2.618 -0.1557  0.4239 -0.0619
 1724TIP3    H226588   2.543   3.055   2.490  1.3766 -1.7130 -1.3212
 1725TIP3   OH226589   5.005   0.594  11.847 -0.6299  0.4759  0.4829
 1725TIP3    H126590   4.981   0.582  11.939  0.0569 -0.9719  0.5098
 1725TIP3    H226591   5.028   0.506  11.817  0.4586  1.1323 -0.7092
 1726TIP3   OH226592   4.463   5.390   1.420  0.4346  0.3595 -0.0585
 1726TIP3    H126593   4.486   5.323   1.356  2.1569 -0.1795  1.0381
 1726TIP3    H226594   4.382   5.358   1.461  0.8659 -0.7060 -0.0216
 1727TIP3   OH226595   3.022   6.177  17.180 -0.0934  0.4823 -0.3656
 1727TIP3    H126596   3.093   6.230  17.144 -0.3766  0.7123 -0.5910
 1727TIP3    H226597   2.999   6.117  17.108  1.6124 -1.3774  0.5532
 1728TIP3   OH226598   1.022   2.092   0.140 -0.2254 -0.0079  0.0100
 1728TIP3    H126599   1.035   2.050   0.055  2.3531  0.9694 -0.1744
 1728TIP3    H226600   1.015   2.020   0.202 -0.3850 -0.7171 -0.8099
 1729TIP3   OH226601   5.159   0.830  14.758  0.0100  0.2326  0.4593
 1729TIP3    H126602   5.146   0.841  14.664  1.2220  0.0759  0.2483
 1729TIP3    H226603   5.137   0.738  14.775  0.3470  0.1024  0.2119
 1730TIP3   OH226604   2.739   1.084   0.415 -0.0911 -0.5408 -0.2557
 1730TIP3    H126605   2.696   1.169   0.405 -0.4365 -0.5173  1.1645
 1730TIP3    H226606   2.777   1.087   0.503  0.9490 -1.4026 -0.6516
 1731TIP3   OH226607   5.931   5.313   4.259  0.6244 -0.1200  0.3580
 1731TIP3    H126608   5.850   5.343   4.218  2.1413  0.6859 -2.3009
 1731TIP3    H226609   5.950   5.378   4.327  1.1070  2.1014 -1.7716
 1732TIP3   OH226610   1.750   2.123   6.136  0.6105 -0.2544 -0.4401
 1732TIP3    H126611   1.809   2.050   6.157  0.9526  0.2947  0.6017
 1732TIP3    H226612   1.770   2.189   6.203 -1.0247  0.0451 -0.2258
 1733TIP3   OH226613   5.215   1.393  15.968  0.0893  0.4117 -0.2369
 1733TIP3    H126614   5.181   1.334  15.901 -0.6852  1.5082 -0.8575
 1733TIP3    H226615   5.307   1.368  15.978 -1.2384 -4.3216  3.2784
 1734TIP3   OH226616   0.458   5.625  14.863  0.3057  0.0305 -0.3852
 1734TIP3    H126617   0.368   5.609  14.891 -0.2620 -0.0742 -2.1638
 1734TIP3    H226618   0.511   5.566  14.917 -0.7010 -0.0593  0.5328
 1735TIP3   OH226619   6.225   4.599   4.399  0.0666  0.4728  0.4262
 1735TIP3    H126620   6.229   4.633   4.489  0.1538 -0.8213  0.9314
 1735TIP3    H226621   6.182   4.514   4.407  1.1426 -0.2050 -0.5758
 1736TIP3   OH226622   0.342   3.087   2.220 -0.2909 -0.2776 -0.2498
 1736TIP3    H126623   0.250   3.064   2.209 -0.5668  1.1672 -1.1216
 1736TIP3    H226624   0.388   3.003   2.212 -1.4638 -0.9281 -0.4858
 1737TIP3   OH226625   0.471   4.428   6.532  0.0687  0.3897  0.3099
 1737TIP3    H126626   0.556   4.391   6.558  0.3178  0.7962  0.0824
 1737TIP3    H226627   0.487   4.522   6.522  0.0646  0.2331 -1.5931
 1738TIP3   OH226628   0.493   0.399  14.475  0.3638 -0.4633  0.2361
 1738TIP3    H126629   0.517   0.429  14.387  0.1075 -0.6906  0.0900
 1738TIP3    H226630   0.573   0.359  14.509  0.9362  1.0111  0.7077
 1739TIP3   OH226631   1.692   3.440  14.994 -0.4227 -0.0951  0.8322
 1739TIP3    H126632   1.749   3.412  15.065  1.1313 -0.0043 -0.3225
 1739TIP3    H226633   1.691   3.365  14.934  0.8356  0.9307 -0.5313
 1740TIP3   OH226634   4.857   6.104  15.188 -0.3175 -0.7556  0.3900
 1740TIP3    H126635   4.936   6.063  15.152  0.8941  0.6413  1.2993
 1740TIP3    H226636   4.822   6.040  15.250  1.2417 -0.6767  1.4162
 1741TIP3   OH226637   5.070   4.455   2.691  0.3499  0.0080 -0.1308
 1741TIP3    H126638   5.054   4.367   2.655 -1.1248 -0.0742  0.6375
 1741TIP3    H226639   5.055   4.514   2.617  1.0262 -0.3559 -0.5703
 1742TIP3   OH226640   4.572   4.138  13.756  0.0695  0.3457  0.4648
 1742TIP3    H126641   4.599   4.077  13.687 -0.8002 -0.0836  0.4885
 1742TIP3    H226642   4.652   4.155  13.805  0.3496 -0.7317  0.4133
 1743TIP3   OH226643   6.224   4.694  14.309  0.3094  0.2184  0.1382
 1743TIP3    H126644   6.191   4.783  14.296 -0.7270 -0.0202  1.0698
 1743TIP3    H226645   6.228   4.683  14.404 -0.2161 -0.9644  0.0385
 1744TIP3   OH226646   0.659   6.297  11.768 -0.1960 -0.1067 -0.3776
 1744TIP3    H126647   0.655   6.374  11.825 -0.9701 -0.0602 -0.4924
 1744TIP3    H226648   0.752   6.289  11.747  0.1358 -0.2217  1.0196
 1745TIP3   OH226649   4.810   2.957   0.560  0.0220  0.5054 -0.6253
 1745TIP3    H126650   4.878   2.935   0.623  0.2994 -1.9857 -1.6627
 1745TIP3    H226651   4.858   2.973   0.478 -0.5025  0.5511 -0.9296
 1746TIP3   OH226652   3.918   2.685  16.121 -0.5016  0.0512 -0.6814
 1746TIP3    H126653   3.840   2.688  16.065 -1.5331 -1.8441  0.5362
 1746TIP3    H226654   3.956   2.599  16.104  0.4545  0.3607 -0.1486
 1747TIP3   OH226655   4.112   3.511  14.938 -0.0194  0.1530  0.5755
 1747TIP3    H126656   4.095   3.447  14.869 -1.5893  1.4814 -0.3347
 1747TIP3    H226657   4.199   3.544  14.918 -0.0808 -0.1347 -0.2223
 1748TIP3   OH226658   4.070   0.097  17.167 -0.2471 -0.5859  0.2744
 1748TIP3    H126659   4.128   0.061  17.234  2.0018 -0.3125 -1.4163
 1748TIP3    H226660   4.096   0.189  17.159  0.0913 -0.8098 -1.5028
 1749TIP3   OH226661   4.368   5.762  14.796  0.3760  0.1318  0.1965
 1749TIP3    H126662   4.407   5.843  14.829 -0.5112  0.4363  0.5499
 1749TIP3    H226663   4.434   5.695  14.813  1.6024  0.9365 -1.1497
 1750TIP3   OH226664   3.382   1.464   2.625 -0.0039  0.4640 -0.1154
 1750TIP3    H126665   3.321   1.464   2.699 -3.4722  0.5617 -2.7368
 1750TIP3    H226666   3.349   1.397   2.566  3.7436 -0.9392 -0.8929
 1751TIP3   OH226667   4.072   2.115   5.822 -0.7052  0.1325  0.4225
 1751TIP3    H126668   4.075   2.110   5.726 -1.5523 -1.1912  0.4371
 1751TIP3    H226669   3.996   2.062   5.846 -1.2477  1.4571  1.7755
 1752TIP3   OH226670   0.562   6.357   4.952 -0.7047 -0.0498  0.2224
 1752TIP3    H126671   0.518   6.442   4.948 -1.6516 -0.5488 -0.3455
 1752TIP3    H226672   0.548   6.318   4.866  1.0207 -0.1693 -0.0426
 1753TIP3   OH226673   3.015   0.911   3.324  0.3049  0.3712  0.5452
 1753TIP3    H126674   3.080   0.947   3.384  0.3228 -0.3736  0.9756
 1753TIP3    H226675   2.972   0.988   3.286  2.1225  0.9060 -0.5266
 1754TIP3   OH226676   3.165   1.734  11.453 -0.3489  0.3295  0.4863
 1754TIP3    H126677   3.171   1.695  11.540 -0.5391 -1.1549 -0.1434
 1754TIP3    H226678   3.255   1.735  11.420 -0.3745  0.2405  0.4150
 1755TIP3   OH226679   5.821   1.147  13.394 -0.9097  0.1667 -0.1396
 1755TIP3    H126680   5.792   1.128  13.484  0.3323 -2.0904 -0.1541
 1755TIP3    H226681   5.739   1.162  13.346 -1.5711  2.2032  1.4622
 1756TIP3   OH226682   4.093   2.087  11.775  0.1951  0.0806 -0.5342
 1756TIP3    H126683   4.149   2.019  11.811  0.2904  0.2596 -0.3401
 1756TIP3    H226684   4.005   2.062  11.803  0.0475 -0.7187 -1.6425
 1757TIP3   OH226685   2.565   6.209  17.024 -0.0623 -0.5871  0.2991
 1757TIP3    H126686   2.570   6.253  17.109  0.2519 -0.7363  0.3593
 1757TIP3    H226687   2.540   6.278  16.963  0.0814 -0.3964  0.4525
 1758TIP3   OH226688   3.152   3.038   5.379 -0.1321 -0.6860 -0.3240
 1758TIP3    H126689   3.116   3.010   5.295  2.1205 -1.1202 -1.2279
 1758TIP3    H226690   3.241   3.066   5.359  0.1832  0.0221  1.8006
 1759TIP3   OH226691   3.177   4.411  12.940 -0.6840  0.1717  0.3795
 1759TIP3    H126692   3.200   4.494  12.983  1.5571 -1.0895  1.7494
 1759TIP3    H226693   3.185   4.430  12.847 -1.9245  1.9226  0.5626
 1760TIP3   OH226694   3.782   2.735   5.758  0.2445 -0.3775  0.1513
 1760TIP3    H126695   3.767   2.713   5.666 -0.3530 -0.6850  0.3144
 1760TIP3    H226696   3.694   2.736   5.796  0.4944 -0.2853  0.7244
 1761TIP3   OH226697   3.352   3.106  14.344  0.2197  0.7469  0.1878
 1761TIP3    H126698   3.418   3.040  14.322 -0.8993 -0.6757  0.8743
 1761TIP3    H226699   3.272   3.075  14.301 -0.4075  1.4835  0.7941
 1762TIP3   OH226700   1.105   3.066   2.207 -0.5992 -0.5489  0.6392
 1762TIP3    H126701   1.066   3.133   2.151 -1.4439  0.0971  1.9240
 1762TIP3    H226702   1.068   3.084   2.294  3.0319  0.5071  2.1454
 1763TIP3   OH226703   1.014   3.098   3.636  0.3703 -0.1134 -0.1464
 1763TIP3    H126704   0.968   3.118   3.718  0.3553 -0.4397 -0.0713
 1763TIP3    H226705   0.948   3.054   3.582  0.8133 -1.3794  0.2954
 1764TIP3   OH226706   1.085   3.066  12.984  0.5446  0.0088 -0.2652
 1764TIP3    H126707   1.075   3.149  12.937  0.3472  0.0124 -0.2193
 1764TIP3    H226708   1.170   3.033  12.956  1.5768  1.2216  1.2621
 1765TIP3   OH226709   3.615   4.178  11.608 -0.4948  0.2504  0.6381
 1765TIP3    H126710   3.678   4.226  11.555 -0.7053 -0.4047 -0.2285
 1765TIP3    H226711   3.655   4.175  11.695 -0.3717  1.7699  0.6654
 1766TIP3   OH226712   1.405   6.506  11.217 -0.1889 -0.6643  0.0909
 1766TIP3    H126713   1.437   6.430  11.265  0.6530 -0.0513  0.5299
 1766TIP3    H226714   1.391   6.473  11.128 -0.3122 -1.4490  0.3907
 1767TIP3   OH226715   3.332   0.041   1.630  0.4296 -0.2900 -0.0813
 1767TIP3    H126716   3.257   0.006   1.583 -0.1121 -0.9114  1.1943
 1767TIP3    H226717   3.378   0.095   1.566 -2.7612  2.6567 -0.1920
 1768TIP3   OH226718   4.526   5.969   6.042 -0.9033  0.7055  0.2552
 1768TIP3    H126719   4.602   5.916   6.017 -0.4205  0.6078  1.7906
 1768TIP3    H226720   4.564   6.050   6.076 -1.5576  1.2731 -0.3652
 1769TIP3   OH226721   2.402   5.049   4.235  0.1844  0.5046  0.6002
 1769TIP3    H126722   2.409   5.063   4.141 -0.7347 -0.8454  0.2984
 1769TIP3    H226723   2.493   5.042   4.265  0.4692 -0.1559 -0.3787
 1770TIP3   OH226724   5.403   0.723  15.591  0.2226 -0.7722 -0.2170
 1770TIP3    H126725   5.316   0.688  15.570  0.3803 -2.1946  1.2513
 1770TIP3    H226726   5.385   0.801  15.643 -0.1961 -1.0659  0.0949
 1771TIP3   OH226727   3.462   0.888  15.962 -0.0289 -0.2678  0.8424
 1771TIP3    H126728   3.511   0.956  15.915 -1.6141  0.2086 -0.2025
 1771TIP3    H226729   3.500   0.806  15.933 -1.5452 -0.0474 -2.0981
 1772TIP3   OH226730   3.045   0.637   3.798  0.4572  0.4219  0.0457
 1772TIP3    H126731   3.033   0.576   3.870 -1.3912 -2.0716 -2.1796
 1772TIP3    H226732   2.986   0.710   3.818  0.6933  0.2521  1.4463
 1773TIP3   OH226733   4.996   1.980   4.319  0.1944  0.1938 -0.0690
 1773TIP3    H126734   4.979   2.068   4.287 -0.6853 -0.4679 -1.5241
 1773TIP3    H226735   4.910   1.940   4.325  0.6695 -0.9661 -0.6601
 1774TIP3   OH226736   4.064   5.658   6.512  0.6650  0.3592 -0.0222
 1774TIP3    H126737   3.977   5.668   6.551  0.8358 -1.8787  1.0760
 1774TIP3    H226738   4.118   5.723   6.558  0.1066  0.0699  1.0720
 1775TIP3   OH226739   3.146   4.251   6.078  0.7511  0.0675  0.2370
 1775TIP3    H126740   3.111   4.302   6.005  1.1031 -1.4581 -1.0368
 1775TIP3    H226741   3.176   4.170   6.039 -1.0416 -1.7655  2.3829
 1776TIP3   OH226742   2.942   0.079   3.399 -0.0141  0.0200 -0.4092
 1776TIP3    H126743   3.003   0.070   3.325  2.7606  0.5835  1.6413
 1776TIP3    H226744   2.964   0.007   3.458 -2.9514 -1.1071 -0.5146
 1777TIP3   OH226745   3.885   5.794  17.197  0.7062 -0.4679 -0.0041
 1777TIP3    H126746   3.862   5.879  17.160  2.5091 -0.0710 -0.3358
 1777TIP3    H226747   3.832   5.731  17.149  0.5351  0.3428 -0.9110
 1778TIP3   OH226748   2.879   5.532   6.229 -0.6423  0.8884 -0.3231
 1778TIP3    H126749   2.815   5.505   6.295 -0.6451 -1.1285 -1.0782
 1778TIP3    H226750   2.948   5.575   6.278  0.0429 -1.7681  1.2546
 1779TIP3   OH226751   1.316   5.944   1.558 -0.5005 -0.4428 -0.1451
 1779TIP3    H126752   1.380   5.873   1.553 -0.8154 -0.6653 -1.2431
 1779TIP3    H226753   1.232   5.900   1.574 -0.4247 -0.1596  1.1958
 1780TIP3   OH226754   2.424   1.111   0.904 -0.7221 -0.2468  0.1059
 1780TIP3    H126755   2.420   1.123   0.809  0.1034 -0.0616  0.0875
 1780TIP3    H226756   2.333   1.122   0.933 -0.6495  2.2177 -0.3847
 1781TIP3   OH226757   3.317   6.474  12.302  0.4227  0.2735 -0.2251
 1781TIP3    H126758   3.390   6.534  12.310 -0.1119  0.6689  2.5108
 1781TIP3    H226759   3.351   6.390  12.334  0.1042  0.0669 -0.4183
 1782TIP3   OH226760   1.353   6.755  16.736 -0.0315  0.1424  0.0601
 1782TIP3    H126761   1.341   6.664  16.707 -0.3422 -0.3393  1.5920
 1782TIP3    H226762   1.275   6.800  16.704 -0.4132 -0.3955  0.2124
 1783TIP3   OH226763   4.327   2.777   2.870 -0.2733  0.0893 -0.4623
 1783TIP3    H126764   4.329   2.704   2.809 -0.1919  0.1128 -0.4878
 1783TIP3    H226765   4.306   2.854   2.816  1.0636  0.3297 -0.6860
 1784TIP3   OH226766   5.780   4.641  14.928 -0.0554 -0.5012 -0.0255
 1784TIP3    H126767   5.798   4.709  14.862 -1.4144 -0.4660 -0.3814
 1784TIP3    H226768   5.837   4.665  15.002  1.4866 -0.5273 -1.1421
 1785TIP3   OH226769   6.395   5.284   4.215  0.0907  0.0410  0.3996
 1785TIP3    H126770   6.433   5.296   4.302  0.1398  0.3600  0.3352
 1785TIP3    H226771   6.386   5.372   4.180  0.1985 -0.0918  0.0268
 1786TIP3   OH226772   5.797   4.443   5.923 -0.2729 -0.4700  0.1115
 1786TIP3    H126773   5.835   4.448   6.011 -0.8201  0.3001  0.3104
 1786TIP3    H226774   5.865   4.400   5.870  0.4618 -0.0437  0.6889
 1787TIP3   OH226775   5.025   3.137  15.311  0.2430  0.0441 -0.0592
 1787TIP3    H126776   4.930   3.138  15.295  0.3909  2.4997 -1.3366
 1787TIP3    H226777   5.040   3.210  15.371  1.4308  0.4682 -0.8406
 1788TIP3   OH226778   2.139   2.033   5.259  0.6277  0.0929  0.1692
 1788TIP3    H126779   2.121   1.973   5.331 -1.4515  0.7668  0.2647
 1788TIP3    H226780   2.166   2.114   5.302 -2.5870  1.1769  0.4226
 1789TIP3   OH226781   2.305   0.414  16.868  0.6446  0.0789  0.0013
 1789TIP3    H126782   2.352   0.375  16.794  0.0510  0.4093 -0.5597
 1789TIP3    H226783   2.311   0.508  16.853  0.1324  0.1336  0.1373
 1790TIP3   OH226784   2.675   2.472  12.762  0.0078  0.4792 -0.0371
 1790TIP3    H126785   2.686   2.486  12.668  0.5978  0.1059 -0.0328
 1790TIP3    H226786   2.595   2.519  12.784  0.5156  1.5989 -0.4938
 1791TIP3   OH226787   4.392   4.338   3.820  0.1419 -0.1780  0.0420
 1791TIP3    H126788   4.450   4.270   3.785  1.0256  0.0743  0.9634
 1791TIP3    H226789   4.349   4.375   3.743 -1.2229 -2.5065 -0.4228
 1792TIP3   OH226790   6.544   3.859   6.110 -0.0213 -0.3179 -0.3905
 1792TIP3    H126791   6.558   3.781   6.056  0.7654  0.3398 -1.1492
 1792TIP3    H226792   6.499   3.920   6.053  0.0545  0.0736 -0.0330
 1793TIP3   OH226793   1.675   4.445  15.904 -0.4687 -0.2546  0.0227
 1793TIP3    H126794   1.742   4.449  15.837 -1.5461  1.1588 -1.0224
 1793TIP3    H226795   1.680   4.356  15.938  1.2862 -0.4471 -0.6737
 1794TIP3   OH226796   5.828   2.680  15.150 -0.1408 -0.2473  0.5210
 1794TIP3    H126797   5.770   2.615  15.109 -0.0591 -0.8421  1.3357
 1794TIP3    H226798   5.886   2.629  15.206  1.4966  0.2840 -0.6188
 1795TIP3   OH226799   2.890   4.139   2.627 -0.0606 -0.9704 -0.2498
 1795TIP3    H126800   2.806   4.093   2.631  0.0916 -1.4180 -1.6543
 1795TIP3    H226801   2.923   4.137   2.717 -1.7779 -0.3313  0.4289
 1796TIP3   OH226802   3.167   3.650  14.494 -0.1393 -0.3071 -0.2935
 1796TIP3    H126803   3.224   3.655  14.417 -0.3751 -2.9262 -0.7394
 1796TIP3    H226804   3.080   3.672  14.461  0.3234  2.4747  0.1304
 1797TIP3   OH226805   3.934   4.504   0.541 -0.1766  0.0710  0.0680
 1797TIP3    H126806   3.965   4.588   0.575  1.3885 -0.0573 -0.9283
 1797TIP3    H226807   3.999   4.441   0.572 -1.5616 -0.8716  1.1576
 1798TIP3   OH226808   4.460   1.889   1.624 -0.8235 -0.5533 -0.4459
 1798TIP3    H126809   4.411   1.931   1.695 -2.9144 -0.1389 -2.0751
 1798TIP3    H226810   4.544   1.867   1.665 -2.0634 -0.7102  2.2749
 1799TIP3   OH226811   5.481   2.110   1.742  0.1398  0.6761  0.5160
 1799TIP3    H126812   5.574   2.089   1.749  0.6196  1.8137 -1.5503
 1799TIP3    H226813   5.456   2.076   1.656 -1.1026  1.2525  0.6359
 1800TIP3   OH226814   4.970   0.669   4.278 -0.2754 -0.2856  0.1791
 1800TIP3    H126815   5.048   0.724   4.285 -0.6061  0.1123  0.9125
 1800TIP3    H226816   4.989   0.594   4.335  0.0785 -0.8278 -0.6345
 1801TIP3   OH226817   0.780   4.102   3.643  0.2695  0.5180 -0.2041
 1801TIP3    H126818   0.695   4.097   3.599 -0.5538  0.4676  1.3287
 1801TIP3    H226819   0.805   4.010   3.657  0.4181  0.5361 -0.3458
 1802TIP3   OH226820   1.243   2.643  15.917 -0.0189  0.8015  0.4460
 1802TIP3    H126821   1.246   2.590  15.996  0.7718 -0.4504 -0.3905
 1802TIP3    H226822   1.182   2.714  15.938 -2.6909 -1.4741  0.9797
 1803TIP3   OH226823   0.471   4.778   0.853  0.6681 -0.0584  0.5945
 1803TIP3    H126824   0.423   4.849   0.895 -0.5945  0.9155 -2.2218
 1803TIP3    H226825   0.560   4.787   0.886 -0.0111  1.2200  2.2384
 1804TIP3   OH226826   3.498   0.127  14.671  0.0675  0.1888 -0.0495
 1804TIP3    H126827   3.438   0.199  14.690 -0.0429  0.1935 -0.4090
 1804TIP3    H226828   3.585   0.164  14.685  0.0151  0.4308 -0.3466
 1805TIP3   OH226829   1.914   2.637  14.720 -0.1669  0.0327  0.7257
 1805TIP3    H126830   1.839   2.579  14.704 -1.5794  1.9130  0.2930
 1805TIP3    H226831   1.915   2.650  14.814  2.0614 -3.0464  1.2852
 1806TIP3   OH226832   5.967   5.436   5.320  0.1810 -0.1844  0.1592
 1806TIP3    H126833   5.900   5.479   5.373  0.5867  0.4185  0.1932
 1806TIP3    H226834   5.942   5.455   5.230 -0.0297 -0.4754  0.1559
 1807TIP3   OH226835   4.222   6.561  12.132 -0.3822  0.1340 -0.5235
 1807TIP3    H126836   4.262   6.525  12.212  1.3325  1.5157 -0.6818
 1807TIP3    H226837   4.215   6.655  12.149  1.5369  0.7370 -2.5309
 1808TIP3   OH226838   2.805   0.093   3.958  0.1541 -0.2919 -0.5395
 1808TIP3    H126839   2.841   0.137   4.035 -0.4409  1.1638 -1.0523
 1808TIP3    H226840   2.881   0.081   3.900  0.0142  2.1922 -1.3527
 1809TIP3   OH226841   3.408   6.508   6.531  0.4555 -0.1190 -0.2161
 1809TIP3    H126842   3.316   6.481   6.531  0.1781  0.5723 -2.9013
 1809TIP3    H226843   3.453   6.440   6.480  0.9184  0.9481 -1.2772
 1810TIP3   OH226844   1.132   1.618  10.782 -0.0870 -0.8924  0.0693
 1810TIP3    H126845   1.224   1.640  10.772 -0.5668  0.7592 -1.0562
 1810TIP3    H226846   1.103   1.591  10.695 -1.2716  1.2335 -0.2657
 1811TIP3   OH226847   1.605   6.652   0.337  0.4017 -0.0531  0.3185
 1811TIP3    H126848   1.542   6.613   0.397 -1.0043  0.3086 -0.8475
 1811TIP3    H226849   1.552   6.710   0.282  2.0846  1.8106  0.5750
 1812TIP3   OH226850   0.380   4.678   0.105 -0.0538 -0.3776 -0.4016
 1812TIP3    H126851   0.341   4.764   0.122  1.0396  0.3943 -1.5592
 1812TIP3    H226852   0.426   4.689   0.021  2.6484 -1.1591  0.8510
 1813TIP3   OH226853   6.319   6.315  13.209  0.3153 -0.5943 -0.0952
 1813TIP3    H126854   6.363   6.358  13.282  0.0851 -0.9582  0.2644
 1813TIP3    H226855   6.226   6.318  13.233 -0.2729  2.6717 -2.1163
 1814TIP3   OH226856   3.619   0.840   4.440  0.1689  0.2712 -0.1844
 1814TIP3    H126857   3.619   0.841   4.535 -0.6181 -0.2220 -0.1698
 1814TIP3    H226858   3.676   0.767   4.416  1.3341  1.1344 -0.1242
 1815TIP3   OH226859   2.453   4.766   4.855 -0.3368 -0.4872  0.1496
 1815TIP3    H126860   2.404   4.777   4.936 -0.3691  1.2420 -0.0705
 1815TIP3    H226861   2.393   4.795   4.786 -0.0595 -1.2481 -0.4304
 1816TIP3   OH226862   2.334   0.108  15.752  1.1259  0.0456  0.0708
 1816TIP3    H126863   2.403   0.057  15.795 -0.0278 -0.7368  1.0662
 1816TIP3    H226864   2.317   0.181  15.811  1.4624  0.5285 -0.4265
 1817TIP3   OH226865   2.021   6.243  13.323 -1.2799  0.1162  0.7920
 1817TIP3    H126866   2.008   6.178  13.392 -0.4942 -0.3651  0.4986
 1817TIP3    H226867   2.016   6.327  13.368 -1.1563 -0.1799  1.3721
 1818TIP3   OH226868   5.705   2.852  14.358  0.2502  0.0774  0.0346
 1818TIP3    H126869   5.699   2.900  14.275 -0.9644 -0.4980 -0.2324
 1818TIP3    H226870   5.659   2.908  14.421 -0.9387 -0.5827 -0.2211
 1819TIP3   OH226871   0.502   6.584  13.657  0.6593 -0.3134  0.1574
 1819TIP3    H126872   0.453   6.509  13.691  0.8187  0.3299  1.9465
 1819TIP3    H226873   0.478   6.656  13.716  1.5938  0.6938 -0.6578
 1820TIP3   OH226874   5.786   0.342   5.192 -0.1995  0.3637  0.6311
 1820TIP3    H126875   5.716   0.392   5.151 -0.7865 -1.3674 -0.6291
 1820TIP3    H226876   5.757   0.328   5.282 -2.3513 -1.6670 -0.2731
 1821TIP3   OH226877   2.275   3.807   2.075 -0.2209 -0.6797 -0.1669
 1821TIP3    H126878   2.193   3.842   2.111 -0.4300  0.6230 -1.8238
 1821TIP3    H226879   2.343   3.848   2.129 -0.5959 -0.8416  0.4502
 1822TIP3   OH226880   1.552   4.767  11.967 -0.1475  0.3309  0.1363
 1822TIP3    H126881   1.527   4.819  11.891  0.2259 -0.4692 -0.5531
 1822TIP3    H226882   1.640   4.736  11.947 -0.2202 -0.2547  0.6905
 1823TIP3   OH226883   5.892   0.815   3.860 -0.3131 -0.2330  0.0764
 1823TIP3    H126884   5.971   0.763   3.849 -0.8188 -1.2920  1.2342
 1823TIP3    H226885   5.922   0.905   3.858  0.5445 -0.4834 -2.3410
 1824TIP3   OH226886   6.590   4.527   1.097  0.5923  0.0838 -0.1705
 1824TIP3    H126887   6.671   4.565   1.064  1.7228 -1.4946  0.6389
 1824TIP3    H226888   6.581   4.563   1.185  0.8126 -0.3056  0.0118
 1825TIP3   OH226889   1.492   0.414  15.691 -0.1098  0.0343  0.0097
 1825TIP3    H126890   1.449   0.479  15.636  0.6152  0.5290  0.0045
 1825TIP3    H226891   1.470   0.441  15.781  0.4877  0.5170  0.0203
 1826TIP3   OH226892   5.407   5.005  12.571  0.0202 -0.8502  0.1175
 1826TIP3    H126893   5.455   4.934  12.613 -0.2738  0.1505  2.3182
 1826TIP3    H226894   5.337   5.026  12.632 -0.8201  0.3303 -1.1848
 1827TIP3   OH226895   0.533   4.556   1.301 -0.5497  0.4631 -0.0935
 1827TIP3    H126896   0.582   4.481   1.268 -3.0482 -1.7854  0.8195
 1827TIP3    H226897   0.595   4.604   1.356  1.4973 -0.1514 -1.7848
 1828TIP3   OH226898   6.686   3.905   3.320  0.0962  0.1004  0.5938
 1828TIP3    H126899   6.773   3.867   3.311  0.1667  0.1289  1.1332
 1828TIP3    H226900   6.693   3.993   3.284  0.0330 -0.2457 -0.2951
 1829TIP3   OH226901   4.333   6.659  12.989  0.1885 -0.4829  0.2543
 1829TIP3    H126902   4.334   6.685  13.081 -0.0674 -0.3699  0.2261
 1829TIP3    H226903   4.341   6.564  12.991 -1.9530 -0.7081  0.4937
 1830TIP3   OH226904   5.804   0.792  12.243  0.3167  0.3657 -0.4274
 1830TIP3    H126905   5.745   0.786  12.167 -0.9771  1.1149  0.4702
 1830TIP3    H226906   5.849   0.875  12.232 -0.0277  0.5761 -0.2924
 1831TIP3   OH226907   0.410   3.550   3.549 -1.0262 -0.1869 -0.0886
 1831TIP3    H126908   0.399   3.644   3.560 -1.9899 -0.2671 -0.2348
 1831TIP3    H226909   0.500   3.532   3.577 -0.0122  1.1107 -2.1867
 1832TIP3   OH226910   0.219   2.641   4.016  0.0909  0.1520 -0.4032
 1832TIP3    H126911   0.264   2.683   4.089  2.3527 -4.1932  1.0346
 1832TIP3    H226912   0.144   2.597   4.056  0.1498 -0.5330 -1.0161
 1833TIP3   OH226913   0.363   4.860  16.184 -0.6340  1.0314  0.2194
 1833TIP3    H126914   0.398   4.887  16.099  1.2152 -1.5903  0.0157
 1833TIP3    H226915   0.415   4.909  16.247  1.3782 -0.4247 -0.1712
 1834TIP3   OH226916   6.269   3.326   5.759 -0.0915 -0.4368 -0.2849
 1834TIP3    H126917   6.175   3.309   5.764 -0.5076  1.5597 -0.2689
 1834TIP3    H226918   6.287   3.337   5.666 -0.1758  0.5476 -0.1956
 1835TIP3   OH226919   6.235   5.445  11.412  0.1561 -0.8802  0.1151
 1835TIP3    H126920   6.284   5.374  11.370  2.2865 -0.8509  2.3120
 1835TIP3    H226921   6.300   5.515  11.425 -0.8065 -0.2437  1.8633
 1836TIP3   OH226922   1.169   2.349  14.601 -0.4668  0.5258  0.1894
 1836TIP3    H126923   1.194   2.369  14.691 -0.3470  0.0528  0.2644
 1836TIP3    H226924   1.090   2.296  14.609 -0.2690  0.2012  0.0345
 1837TIP3   OH226925   4.330   3.276   1.527 -0.1353 -0.5714 -0.1297
 1837TIP3    H126926   4.291   3.271   1.614  0.3954 -1.2662  0.0823
 1837TIP3    H226927   4.313   3.190   1.487  0.0370 -0.4284 -0.5222
 1838TIP3   OH226928   5.022   3.627  11.248 -0.2384 -0.6306  0.9235
 1838TIP3    H126929   5.109   3.616  11.287 -0.9804 -2.3942  2.2321
 1838TIP3    H226930   5.036   3.613  11.155  1.1882  1.2228  0.7909
 1839TIP3   OH226931   3.898   4.754  15.072 -0.1571  0.0456  0.3612
 1839TIP3    H126932   3.929   4.664  15.061  1.6745  0.7141 -0.3904
 1839TIP3    H226933   3.964   4.795  15.128  1.0564  1.7934 -2.1205
 1840TIP3   OH226934   4.105   2.491   5.870 -0.0509 -0.1968  0.4170
 1840TIP3    H126935   4.107   2.581   5.903 -0.2676 -0.5249  1.3621
 1840TIP3    H226936   4.015   2.479   5.841  0.3549  0.3810 -1.1725
 1841TIP3   OH226937   6.008   1.978   0.041 -0.1144  0.2985 -0.0714
 1841TIP3    H126938   6.095   1.940   0.026  0.1206  0.6731  0.3069
 1841TIP3    H226939   5.991   1.963   0.134 -0.4213  0.2938 -0.1281
 1842TIP3   OH226940   1.362   5.904  11.679  0.0387 -0.0728 -0.9458
 1842TIP3    H126941   1.355   5.811  11.658  0.0714  0.0274 -1.4185
 1842TIP3    H226942   1.344   5.909  11.772 -1.5811 -0.3714 -1.2196
 1843TIP3   OH226943   5.751   3.679   1.872 -0.1078  0.0867 -0.1428
 1843TIP3    H126944   5.713   3.595   1.897  1.1725 -0.7061 -0.7925
 1843TIP3    H226945   5.775   3.720   1.955 -0.8642 -0.1007  0.1848
 1844TIP3   OH226946   0.550   1.323  16.046 -0.2790 -0.4641  0.4872
 1844TIP3    H126947   0.596   1.288  16.122 -0.1083 -3.3780 -0.8512
 1844TIP3    H226948   0.595   1.287  15.971 -2.1636  0.0266 -0.9705
 1845TIP3   OH226949   0.756   2.282   0.017  0.5130  0.0949 -0.4715
 1845TIP3    H126950   0.839   2.306  -0.024  0.3760 -1.2072 -1.5719
 1845TIP3    H226951   0.689   2.313  -0.043  0.2113  0.6061  0.1177
 1846TIP3   OH226952   1.952   0.087   1.401  0.0803  0.2539  0.6127
 1846TIP3    H126953   1.885   0.098   1.468 -0.5321 -1.6451  0.3678
 1846TIP3    H226954   2.002   0.010   1.429  1.2955  0.8242  0.0782
 1847TIP3   OH226955   3.431   6.109   0.154 -0.0663 -0.9560 -0.5631
 1847TIP3    H126956   3.436   6.132   0.247  0.0322 -0.6283 -0.6478
 1847TIP3    H226957   3.403   6.190   0.111 -0.9133 -1.3211 -0.7267
 1848TIP3   OH226958   2.310   3.542  12.815 -0.0942  0.0593 -0.3086
 1848TIP3    H126959   2.271   3.465  12.856 -1.5451  1.1664  0.4578
 1848TIP3    H226960   2.351   3.590  12.886 -1.3992  1.2678 -0.3253
 1849TIP3   OH226961   1.898   4.393  12.879  0.2937 -0.5036 -0.3521
 1849TIP3    H126962   1.867   4.452  12.810  0.6496 -0.9597 -0.9173
 1849TIP3    H226963   1.822   4.379  12.934 -0.4899 -1.4693 -1.6229
 1850TIP3   OH226964   6.201   0.840   5.021 -0.3847 -0.8389 -0.5978
 1850TIP3    H126965   6.124   0.822   4.966 -0.3508 -1.3607 -0.4768
 1850TIP3    H226966   6.269   0.780   4.988  0.9832  1.6930 -2.7675
 1851TIP3   OH226967   6.045   1.405  11.964 -0.1875 -0.0795 -0.2802
 1851TIP3    H126968   5.999   1.359  12.034  0.0522 -1.1699 -0.8111
 1851TIP3    H226969   6.110   1.342  11.932 -1.0115 -0.0213 -2.1980
 1852TIP3   OH226970   6.060   4.313  15.403 -0.4491  0.8379  0.1650
 1852TIP3    H126971   6.080   4.265  15.323  0.3599  1.0069  0.2615
 1852TIP3    H226972   5.989   4.262  15.444 -1.8785  1.5382 -1.3420
 1853TIP3   OH226973   4.374   4.593   1.727  0.1087 -0.2657  0.0546
 1853TIP3    H126974   4.348   4.505   1.701 -1.1083 -0.1372  0.7459
 1853TIP3    H226975   4.426   4.626   1.654 -0.9916 -0.8653 -1.0197
 1854TIP3   OH226976   3.973   0.954  15.324  0.4921  0.0871  0.7796
 1854TIP3    H126977   3.923   0.875  15.341  1.3285 -0.1842  2.1554
 1854TIP3    H226978   3.963   0.970  15.230 -0.3044 -1.2092  0.6294
 1855TIP3   OH226979   4.591   5.698   5.345  0.2027 -0.3834  0.8364
 1855TIP3    H126980   4.507   5.744   5.340  0.5626  0.2780  0.7148
 1855TIP3    H226981   4.625   5.702   5.255  1.6386  1.8361  1.3894
 1856TIP3   OH226982   5.515   4.455  16.823 -0.3146  0.4213 -0.0858
 1856TIP3    H126983   5.467   4.380  16.858 -1.6956  1.7520  1.0009
 1856TIP3    H226984   5.605   4.443  16.853 -0.2276 -1.4044 -0.9728
 1857TIP3   OH226985   1.804   6.725  16.062 -0.2926 -0.7374  0.2067
 1857TIP3    H126986   1.858   6.722  16.140 -1.0418 -1.4963  0.7090
 1857TIP3    H226987   1.865   6.746  15.991  0.2786  0.7558  1.0831
 1858TIP3   OH226988   5.061   4.698  13.770 -0.0847  0.4003 -0.3319
 1858TIP3    H126989   4.998   4.642  13.724 -0.6353  0.2238  0.6098
 1858TIP3    H226990   5.138   4.642  13.781 -0.5291 -0.0912  0.3541
 1859TIP3   OH226991   5.354   5.879  13.688  0.6092  0.0613 -0.0588
 1859TIP3    H126992   5.275   5.929  13.666 -0.2852 -0.8261  0.9954
 1859TIP3    H226993   5.411   5.942  13.732  0.3287  0.6280 -0.4943
 1860TIP3   OH226994   0.666   6.645  14.366  0.2623  0.1244 -0.0299
 1860TIP3    H126995   0.635   6.670  14.453 -0.0097  0.0607 -0.1074
 1860TIP3    H226996   0.715   6.721  14.335  0.9836 -0.1260  0.4773
 1861TIP3   OH226997   1.322   2.615   2.828 -0.2697  0.6311 -0.1361
 1861TIP3    H126998   1.415   2.633   2.810 -0.5545  0.8321 -1.5045
 1861TIP3    H226999   1.316   2.616   2.924  1.0360  1.1204 -0.0314
 1862TIP3   OH227000   5.485   0.790  12.198 -0.0173 -0.0832  0.1999
 1862TIP3    H127001   5.525   0.778  12.112  0.2406 -1.3067  0.4604
 1862TIP3    H227002   5.470   0.884  12.205  0.5730  0.1146 -0.9043
 1863TIP3   OH227003   5.140   6.484  15.310  0.0819  0.4155  0.5697
 1863TIP3    H127004   5.226   6.505  15.272  0.7095  0.6996  2.0793
 1863TIP3    H227005   5.109   6.409  15.259  2.2941 -1.2074  1.4444
 1864TIP3   OH227006   0.904   6.348   0.564  0.1323 -0.4141  0.3882
 1864TIP3    H127007   0.880   6.441   0.562 -3.9032 -1.1913 -3.0490
 1864TIP3    H227008   0.830   6.306   0.608  0.8900 -2.1986  0.0214
 1865TIP3   OH227009   5.370   1.128  14.492  0.4697  0.3366 -0.3449
 1865TIP3    H127010   5.285   1.120  14.448 -1.8783 -2.7035  3.9507
 1865TIP3    H227011   5.368   1.215  14.532  0.4423  1.1393 -2.0110
 1866TIP3   OH227012   0.719   6.605   4.908 -0.2855  0.3231  0.3331
 1866TIP3    H127013   0.727   6.570   4.819 -1.6385  0.5168  0.1174
 1866TIP3    H227014   0.688   6.695   4.895  1.0911  0.9154  0.9573
 1867TIP3   OH227015   4.390   2.951  15.869 -0.2399 -0.4053 -0.1391
 1867TIP3    H127016   4.407   2.859  15.888 -1.4313 -0.6720 -0.2576
 1867TIP3    H227017   4.379   2.992  15.955 -1.4289 -0.7496 -0.1058
 1868TIP3   OH227018   3.919   6.011  15.915  0.1637  0.4869  0.2391
 1868TIP3    H127019   3.868   6.067  15.857  1.0853  0.6479 -0.4545
 1868TIP3    H227020   3.936   6.065  15.992 -1.2085  0.2170  0.7593
 1869TIP3   OH227021   3.633   6.565   5.982 -0.2897 -0.5984 -0.3117
 1869TIP3    H127022   3.635   6.538   5.890 -0.8045 -0.9484 -0.2199
 1869TIP3    H227023   3.721   6.543   6.014 -1.0649 -3.4800  0.1177
 1870TIP3   OH227024   4.583   0.666   3.410 -0.0915 -1.4474  0.3914
 1870TIP3    H127025   4.656   0.669   3.349  1.1893 -3.0199  1.7718
 1870TIP3    H227026   4.562   0.573   3.419 -0.6397 -1.2167  1.8518
 1871TIP3   OH227027   3.289   0.976   0.018 -0.3759 -0.5589 -0.3914
 1871TIP3    H127028   3.337   1.051   0.053 -2.1305  0.8929 -0.9507
 1871TIP3    H227029   3.331   0.957  -0.066  0.3802 -0.5438 -0.0277
 1872TIP3   OH227030   5.489   6.304  12.029  0.3364  0.0516  0.5697
 1872TIP3    H127031   5.434   6.352  11.968  2.5953  1.6841 -0.3391
 1872TIP3    H227032   5.521   6.228  11.980  0.7026  0.3702  0.3084
 1873TIP3   OH227033   2.652   4.763  11.200  0.0379 -0.3457 -0.2906
 1873TIP3    H127034   2.600   4.696  11.155 -2.3932 -0.7358  2.7691
 1873TIP3    H227035   2.702   4.714  11.266  1.0445  0.5459 -0.3582
 1874TIP3   OH227036   3.163   6.635   0.387 -0.3793 -0.3251  0.0292
 1874TIP3    H127037   3.236   6.601   0.440 -0.9052 -1.5227  0.0130
 1874TIP3    H227038   3.145   6.566   0.324 -1.4584  0.0142 -0.0498
 1875TIP3   OH227039   4.139   3.166  15.183 -0.4895  0.4338 -0.7043
 1875TIP3    H127040   4.195   3.129  15.114  0.7590 -4.0586  2.2738
 1875TIP3    H227041   4.053   3.127  15.168 -0.7131  0.9044 -0.6871
 1876TIP3   OH227042   6.009   0.070  12.186  0.4295 -0.4478 -0.0686
 1876TIP3    H127043   5.925   0.029  12.209 -0.8978  1.0716 -1.8332
 1876TIP3    H227044   6.057   0.001  12.140 -0.2067 -1.1083  0.2355
 1877TIP3   OH227045   5.725   0.249   6.030  0.3100 -0.1102  0.8597
 1877TIP3    H127046   5.724   0.263   6.125 -0.1181  1.2717  0.6812
 1877TIP3    H227047   5.816   0.225   6.011  1.0020  1.9085  1.3513
 1878TIP3   OH227048   1.618   1.743  14.976 -0.5859  0.4300 -0.4621
 1878TIP3    H127049   1.652   1.833  14.972  1.4088 -0.2981 -1.4231
 1878TIP3    H227050   1.677   1.698  15.036 -1.9762 -0.1002  0.5411
 1879TIP3   OH227051   3.513   6.422  12.666 -0.2053  0.0893 -0.3068
 1879TIP3    H127052   3.446   6.479  12.628  0.4266  0.7545 -0.4599
 1879TIP3    H227053   3.561   6.388  12.590 -1.2878 -1.5738 -0.2821
 1880TIP3   OH227054   6.219   2.442   2.721  0.5834 -0.4002  0.1012
 1880TIP3    H127055   6.290   2.461   2.783  2.1373 -0.0600 -1.7008
 1880TIP3    H227056   6.213   2.346   2.722  0.8286 -0.4176  0.5124
 1881TIP3   OH227057   6.142   4.083  16.149 -0.0512 -0.5809  0.7321
 1881TIP3    H127058   6.062   4.118  16.187  0.3327 -0.0875  1.1082
 1881TIP3    H227059   6.212   4.138  16.185  0.3199  0.0474 -0.8466
 1882TIP3   OH227060   1.270   5.810  14.215 -0.4546  0.1331  0.5609
 1882TIP3    H127061   1.234   5.871  14.280 -0.3257 -0.6887  1.4286
 1882TIP3    H227062   1.193   5.764  14.180 -0.5960  1.0633 -0.4066
 1883TIP3   OH227063   4.040   2.034  16.391 -0.1744  0.3948  0.3277
 1883TIP3    H127064   3.962   2.045  16.445  0.0101 -0.0506  0.6909
 1883TIP3    H227065   4.073   1.947  16.414  1.2675  1.1507  1.2947
 1884TIP3   OH227066   3.319   0.625  11.770 -0.1574 -0.6581  0.1416
 1884TIP3    H127067   3.322   0.692  11.702  1.3970 -0.2060  0.6163
 1884TIP3    H227068   3.406   0.627  11.810  0.6508 -4.2187 -1.0362
 1885TIP3   OH227069   4.590   0.589  11.880 -0.1818 -0.6687 -0.0880
 1885TIP3    H127070   4.525   0.603  11.949 -0.9331 -1.4019 -0.6272
 1885TIP3    H227071   4.654   0.660  11.892  0.0229 -1.1095  1.7179
 1886TIP3   OH227072   4.292   0.765  11.832 -0.1146  0.1583 -0.0240
 1886TIP3    H127073   4.307   0.671  11.829  0.8844  0.2902  0.3671
 1886TIP3    H227074   4.371   0.803  11.794 -0.5172  0.8357 -0.1944
 1887TIP3   OH227075   3.371   0.814   2.087  0.3162 -0.5056  0.1928
 1887TIP3    H127076   3.362   0.719   2.072  1.6304 -0.7916  1.0676
 1887TIP3    H227077   3.290   0.851   2.053  1.3916 -1.4763 -4.0273
 1888TIP3   OH227078   2.080   4.578   5.118  0.4032 -0.3845  0.7268
 1888TIP3    H127079   2.086   4.601   5.211 -0.3091  0.4367  0.5868
 1888TIP3    H227080   2.037   4.653   5.078  0.2450 -0.9496 -0.1901
 1889TIP3   OH227081   0.185   4.035   2.211 -0.4183 -0.0714 -0.4788
 1889TIP3    H127082   0.157   4.014   2.122 -1.2774 -3.5091  0.4208
 1889TIP3    H227083   0.104   4.056   2.257 -0.3353 -0.7717  0.0095
 1890TIP3   OH227084   3.414   1.435   2.092  0.4138  0.5497 -0.8199
 1890TIP3    H127085   3.493   1.421   2.040  0.3479 -0.8058 -0.5909
 1890TIP3    H227086   3.393   1.349   2.128 -1.2450  0.8494 -0.9763
 1891TIP3   OH227087   0.982   2.268   2.014 -0.4073 -0.0492  0.5217
 1891TIP3    H127088   1.042   2.341   1.996 -0.8762  0.9847  2.7972
 1891TIP3    H227089   1.037   2.204   2.060 -0.2729 -0.6708 -0.4656
 1892TIP3   OH227090   1.853   5.603   3.175  0.2319 -0.2172 -0.2080
 1892TIP3    H127091   1.883   5.559   3.254 -2.1372 -0.3588  0.7149
 1892TIP3    H227092   1.924   5.593   3.113  2.4797  0.4917  2.0988
 1893TIP3   OH227093   5.436   0.150  12.358  0.3887  0.0463  0.1179
 1893TIP3    H127094   5.503   0.158  12.290  0.3499  2.3257  0.2573
 1893TIP3    H227095   5.353   0.156  12.311  0.3337  0.2410  0.2397
 1894TIP3   OH227096   2.696   2.618   1.232 -0.2080 -0.1523 -0.7365
 1894TIP3    H127097   2.770   2.676   1.211 -0.3120 -0.1560 -1.1241
 1894TIP3    H227098   2.632   2.674   1.274 -0.6605  0.2030 -1.8680
 1895TIP3   OH227099   2.797   2.891  13.385  0.4264 -0.1927  0.2044
 1895TIP3    H127100   2.780   2.984  13.372 -0.5222 -0.5774 -1.6625
 1895TIP3    H227101   2.728   2.863  13.445  0.2104  0.1450  0.1185
 1896TIP3   OH227102   2.745   2.764  15.511 -0.6215 -0.5481  0.7478
 1896TIP3    H127103   2.707   2.831  15.453 -0.8542 -0.7867  0.6238
 1896TIP3    H227104   2.670   2.718  15.547 -0.4385 -1.7953 -0.4036
 1897TIP3   OH227105   0.269   3.063  17.175 -0.1032  0.2123  0.1838
 1897TIP3    H127106   0.197   3.014  17.135 -0.2525  2.4643 -2.6520
 1897TIP3    H227107   0.329   2.996  17.207 -0.5144 -1.8636 -3.0022
 1898TIP3   OH227108   5.565   4.532   5.849 -0.4083  0.3624 -0.1921
 1898TIP3    H127109   5.650   4.489   5.857 -1.0607 -0.8971  0.2151
 1898TIP3    H227110   5.580   4.604   5.787  1.0095  0.3614  0.1152
 1899TIP3   OH227111   5.666   0.966   0.330 -0.0852 -0.0395 -0.1762
 1899TIP3    H127112   5.683   0.891   0.388  2.7456  0.3333 -0.3598
 1899TIP3    H227113   5.632   0.927   0.250  0.3506 -1.0334  0.1022
 1900TIP3   OH227114   1.726   3.749  16.262 -0.1905 -0.5853 -0.1985
 1900TIP3    H127115   1.768   3.754  16.348  0.8745  0.4219 -0.7471
 1900TIP3    H227116   1.789   3.704  16.207  0.1045  0.7628 -0.9928
 1901TIP3   OH227117   4.701   4.497   4.602  0.5250 -0.1106 -0.0004
 1901TIP3    H127118   4.643   4.442   4.551 -0.0703  0.8905 -0.4369
 1901TIP3    H227119   4.680   4.586   4.574  1.2700  0.3562  0.8758
 1902TIP3   OH227120   6.334   1.420  14.238  0.6161 -0.3343 -0.2952
 1902TIP3    H127121   6.279   1.406  14.315  1.2073 -1.9919 -0.1543
 1902TIP3    H227122   6.276   1.464  14.176  0.5898  2.6222  1.6258
 1903TIP3   OH227123   1.815   6.417   4.416 -1.0203  0.0770  0.2144
 1903TIP3    H127124   1.910   6.418   4.426 -1.0290 -0.8048  0.4430
 1903TIP3    H227125   1.797   6.487   4.353 -0.0030 -1.2456 -1.6684
 1904TIP3   OH227126   5.969   3.945  16.346  0.5651 -0.5245  0.2253
 1904TIP3    H127127   5.954   4.034  16.379  0.9354 -0.9606  1.5956
 1904TIP3    H227128   5.918   3.941  16.265 -0.3680  0.5718  0.7343
 1905TIP3   OH227129   0.987   3.689  14.432 -0.4220  0.0697  0.0649
 1905TIP3    H127130   0.994   3.772  14.480  2.2875  0.5541 -1.0437
 1905TIP3    H227131   1.045   3.629  14.479 -1.4717 -0.9045  0.1674
 1906TIP3   OH227132   0.452   5.174   3.708  0.1279 -0.3313 -0.0429
 1906TIP3    H127133   0.376   5.195   3.763 -1.4109 -0.1777 -2.1057
 1906TIP3    H227134   0.493   5.258   3.690  1.4600 -0.4946  1.8525
 1907TIP3   OH227135   4.629   2.221   1.859  0.1230  0.2209 -0.3266
 1907TIP3    H127136   4.704   2.163   1.870  0.0577 -0.0131 -1.0286
 1907TIP3    H227137   4.589   2.193   1.776 -0.8253  0.2502  0.1100
 1908TIP3   OH227138   1.600   0.570  15.182 -0.3837  0.6188 -0.5692
 1908TIP3    H127139   1.520   0.589  15.231 -0.2536 -1.2688  0.4611
 1908TIP3    H227140   1.596   0.476  15.166  1.7550  0.4457 -0.2906
 1909TIP3   OH227141   3.053   3.256   4.221 -0.1998  0.2368 -0.1180
 1909TIP3    H127142   2.964   3.284   4.202 -0.9273 -0.6240  1.8048
 1909TIP3    H227143   3.044   3.166   4.252  1.3527  0.0883 -0.0075
 1910TIP3   OH227144   1.363   0.625  15.553 -0.3809 -0.5155  0.3083
 1910TIP3    H127145   1.376   0.600  15.462  1.2422  1.2491  0.0075
 1910TIP3    H227146   1.298   0.695  15.550  0.7410  0.5647  0.3017
 1911TIP3   OH227147   2.794   1.166  15.142 -0.0476 -0.6825  0.1699
 1911TIP3    H127148   2.856   1.228  15.104  0.0813 -0.4981  0.6772
 1911TIP3    H227149   2.798   1.090  15.083 -0.0730 -0.2892 -0.3534
 1912TIP3   OH227150   5.796   5.741  11.895  0.1319  0.4124  0.3125
 1912TIP3    H127151   5.782   5.759  11.988  2.3019  0.2312  0.7414
 1912TIP3    H227152   5.884   5.704  11.891 -0.5514 -1.1974 -1.6413
 1913TIP3   OH227153   4.297   5.052   3.018 -0.3320  0.6208  0.5001
 1913TIP3    H127154   4.367   5.113   3.041  0.4121  0.2191 -0.6321
 1913TIP3    H227155   4.217   5.094   3.051  0.3164  1.5820  0.8835
 1914TIP3   OH227156   4.506   4.665   1.491  0.0866  0.3283  0.4275
 1914TIP3    H127157   4.457   4.628   1.417 -0.8777 -1.7608  1.9994
 1914TIP3    H227158   4.597   4.642   1.474 -0.0354  0.4142 -0.3932
 1915TIP3   OH227159   2.698   0.762  13.246  0.0472  0.2850 -0.0235
 1915TIP3    H127160   2.609   0.784  13.277 -0.1325 -1.8506  1.1591
 1915TIP3    H227161   2.751   0.836  13.274 -1.1441  1.0333  0.3623
 1916TIP3   OH227162   3.860   1.446   3.739 -0.0115  0.0154  0.3111
 1916TIP3    H127163   3.915   1.464   3.663  0.7517  2.4470  1.3255
 1916TIP3    H227164   3.771   1.460   3.709  0.2196  0.1019 -0.3398
 1917TIP3   OH227165   3.285   6.426  10.094 -0.1473 -0.1367  0.3491
 1917TIP3    H127166   3.217   6.472  10.045  0.4587  0.5578  0.1461
 1917TIP3    H227167   3.282   6.463  10.182  0.2615  0.2258  0.2170
 1918TIP3   OH227168   6.313   1.794  15.474  0.2417 -0.1490 -0.1580
 1918TIP3    H127169   6.298   1.708  15.436  1.1551  0.1392 -1.2176
 1918TIP3    H227170   6.405   1.792  15.503  0.0876  0.2588  0.3723
 1919TIP3   OH227171   6.419   4.347  13.585  0.0051 -0.0706  0.5710
 1919TIP3    H127172   6.350   4.394  13.539  0.4869  0.0382 -0.0434
 1919TIP3    H227173   6.372   4.282  13.638 -0.5308 -0.4841 -0.3938
 1920TIP3   OH227174   2.287   4.906  14.564 -0.0298 -0.2289  0.3159
 1920TIP3    H127175   2.237   4.834  14.526 -1.7484 -1.0027  3.6227
 1920TIP3    H227176   2.229   4.982  14.553  0.8507  0.2604 -1.2606
 1921TIP3   OH227177   1.024   4.248   1.937 -0.1670 -0.0435 -0.4872
 1921TIP3    H127178   1.096   4.305   1.963 -0.3320 -0.7444  1.7315
 1921TIP3    H227179   1.027   4.247   1.842  2.1585  0.6919 -0.4804
 1922TIP3   OH227180   1.863   0.411   4.285  0.2736 -0.0885 -0.3295
 1922TIP3    H127181   1.827   0.338   4.234 -0.4511 -0.7791  1.1258
 1922TIP3    H227182   1.958   0.396   4.283  0.3133  0.1896 -1.8680
 1923TIP3   OH227183   0.658   4.777  15.436  0.1865 -0.1276 -0.1918
 1923TIP3    H127184   0.666   4.872  15.424 -1.4353 -0.0352 -0.8159
 1923TIP3    H227185   0.655   4.741  15.348 -0.3720 -0.6389  0.0266
 1924TIP3   OH227186   2.838   2.083   3.816  0.2698  0.1566 -0.0805
 1924TIP3    H127187   2.772   2.074   3.885  0.5500  1.0078  0.3157
 1924TIP3    H227188   2.922   2.069   3.861  0.3705 -1.1778 -0.6288
 1925TIP3   OH227189   0.773   4.336  15.004  0.0576 -0.0088  0.0079
 1925TIP3    H127190   0.813   4.396  14.942 -1.0681  1.7645  0.9048
 1925TIP3    H227191   0.815   4.356  15.088 -0.3815 -0.4269  0.3391
 1926TIP3   OH227192   2.600   6.022  15.270  0.3032  0.0281  0.1718
 1926TIP3    H127193   2.686   6.016  15.312  1.0866 -1.6284 -1.5057
 1926TIP3    H227194   2.541   6.050  15.339  2.0473  0.3770  1.5852
 1927TIP3   OH227195   6.714   3.496   2.012  0.6580 -0.7423 -0.4531
 1927TIP3    H127196   6.722   3.512   2.106 -0.9518 -0.7675 -0.2845
 1927TIP3    H227197   6.773   3.560   1.972  1.3712 -0.7417  0.5617
 1928TIP3   OH227198   3.202   6.636  14.448  0.8554  0.1150  0.4118
 1928TIP3    H127199   3.172   6.686  14.373  0.6669 -0.4894  0.0820
 1928TIP3    H227200   3.215   6.702  14.517  1.8793  0.7834 -0.4012
 1929TIP3   OH227201   2.421   6.216  11.581 -0.0805 -0.4948 -0.1937
 1929TIP3    H127202   2.428   6.302  11.622  0.8148  0.1791 -1.6672
 1929TIP3    H227203   2.327   6.204  11.568 -0.2045  0.3633 -0.1817
 1930TIP3   OH227204   4.003   4.700   2.145 -0.0637 -0.1286 -0.8322
 1930TIP3    H127205   3.982   4.609   2.167  0.3238  0.1152  0.6945
 1930TIP3    H227206   4.055   4.694   2.065  1.8590 -1.4818  0.4126
 1931TIP3   OH227207   4.257   3.550  16.998 -0.0616 -0.0743 -0.0005
 1931TIP3    H127208   4.342   3.553  17.042  0.0904 -0.3077 -0.2721
 1931TIP3    H227209   4.253   3.462  16.960 -0.7225 -0.3114  0.5924
 1932TIP3   OH227210   6.546   4.924  15.669 -0.2318 -0.4375  0.0423
 1932TIP3    H127211   6.600   4.886  15.600  0.2546  0.1203  0.1068
 1932TIP3    H227212   6.529   4.851  15.729  0.2615 -0.6739 -0.1006
 1933TIP3   OH227213   3.588   2.222   6.006  0.2643  0.0441 -0.6218
 1933TIP3    H127214   3.647   2.168   6.059  1.6922 -0.5714 -2.6976
 1933TIP3    H227215   3.596   2.186   5.918 -1.1304  1.7319 -1.4958
 1934TIP3   OH227216   3.314   4.747  15.161 -0.5092  0.7600 -0.2648
 1934TIP3    H127217   3.283   4.706  15.241  1.4767 -2.3303 -0.9246
 1934TIP3    H227218   3.256   4.823  15.150 -4.2553 -1.5435  1.2973
 1935TIP3   OH227219   1.976   5.287   2.932  0.5060  0.0052  0.1813
 1935TIP3    H127220   2.059   5.334   2.942  0.0247  0.9267 -0.0581
 1935TIP3    H227221   1.996   5.216   2.870  1.6462 -1.1590  1.7830
 1936TIP3   OH227222   0.136   6.104   1.217 -0.3135 -1.0074 -0.7680
 1936TIP3    H127223   0.104   6.057   1.140 -0.8930 -1.8775 -0.0213
 1936TIP3    H227224   0.100   6.192   1.209  0.2963 -0.8430 -1.8891
 1937TIP3   OH227225   1.392   5.466   0.173 -0.0278 -0.4595  0.2037
 1937TIP3    H127226   1.450   5.525   0.222  0.1614 -0.6311  0.1892
 1937TIP3    H227227   1.323   5.443   0.235  0.8091 -1.5609  0.7594
 1938TIP3   OH227228   1.834   3.775  16.550  0.4528  0.0402  0.0022
 1938TIP3    H127229   1.742   3.774  16.576  0.6492 -1.1783  0.7337
 1938TIP3    H227230   1.874   3.842  16.606  0.2448 -0.3085  0.5785
 1939TIP3   OH227231   1.296   4.699  11.177  0.0844 -0.0493 -0.4553
 1939TIP3    H127232   1.341   4.637  11.234 -0.5677 -0.2588 -0.1461
 1939TIP3    H227233   1.229   4.647  11.133  0.9402 -0.0072 -1.8593
 1940TIP3   OH227234   3.844   5.398   3.658 -0.0154 -0.0793  0.1055
 1940TIP3    H127235   3.802   5.325   3.704  0.8480  0.1182  1.2562
 1940TIP3    H227236   3.797   5.476   3.687  0.5697  0.0528  0.7218
 1941TIP3   OH227237   5.496   0.816  15.125 -0.5226 -0.0093 -0.1749
 1941TIP3    H127238   5.529   0.904  15.144  1.3235 -0.6687 -0.0675
 1941TIP3    H227239   5.484   0.815  15.030 -1.2893  0.5779 -0.0929
 1942TIP3   OH227240   5.804   0.140   4.986 -0.5628 -0.3854  0.2627
 1942TIP3    H127241   5.716   0.166   4.958 -0.2137 -1.3266 -1.9195
 1942TIP3    H227242   5.814   0.179   5.073 -1.9289  2.4164 -0.7143
 1943TIP3   OH227243   3.656   5.986  15.715 -0.3941  0.5464 -0.8587
 1943TIP3    H127244   3.695   6.074  15.718  0.8984 -0.0345  0.7419
 1943TIP3    H227245   3.720   5.933  15.669 -0.6975  0.2091 -0.8960
 1944TIP3   OH227246   2.091   2.963   2.419 -0.1242 -0.3347  0.6498
 1944TIP3    H127247   2.130   2.987   2.502 -0.2035  0.0893  0.5716
 1944TIP3    H227248   2.009   2.919   2.442  0.3097 -1.0735  0.8077
 1945TIP3   OH227249   3.453   2.021  16.368 -0.0835  0.0391  0.3791
 1945TIP3    H127250   3.414   2.055  16.448 -1.7680  2.2111 -1.2521
 1945TIP3    H227251   3.501   2.095  16.331 -1.8269  0.0732 -2.0716
 1946TIP3   OH227252   0.004   4.044   1.971 -0.4681 -0.1720  0.5393
 1946TIP3    H127253  -0.080   4.051   2.018 -0.7702 -0.8845  0.1181
 1946TIP3    H227254  -0.021   4.027   1.880  0.0768  2.6560 -0.2175
 1947TIP3   OH227255   4.837   2.495   3.367 -0.3921 -0.5465 -0.0193
 1947TIP3    H127256   4.926   2.530   3.359  0.2205 -1.9702  0.4436
 1947TIP3    H227257   4.797   2.545   3.438 -0.0189  0.1715 -0.3040
 1948TIP3   OH227258   3.070   2.383   3.100 -0.3871  0.1176 -0.0413
 1948TIP3    H127259   3.040   2.343   3.017  1.0998 -2.1709  0.4175
 1948TIP3    H227260   3.086   2.308   3.157  3.6502  1.2472  0.5775
 1949TIP3   OH227261   2.786   5.227  16.248  0.3110 -0.6645 -0.6445
 1949TIP3    H127262   2.865   5.184  16.283  0.7428  0.9792  0.5379
 1949TIP3    H227263   2.719   5.212  16.315  0.6176  0.8830  0.0603
 1950TIP3   OH227264   3.067   2.126   3.211 -0.1787 -0.6466 -0.3951
 1950TIP3    H127265   3.094   2.066   3.281  0.1780 -0.1574 -0.1105
 1950TIP3    H227266   2.972   2.114   3.205 -0.0970 -1.3515 -0.4474
 1951TIP3   OH227267   4.982   1.835  13.715 -0.1982 -0.2055  0.0449
 1951TIP3    H127268   4.970   1.906  13.778  0.9812 -1.0474  1.2865
 1951TIP3    H227269   4.894   1.801  13.698 -0.6955  1.1056 -0.0597
 1952TIP3   OH227270   1.107   3.107   6.196  0.3575 -0.0016 -0.1218
 1952TIP3    H127271   1.190   3.122   6.241  1.1587  0.8682 -1.8063
 1952TIP3    H227272   1.121   3.026   6.147 -0.1104 -0.3315  0.2834
 1953TIP3   OH227273   2.099   5.135   2.665 -0.1454 -0.4866  0.1039
 1953TIP3    H127274   2.125   5.135   2.573  1.1389  0.1137  0.4544
 1953TIP3    H227275   2.142   5.058   2.702 -2.0867 -1.7513 -0.1598
 1954TIP3   OH227276   4.060   2.104   1.372  0.0025 -0.2332 -0.0163
 1954TIP3    H127277   3.988   2.050   1.403  0.1319 -0.7341 -0.5655
 1954TIP3    H227278   4.136   2.074   1.422  0.0776 -0.5738 -0.3342
 1955TIP3   OH227279   3.919   1.554  17.112  0.1887  0.3334 -0.0240
 1955TIP3    H127280   3.870   1.589  17.038  0.6061  0.4707 -0.2438
 1955TIP3    H227281   3.873   1.475  17.137 -0.0481  0.3725 -0.3292
 1956TIP3   OH227282   6.535   5.941   3.259 -0.5146 -0.1545 -0.0485
 1956TIP3    H127283   6.524   5.850   3.288  1.1954 -0.9713 -1.7386
 1956TIP3    H227284   6.536   5.936   3.164  2.1563  1.2399 -0.1798
 1957TIP3   OH227285   3.869   1.539  10.928  0.1437  0.3818 -0.4329
 1957TIP3    H127286   3.932   1.576  10.990  1.0859 -0.1912 -1.0119
 1957TIP3    H227287   3.922   1.519  10.850 -1.0507  1.3170 -1.5186
 1958TIP3   OH227288   1.722   1.216  17.057  0.5768 -0.3608  0.4490
 1958TIP3    H127289   1.712   1.124  17.031 -1.6280  0.0780 -0.4599
 1958TIP3    H227290   1.758   1.212  17.145  2.0925 -2.0456 -0.1854
 1959TIP3   OH227291   0.624   1.662  12.808  0.4704 -0.2174  0.1557
 1959TIP3    H127292   0.618   1.567  12.814 -1.4078 -0.3473 -2.3123
 1959TIP3    H227293   0.627   1.691  12.899 -0.6604 -2.5569  1.0272
 1960TIP3   OH227294   3.547   4.687   5.132  0.1182  0.2753 -0.1854
 1960TIP3    H127295   3.498   4.657   5.208  1.4844  1.2645  1.1579
 1960TIP3    H227296   3.597   4.611   5.103 -0.7201 -0.2136 -0.3790
 1961TIP3   OH227297   0.260   3.144  14.080 -0.4793  0.5173  0.1103
 1961TIP3    H127298   0.260   3.085  14.004  0.7688  0.1341  0.3853
 1961TIP3    H227299   0.210   3.220  14.051 -0.3722  0.1970 -0.9619
 1962TIP3   OH227300   3.090   0.103  16.440  0.0427 -0.2021 -0.3198
 1962TIP3    H127301   3.171   0.091  16.489 -0.2998 -0.1667  0.2598
 1962TIP3    H227302   3.113   0.167  16.372  0.6542 -0.6435 -0.5430
 1963TIP3   OH227303   4.288   2.426   0.688 -0.1110 -0.2115 -0.5553
 1963TIP3    H127304   4.240   2.343   0.677 -1.3679  0.3026  0.6975
 1963TIP3    H227305   4.221   2.493   0.674  1.0092  0.6381 -2.0832
 1964TIP3   OH227306   3.296   6.722   2.310 -0.1533  0.5025  0.7465
 1964TIP3    H127307   3.226   6.657   2.305 -0.0006  0.1482  2.6020
 1964TIP3    H227308   3.367   6.685   2.258 -1.3204  0.9206 -1.2675
 1965TIP3   OH227309   0.049   5.913   3.612  0.6849 -0.0991  0.8564
 1965TIP3    H127310   0.111   5.978   3.646  2.5124 -1.8770  1.1209
 1965TIP3    H227311   0.063   5.914   3.518  1.7755 -1.0520  0.9785
 1966TIP3   OH227312   5.497   1.663  15.275  0.0637 -0.5138  0.0434
 1966TIP3    H127313   5.554   1.693  15.345 -1.8992  0.8754  1.1557
 1966TIP3    H227314   5.473   1.573  15.300 -1.3982  0.2937  1.7639
 1967TIP3   OH227315   4.827   3.555   1.900  0.4609  0.5464  0.2209
 1967TIP3    H127316   4.918   3.534   1.878  0.3465  0.2262  0.0487
 1967TIP3    H227317   4.775   3.500   1.840  0.1561  1.5916 -0.4926
 1968TIP3   OH227318   6.190   0.546  11.481 -0.2852 -0.2516 -0.0832
 1968TIP3    H127319   6.192   0.573  11.573 -0.3122  0.5522 -0.3140
 1968TIP3    H227320   6.105   0.503  11.471 -0.8343  0.7944 -0.0415
 1969TIP3   OH227321   2.793   1.672  15.556 -0.2149  0.3066 -0.6849
 1969TIP3    H127322   2.824   1.600  15.501  0.8837  1.0458 -1.0662
 1969TIP3    H227323   2.732   1.720  15.501 -3.9238 -2.3490  0.7319
 1970TIP3   OH227324   6.762   5.397   5.565 -0.5810  0.9766  0.0638
 1970TIP3    H127325   6.739   5.434   5.651 -0.9735 -0.4593  0.6004
 1970TIP3    H227326   6.683   5.405   5.513 -0.8170  0.4687  0.3375
 1971TIP3   OH227327   1.585   1.498  16.465  0.7279  0.4481  0.1506
 1971TIP3    H127328   1.629   1.429  16.415  1.6565 -0.0212  1.5419
 1971TIP3    H227329   1.637   1.577  16.449  1.2128  0.2283  0.5988
 1972TIP3   OH227330   5.260   0.812   5.174  0.9750 -0.1092 -0.5620
 1972TIP3    H127331   5.206   0.889   5.195  1.0514 -0.1384 -0.2545
 1972TIP3    H227332   5.250   0.801   5.080  2.3626  1.3460 -0.9208
 1973TIP3   OH227333   0.551   0.209   0.711 -0.3107 -0.4246  0.2812
 1973TIP3    H127334   0.517   0.167   0.632 -0.4690 -0.5629  0.4230
 1973TIP3    H227335   0.563   0.301   0.686  1.4316 -0.8062 -0.4940
 1974TIP3   OH227336   6.077   6.379   1.518  0.0095 -0.0819 -0.3921
 1974TIP3    H127337   6.141   6.445   1.544  2.2026 -2.2390  0.0401
 1974TIP3    H227338   6.061   6.395   1.425 -0.2268  1.5658 -0.0951
 1975TIP3   OH227339   5.964   0.405  14.259 -0.2706 -0.0527  0.4445
 1975TIP3    H127340   5.962   0.374  14.350 -2.6070  1.0092  0.8323
 1975TIP3    H227341   5.944   0.499  14.265  0.3544  0.2225 -1.1418
 1976TIP3   OH227342   1.016   3.555   6.291  0.0407  0.3652 -0.4141
 1976TIP3    H127343   1.039   3.635   6.338 -0.0866  1.3327 -1.9261
 1976TIP3    H227344   0.927   3.536   6.318 -0.6065  1.8076 -1.3880
 1977TIP3   OH227345   0.317   4.226  15.309  0.0503 -0.0327  0.1654
 1977TIP3    H127346   0.311   4.201  15.217 -1.9783  0.6811  0.0594
 1977TIP3    H227347   0.228   4.218  15.343 -0.0800  3.3530  1.0384
 1978TIP3   OH227348   2.907   3.886  13.080 -0.3194  0.0782  0.1022
 1978TIP3    H127349   2.898   3.848  12.992 -1.0888  3.6749 -1.5950
 1978TIP3    H227350   2.999   3.909  13.087 -0.4662  0.8242 -0.2975
 1979TIP3   OH227351   5.535   4.004   4.506 -0.4014 -0.4592  0.0298
 1979TIP3    H127352   5.564   4.028   4.594  2.4197 -1.5746 -0.4700
 1979TIP3    H227353   5.582   4.063   4.448  0.9337 -2.2639 -0.8432
 1980TIP3   OH227354   3.215   4.606  10.970 -0.4214  0.2716  0.1562
 1980TIP3    H127355   3.156   4.663  11.019 -0.2124 -1.2291  2.3208
 1980TIP3    H227356   3.162   4.530  10.947  0.3324 -0.5818  1.1334
 1981TIP3   OH227357   3.229   6.748  10.117  0.5088  0.6143  0.8719
 1981TIP3    H127358   3.276   6.714  10.193  0.9737  0.3716  0.4810
 1981TIP3    H227359   3.270   6.833  10.099  2.7860 -0.7977 -1.1892
 1982TIP3   OH227360   5.564   0.237  10.533 -0.3983  0.0968 -0.2669
 1982TIP3    H127361   5.534   0.157  10.576  0.0301  1.2313  2.2795
 1982TIP3    H227362   5.651   0.214  10.500 -0.1102 -0.3862  0.7966
 1983TIP3   OH227363   0.882   2.120   5.350 -0.1809  0.2464  0.1484
 1983TIP3    H127364   0.876   2.179   5.275  1.3134  0.0077 -0.1956
 1983TIP3    H227365   0.938   2.165   5.413  0.2845 -0.4291  0.2350
 1984TIP3   OH227366   3.175   1.826  14.480  0.2325  0.0587 -0.1683
 1984TIP3    H127367   3.083   1.850  14.482 -0.0304 -0.8834  2.2067
 1984TIP3    H227368   3.209   1.855  14.564  1.8831 -0.4847 -0.6081
 1985TIP3   OH227369   5.035   0.929  12.791 -0.1682 -0.3527  0.5633
 1985TIP3    H127370   4.944   0.911  12.765  0.1278 -0.8349 -0.1804
 1985TIP3    H227371   5.055   0.862  12.857 -0.4768  0.0042  1.0235
 1986TIP3   OH227372   0.341   2.969  11.868  0.3536  0.1695  0.1931
 1986TIP3    H127373   0.424   2.980  11.821 -0.1288 -2.8455 -1.5827
 1986TIP3    H227374   0.306   2.886  11.837 -3.5213  1.4276  0.7120
 1987TIP3   OH227375   4.336   1.118  12.909 -0.0765 -0.6005  0.0707
 1987TIP3    H127376   4.430   1.124  12.893  0.1671 -0.2384  1.4973
 1987TIP3    H227377   4.301   1.201  12.876  0.1917 -0.4884  0.0651
 1988TIP3   OH227378   1.100   6.076   2.383 -0.4021 -0.2918 -0.3779
 1988TIP3    H127379   1.180   6.025   2.397 -0.5146 -0.3004  0.2575
 1988TIP3    H227380   1.125   6.140   2.316  0.2500 -0.0565  0.0759
 1989TIP3   OH227381   0.768   0.351  16.445  0.6361  0.5334 -0.6231
 1989TIP3    H127382   0.720   0.300  16.510 -0.7343  0.4797 -1.6291
 1989TIP3    H227383   0.779   0.291  16.371 -0.0618  1.3443 -1.4105
 1990TIP3   OH227384   2.135   3.450  13.737  0.5174 -0.3805 -0.1723
 1990TIP3    H127385   2.205   3.453  13.673 -0.7570 -1.1770 -1.6641
 1990TIP3    H227386   2.075   3.520  13.711 -0.4284 -1.2420 -0.3720
 1991TIP3   OH227387   1.929   6.076   0.680 -0.5410  0.0418 -0.3471
 1991TIP3    H127388   1.963   6.151   0.728 -0.3157  0.3441 -0.9601
 1991TIP3    H227389   1.841   6.101   0.653  0.4735  1.2354 -2.8940
 1992TIP3   OH227390   6.204   4.684  15.724 -0.2335 -0.1446 -0.1315
 1992TIP3    H127391   6.246   4.599  15.736  0.0382 -0.0481 -0.3976
 1992TIP3    H227392   6.216   4.704  15.631  1.2122  0.9759  0.2748
 1993TIP3   OH227393   5.942   0.540  15.940  0.0200 -0.0773 -0.4596
 1993TIP3    H127394   5.957   0.609  16.006 -1.1660 -1.1761  1.0422
 1993TIP3    H227395   5.955   0.458  15.988  1.2992 -0.9436 -2.1842
 1994TIP3   OH227396   6.302   3.082   0.711 -0.2311  0.0250  0.1534
 1994TIP3    H127397   6.235   3.025   0.672 -1.1033 -0.1066  1.7578
 1994TIP3    H227398   6.352   3.024   0.768 -0.3077  0.6002  0.8181
 1995TIP3   OH227399   4.142   0.680  16.009  0.7297  0.3011 -0.1759
 1995TIP3    H127400   4.212   0.616  15.996  0.0281 -0.4451 -0.3205
 1995TIP3    H227401   4.070   0.630  16.046  0.0116  0.9208 -0.7078
 1996TIP3   OH227402   1.453   2.530   0.376  0.4133  0.2184 -0.1087
 1996TIP3    H127403   1.419   2.610   0.336  2.1550  1.1854  0.2472
 1996TIP3    H227404   1.384   2.465   0.362 -0.9835  1.7295 -0.5440
 1997TIP3   OH227405   3.629   6.499   0.464 -0.6523  0.3688 -0.3069
 1997TIP3    H127406   3.711   6.506   0.416  0.2558 -1.1289  0.9088
 1997TIP3    H227407   3.590   6.586   0.458  0.4466  0.8008 -1.8841
 1998TIP3   OH227408   4.260   0.990   5.812  0.1833  0.0527 -0.0344
 1998TIP3    H127409   4.276   0.956   5.900 -0.4731  1.7968  0.8002
 1998TIP3    H227410   4.340   1.035   5.788  0.2995 -0.2741 -0.2685
 1999TIP3   OH227411   1.841   0.062   2.353  0.6731  0.3021  0.1766
 1999TIP3    H127412   1.787   0.044   2.430  0.2530 -0.4484 -0.2703
 1999TIP3    H227413   1.787   0.032   2.279  0.1754  2.8864 -0.6181
 2000TIP3   OH227414   4.453   5.950  13.849  0.4714  0.7460 -0.6070
 2000TIP3    H127415   4.542   5.917  13.864 -0.2877 -1.3547 -0.3467
 2000TIP3    H227416   4.398   5.899  13.908 -0.6633  4.0071  1.4017
 2001TIP3   OH227417   4.037   2.663  15.850  0.0239  0.8552  0.1082
 2001TIP3    H127418   4.081   2.587  15.887  1.9023  1.0070 -1.6424
 2001TIP3    H227419   3.957   2.628  15.811 -0.6453  0.3024  1.8901
 2002TIP3   OH227420   6.511   2.248   5.538  0.5024  0.5288  0.2762
 2002TIP3    H127421   6.495   2.342   5.536 -0.4142  0.3721 -0.9941
 2002TIP3    H227422   6.427   2.208   5.518  1.2408 -0.5140 -0.9551
 2003TIP3   OH227423   0.198   4.995   5.384  0.7476  0.6820 -0.1993
 2003TIP3    H127424   0.135   5.044   5.437 -0.4167 -0.9377 -0.0184
 2003TIP3    H227425   0.259   4.958   5.447  0.3794  0.1683 -0.1435
 2004TIP3   OH227426   6.633   1.203   1.664  0.1452 -0.3337 -0.1405
 2004TIP3    H127427   6.538   1.212   1.664  0.2287  0.8461 -0.5466
 2004TIP3    H227428   6.659   1.217   1.755  0.0814  1.9116 -0.4030
 2005TIP3   OH227429   2.031   0.258  16.159 -0.0599 -0.0697 -0.6126
 2005TIP3    H127430   2.025   0.169  16.192  3.0965 -0.2992 -0.3492
 2005TIP3    H227431   1.945   0.276  16.121 -2.8508 -1.0398  4.4186
 2006TIP3   OH227432   3.170   2.157   3.761 -0.2425 -0.4171 -0.1044
 2006TIP3    H127433   3.128   2.149   3.676 -0.3852  1.0957 -0.2165
 2006TIP3    H227434   3.260   2.185   3.741 -0.4201  0.4464  0.2230
 2007TIP3   OH227435   3.251   1.135   3.129  0.1442  0.0044  0.0157
 2007TIP3    H127436   3.323   1.197   3.134  0.3590  0.1338 -2.9043
 2007TIP3    H227437   3.293   1.049   3.134  0.6075  0.0748 -1.9253
 2008TIP3   OH227438   0.229   2.939   3.380 -0.4490 -0.4219 -0.0611
 2008TIP3    H127439   0.134   2.955   3.379 -0.2698  0.7393  0.4038
 2008TIP3    H227440   0.259   2.974   3.463  0.3848 -0.9029 -0.1449
 2009TIP3   OH227441   2.195   1.210   5.639  0.1165 -0.0357 -0.4056
 2009TIP3    H127442   2.219   1.286   5.692 -0.8248 -0.6025  0.9116
 2009TIP3    H227443   2.099   1.207   5.644  0.0356 -0.3479 -1.8300
 2010TIP3   OH227444   1.059   6.116  15.443  1.2231 -0.4631 -0.1811
 2010TIP3    H127445   1.082   6.132  15.534 -0.7564  1.4492  0.0509
 2010TIP3    H227446   1.115   6.043  15.417  1.6243 -1.2724  2.6372
 2011TIP3   OH227447   2.557   0.759  12.918  0.4148  0.3851 -0.3469
 2011TIP3    H127448   2.624   0.827  12.908  0.5549  0.1946 -0.6871
 2011TIP3    H227449   2.491   0.800  12.975  1.0479  0.4021  0.3987
 2012TIP3   OH227450   3.889   2.102  12.735 -0.6969  0.5042  0.7820
 2012TIP3    H127451   3.942   2.158  12.678  1.1122  0.3441  2.2007
 2012TIP3    H227452   3.821   2.159  12.768 -0.4214  1.1829  0.2084
 2013TIP3   OH227453   5.870   2.563   3.782 -0.1895  0.0195 -0.3371
 2013TIP3    H127454   5.886   2.501   3.711  0.5298  0.1386 -0.2804
 2013TIP3    H227455   5.788   2.607   3.757 -0.2193 -0.3092 -0.8270
 2014TIP3   OH227456   3.607   0.587   1.927  0.8091  0.8651 -0.0288
 2014TIP3    H127457   3.620   0.578   1.833  0.3388  1.5510 -0.1643
 2014TIP3    H227458   3.626   0.499   1.962 -1.2524 -0.0561 -1.0248
 2015TIP3   OH227459   4.899   6.428   0.278  0.0174 -0.8166  0.7867
 2015TIP3    H127460   4.964   6.420   0.347 -1.3454 -0.1783  2.2087
 2015TIP3    H227461   4.819   6.392   0.317 -1.7521  2.8657  0.9739
 2016TIP3   OH227462   6.773   6.428   2.901 -0.2231 -0.0719 -0.2301
 2016TIP3    H127463   6.858   6.469   2.883 -0.4352  1.0805  1.2474
 2016TIP3    H227464   6.794   6.343   2.938  0.2805  0.1049 -0.1096
 2017TIP3   OH227465   5.772   4.221   4.078 -0.0937  0.4178 -0.0331
 2017TIP3    H127466   5.846   4.213   4.018  0.5988  0.3859  0.8099
 2017TIP3    H227467   5.695   4.214   4.022  0.4750 -2.2578 -0.6165
 2018TIP3   OH227468   2.750   1.902  12.492  0.0632 -0.2831 -0.1970
 2018TIP3    H127469   2.800   1.882  12.413 -0.3653 -0.0725 -0.5280
 2018TIP3    H227470   2.712   1.818  12.518  0.0636 -0.3210 -0.3179
 2019TIP3   OH227471   0.741   6.080   5.422 -0.4882  0.0601  0.0119
 2019TIP3    H127472   0.687   6.142   5.375 -0.7469  1.0401  1.5434
 2019TIP3    H227473   0.830   6.095   5.388 -0.7340  0.4270 -0.4799
 2020TIP3   OH227474   1.668   4.179  15.971  0.5990  0.3980  0.0510
 2020TIP3    H127475   1.731   4.148  15.906 -0.1517 -0.2787 -0.3787
 2020TIP3    H227476   1.672   4.115  16.042  0.2472  0.2284 -0.0774
 2021TIP3   OH227477   2.186   3.382   5.473  0.2288  0.6022  0.0241
 2021TIP3    H127478   2.222   3.415   5.555 -0.4779  1.4042  0.0238
 2021TIP3    H227479   2.096   3.415   5.470 -0.4219 -1.0687 -0.1434
 2022TIP3   OH227480   2.871   3.936   4.346 -0.1279 -0.4330 -0.5420
 2022TIP3    H127481   2.899   4.025   4.366 -0.3713 -0.5169  0.1995
 2022TIP3    H227482   2.937   3.904   4.284  0.0848  0.1832 -0.6431
 2023TIP3   OH227483   5.663   0.550  11.696 -0.9132 -0.3423  0.6759
 2023TIP3    H127484   5.649   0.553  11.601  2.6047  0.5122  0.0296
 2023TIP3    H227485   5.600   0.612  11.732 -0.1441  1.8891 -1.5407
 2024TIP3   OH227486   5.411   2.372  13.673 -0.2913 -0.0914  0.0052
 2024TIP3    H127487   5.412   2.330  13.759 -1.7445  0.9903  0.5769
 2024TIP3    H227488   5.428   2.300  13.612  0.6192 -0.9055  1.1542
 2025TIP3   OH227489   6.212   1.308   4.578  0.7169 -0.2403  0.3052
 2025TIP3    H127490   6.267   1.292   4.655  0.8587 -2.7913 -0.2124
 2025TIP3    H227491   6.163   1.226   4.567  0.7278  0.0255 -2.3331
 2026TIP3   OH227492   4.854   5.544  14.997  0.0121  0.1522  0.1416
 2026TIP3    H127493   4.884   5.495  15.074  0.8192  0.6235  0.1438
 2026TIP3    H227494   4.759   5.545  15.005  0.0386 -0.5305  0.6844
 2027TIP3   OH227495   3.707   4.111  15.255  0.0748 -0.4982 -0.1992
 2027TIP3    H127496   3.781   4.144  15.305  0.0074 -0.7203  0.0467
 2027TIP3    H227497   3.746   4.056  15.187  0.3411  1.5386 -1.8124
 2028TIP3   OH227498   1.617   6.356  13.308 -0.2969  0.6921 -0.3489
 2028TIP3    H127499   1.682   6.337  13.376 -0.1842 -1.0933 -0.9096
 2028TIP3    H227500   1.608   6.274  13.260 -1.9172  1.3309 -1.1945
 2029TIP3   OH227501   4.246   6.501   4.449  0.1998 -0.0275  0.2373
 2029TIP3    H127502   4.262   6.437   4.519 -1.2105 -1.1280 -0.3849
 2029TIP3    H227503   4.331   6.540   4.431  1.0001 -1.3657  1.0085
 2030TIP3   OH227504   3.349   6.286   1.371 -0.3131  0.4577  0.1021
 2030TIP3    H127505   3.346   6.363   1.428 -0.4383 -0.0912  0.8466
 2030TIP3    H227506   3.261   6.248   1.375 -0.3045  0.3653 -0.4017
 2031TIP3   OH227507   3.172   6.218  16.930  0.2765 -0.2113  0.1613
 2031TIP3    H127508   3.089   6.264  16.937 -0.1566 -1.0786  1.1937
 2031TIP3    H227509   3.189   6.210  16.836  0.0546  1.4404 -0.0410
 2032TIP3   OH227510   3.058   1.281   1.254  0.1858 -0.1289 -0.7761
 2032TIP3    H127511   3.018   1.267   1.168  3.3968  0.9643 -2.6203
 2032TIP3    H227512   3.030   1.368   1.280  1.7159  0.8926 -2.3519
 2033TIP3   OH227513   1.747   4.258  13.564 -0.5167  0.4079 -0.2836
 2033TIP3    H127514   1.728   4.352  13.558  0.1478  0.4575 -2.9973
 2033TIP3    H227515   1.751   4.229  13.473  1.2032 -1.8674  0.4300
 2034TIP3   OH227516   2.318   1.996  14.304 -0.5083 -0.5434  0.0260
 2034TIP3    H127517   2.364   1.990  14.387  0.3798 -0.9196 -0.4800
 2034TIP3    H227518   2.326   2.087  14.278 -2.5752  0.0858  1.3210
 2035TIP3   OH227519   6.554   0.128  16.809  0.2753 -0.1040  0.6375
 2035TIP3    H127520   6.585   0.216  16.790  0.1419 -0.0212  0.8033
 2035TIP3    H227521   6.577   0.077  16.731  3.2808 -0.6911  1.7495
 2036TIP3   OH227522   0.104   1.242  15.515 -0.7434  0.0149 -0.2150
 2036TIP3    H127523   0.041   1.280  15.576 -0.2916  1.0304 -0.3571
 2036TIP3    H227524   0.185   1.290  15.532 -0.7988  0.8699 -2.1273
 2037TIP3   OH227525   2.280   4.323  11.446  0.3695  0.4725  0.6451
 2037TIP3    H127526   2.313   4.384  11.512  0.6993  3.1433 -1.7815
 2037TIP3    H227527   2.188   4.309  11.470  0.6229  0.9165  1.9557
 2038TIP3   OH227528   3.468   2.436  14.846  0.2351  0.0371  0.4573
 2038TIP3    H127529   3.522   2.487  14.908 -0.5921 -0.1410  1.3538
 2038TIP3    H227530   3.384   2.425  14.891 -0.1673 -0.6759 -0.4349
 2039TIP3   OH227531   2.581   3.840  14.532 -0.1774  0.0075  0.2405
 2039TIP3    H127532   2.533   3.834  14.614 -1.4024  2.6025 -0.1688
 2039TIP3    H227533   2.668   3.873  14.557 -1.2855  3.1103  0.4421
 2040TIP3   OH227534   2.262   0.165  14.822 -0.1600 -0.3935 -0.3269
 2040TIP3    H127535   2.196   0.098  14.804 -1.0030  1.0184 -3.0744
 2040TIP3    H227536   2.319   0.162  14.745  1.9040 -0.2849  1.1392
 2041TIP3   OH227537   5.607   4.442   4.187 -0.2696  0.3484 -0.2662
 2041TIP3    H127538   5.520   4.441   4.147 -0.6746 -0.1361  0.6007
 2041TIP3    H227539   5.665   4.407   4.119 -1.0661 -1.2596 -0.1656
 2042TIP3   OH227540   5.530   0.535  14.928  0.6631 -0.3223 -0.0373
 2042TIP3    H127541   5.517   0.622  14.890  4.5435  0.6781  0.4015
 2042TIP3    H227542   5.523   0.550  15.022 -0.3371 -0.8859 -0.0170
 2043TIP3   OH227543   4.380   1.897  11.549 -0.0514  0.6083 -0.0338
 2043TIP3    H127544   4.315   1.965  11.533 -0.1444  0.5654  0.1621
 2043TIP3    H227545   4.410   1.873  11.462 -0.2960  0.6292 -0.1259
 2044TIP3   OH227546   0.184   2.073   3.219  0.3140 -0.7537 -0.0485
 2044TIP3    H127547   0.272   2.045   3.243  0.4388 -1.7701 -1.5048
 2044TIP3    H227548   0.159   2.013   3.148 -1.4962 -0.4028  0.2408
 2045TIP3   OH227549   1.087   4.917   5.061 -0.0492  0.2972 -0.0864
 2045TIP3    H127550   1.104   4.994   5.008  0.2001  0.6133  0.4386
 2045TIP3    H227551   1.045   4.951   5.140  2.7928  0.3364  1.5672
 2046TIP3   OH227552   2.966   0.640  12.929 -0.6641 -0.5683 -0.0374
 2046TIP3    H127553   3.022   0.688  12.990 -1.4216 -0.8577  0.9067
 2046TIP3    H227554   2.972   0.549  12.957 -0.8598 -0.7282 -0.5142
 2047TIP3   OH227555   3.219   3.913  15.910 -0.3067 -0.4718 -0.3462
 2047TIP3    H127556   3.216   3.824  15.874  1.7862 -0.8061  0.2073
 2047TIP3    H227557   3.205   3.901  16.004  2.8025 -0.6046  0.1820
 2048TIP3   OH227558   4.033   4.223  17.030  0.9117 -0.2330 -0.2515
 2048TIP3    H127559   4.010   4.149  17.087  0.8945  0.8351  1.1861
 2048TIP3    H227560   4.129   4.225  17.031  0.9215  1.1922  1.7218
 2049TIP3   OH227561   1.286   0.779  13.641 -0.4931 -0.6242 -0.2778
 2049TIP3    H127562   1.258   0.778  13.550 -0.2905 -0.1800 -0.3481
 2049TIP3    H227563   1.213   0.739  13.689 -0.3788 -1.3286 -0.6887
 2050TIP3   OH227564   1.148   0.538   2.654 -0.1805 -0.3805 -0.1876
 2050TIP3    H127565   1.165   0.546   2.560 -0.1106 -1.9877 -0.3337
 2050TIP3    H227566   1.063   0.494   2.659 -0.7418  0.7457  0.5258
 2051TIP3   OH227567   2.265   0.110  15.225  0.4417  0.0033 -0.3314
 2051TIP3    H127568   2.187   0.154  15.259  0.8468  2.2420 -2.0812
 2051TIP3    H227569   2.234   0.022  15.203 -1.2439  0.4133  0.2116
 2052TIP3   OH227570   6.159   2.115   4.296  0.6532 -0.3046 -0.0682
 2052TIP3    H127571   6.229   2.067   4.253  0.2032  0.0256 -1.2071
 2052TIP3    H227572   6.172   2.206   4.269  1.1559  0.1553  1.5923
 2053TIP3   OH227573   4.553   2.004  13.367  0.5934  0.1331  0.3701
 2053TIP3    H127574   4.577   1.912  13.354  1.2313  0.4499 -0.9239
 2053TIP3    H227575   4.570   2.045  13.282  0.4903  1.4879  0.9782
 2054TIP3   OH227576   6.065   1.647  10.956  0.1697  0.1170 -0.4232
 2054TIP3    H127577   5.972   1.669  10.944  0.1490  0.2188 -0.0845
 2054TIP3    H227578   6.067   1.601  11.039  0.2151 -1.1674 -1.1115
 2055TIP3   OH227579   5.355   5.174   2.479 -0.1373 -0.0551 -0.1649
 2055TIP3    H127580   5.387   5.148   2.393 -0.7580  0.0617 -0.4337
 2055TIP3    H227581   5.264   5.145   2.481  0.0326 -0.5899  0.6766
 2056TIP3   OH227582   4.885   3.402  14.339  0.0679 -0.2305  0.0650
 2056TIP3    H127583   4.798   3.366  14.357  0.0924 -0.5522 -0.4358
 2056TIP3    H227584   4.939   3.325  14.321  1.1009 -0.2754  2.8757
 2057TIP3   OH227585   1.039   4.251  12.884 -0.4298  0.6329 -0.0484
 2057TIP3    H127586   1.065   4.215  12.969  0.7285  0.2006 -0.5605
 2057TIP3    H227587   1.113   4.307  12.859 -0.9262  1.0432 -0.6045
 2058TIP3   OH227588   6.409   4.098   0.249  0.0347  0.0236  0.3935
 2058TIP3    H127589   6.412   4.072   0.157  0.3590  1.7507 -0.1235
 2058TIP3    H227590   6.316   4.108   0.268 -0.0142  0.2250  0.0684
 2059TIP3   OH227591   5.972   0.138  15.770 -1.0789  0.3555  0.2775
 2059TIP3    H127592   6.024   0.119  15.848 -1.5823  2.1573  1.1083
 2059TIP3    H227593   5.886   0.100  15.790 -1.6894  2.1586  1.3603
 2060TIP3   OH227594   3.716   3.611  13.145  0.4464  0.3944  0.2632
 2060TIP3    H127595   3.770   3.630  13.068 -0.6512  0.9027 -0.4050
 2060TIP3    H227596   3.743   3.524  13.173  1.3700  0.5042 -0.2508
 2061TIP3   OH227597   5.633   6.580  12.416 -0.3467 -0.3084  0.3791
 2061TIP3    H127598   5.686   6.508  12.449  1.2438  2.0026  3.3637
 2061TIP3    H227599   5.682   6.615  12.342 -0.6238 -1.5660 -0.4353
 2062TIP3   OH227600   5.885   3.316   5.076  0.1428 -0.0728  0.2015
 2062TIP3    H127601   5.833   3.363   5.141  1.9840 -0.1883  1.8576
 2062TIP3    H227602   5.867   3.224   5.093  0.7452 -0.1078  0.6590
 2063TIP3   OH227603   1.515   1.952  12.318 -0.4333 -0.0581  0.9489
 2063TIP3    H127604   1.532   1.887  12.385  0.1305 -1.4822 -0.4975
 2063TIP3    H227605   1.513   2.036  12.364  1.4910 -0.8096  2.5104
 2064TIP3   OH227606   3.412   6.245  11.825 -0.7667  0.2618  0.4782
 2064TIP3    H127607   3.486   6.187  11.807 -0.3326  1.2117 -0.8915
 2064TIP3    H227608   3.452   6.325  11.860 -1.0078  1.2039 -1.2899
 2065TIP3   OH227609   0.398   2.445  16.056 -0.2063 -0.4072 -0.0053
 2065TIP3    H127610   0.441   2.387  15.993  0.4319  0.0554 -0.0142
 2065TIP3    H227611   0.449   2.527  16.051 -0.7708 -0.0244  0.3727
 2066TIP3   OH227612   5.445   5.396  13.583  0.2242 -0.2525  0.2604
 2066TIP3    H127613   5.354   5.424  13.581  0.0584 -0.7653  0.6362
 2066TIP3    H227614   5.486   5.453  13.649 -0.1266 -0.9204  1.0671
 2067TIP3   OH227615   5.769   4.693  11.589  0.1558 -0.2591  0.3418
 2067TIP3    H127616   5.705   4.624  11.576 -0.8283  0.6772  0.0466
 2067TIP3    H227617   5.733   4.769  11.543  1.0090  0.5574  0.9621
 2068TIP3   OH227618   2.812   0.572  12.166 -0.4899  0.2667 -0.1859
 2068TIP3    H127619   2.859   0.522  12.099 -0.4019  0.5792 -0.3620
 2068TIP3    H227620   2.750   0.626  12.117 -0.4805  0.4392 -0.0096
 2069TIP3   OH227621   0.518   5.369  13.381  0.2217  0.1239  0.0567
 2069TIP3    H127622   0.574   5.442  13.355 -0.4328  0.2426 -1.0571
 2069TIP3    H227623   0.499   5.385  13.474 -0.7773  1.9731 -0.4147
 2070TIP3   OH227624   1.876   5.310   4.658  0.0756  0.0492 -0.7020
 2070TIP3    H127625   1.810   5.263   4.709 -3.2156  0.3459 -4.1951
 2070TIP3    H227626   1.883   5.396   4.700  0.8971 -1.0814  1.6570
 2071TIP3   OH227627   0.947   4.566  11.618  0.1545  0.2630  0.0898
 2071TIP3    H127628   1.018   4.504  11.603  0.7331  0.6403  1.1456
 2071TIP3    H227629   0.977   4.647  11.576 -0.6139 -0.1592 -1.3157
 2072TIP3   OH227630   0.770   2.329   2.425  0.0771 -0.1246 -0.3066
 2072TIP3    H127631   0.706   2.336   2.496 -1.6422 -2.0463 -1.5335
 2072TIP3    H227632   0.806   2.240   2.434 -0.2856 -0.4571 -1.8978
 2073TIP3   OH227633   4.749   3.887   1.547 -0.2334 -0.9571 -0.0529
 2073TIP3    H127634   4.761   3.982   1.546  1.8035 -1.0863  2.3200
 2073TIP3    H227635   4.827   3.853   1.503 -0.9268 -1.5457 -0.8444
 2074TIP3   OH227636   6.021   0.044  11.255 -0.3499 -0.9298 -1.4842
 2074TIP3    H127637   5.955   0.109  11.280  2.1390  1.0740  0.4570
 2074TIP3    H227638   6.024  -0.017  11.329  1.5617  0.4292 -0.3579
 2075TIP3   OH227639   3.034   1.159   2.301 -0.6545  0.1063  0.3477
 2075TIP3    H127640   3.097   1.205   2.246 -0.0316 -2.0508 -0.8299
 2075TIP3    H227641   2.952   1.208   2.291 -0.3676  0.2064 -1.9315
 2076TIP3   OH227642   4.249   2.761   4.495 -0.1193 -0.9150  0.1051
 2076TIP3    H127643   4.230   2.838   4.548 -0.3428 -1.1861  0.4301
 2076TIP3    H227644   4.283   2.795   4.413 -0.5448 -0.4567  0.1139
 2077TIP3   OH227645   3.025   3.707  15.372 -0.0612 -0.6601 -0.1009
 2077TIP3    H127646   2.931   3.711  15.386  0.1731  1.9083  1.5279
 2077TIP3    H227647   3.046   3.787  15.324  1.2525 -1.3816 -0.7779
 2078TIP3   OH227648   5.410   1.842  17.140  0.8905 -0.4681 -0.5314
 2078TIP3    H127649   5.425   1.905  17.210 -1.6054  0.8529 -1.0757
 2078TIP3    H227650   5.477   1.863  17.074 -0.4598  2.4230 -1.1593
 2079TIP3   OH227651   2.471   5.549   0.447 -0.1963 -0.1723 -0.1660
 2079TIP3    H127652   2.536   5.507   0.503  2.0174  1.4330 -1.4004
 2079TIP3    H227653   2.517   5.567   0.365 -2.3561  0.5717 -1.2982
 2080TIP3   OH227654   0.687   2.797  16.763  0.5644  0.6277 -0.3386
 2080TIP3    H127655   0.597   2.827  16.749  0.2955 -0.3083 -0.6775
 2080TIP3    H227656   0.734   2.824  16.684  0.3930  0.4260 -0.5106
 2081TIP3   OH227657   2.384   5.077   1.705 -0.1450  0.1835  0.4145
 2081TIP3    H127658   2.439   5.032   1.640 -1.2185 -1.7330  0.7927
 2081TIP3    H227659   2.355   5.008   1.764 -1.8961  1.3682  0.9968
 2082TIP3   OH227660   6.369   2.668   4.716 -0.4099 -0.6302  0.0570
 2082TIP3    H127661   6.383   2.762   4.712 -0.3676 -0.6657 -2.6425
 2082TIP3    H227662   6.318   2.654   4.795 -2.1963  1.9270 -0.5411
 2083TIP3   OH227663   0.443   5.545   4.232 -0.8261  0.2904  0.9784
 2083TIP3    H127664   0.483   5.612   4.288 -1.2305  1.2520  0.1403
 2083TIP3    H227665   0.349   5.564   4.235 -0.8735  0.2253  0.1614
 2084TIP3   OH227666   5.104   2.973   3.369 -0.4044  0.1355  0.3251
 2084TIP3    H127667   5.141   2.916   3.301  0.8957 -0.2004  1.2662
 2084TIP3    H227668   5.083   2.914   3.442 -0.6289  0.6436  0.6820
 2085TIP3   OH227669   0.962   6.705  13.733 -0.0770  0.5011  0.0674
 2085TIP3    H127670   0.890   6.643  13.738 -0.3751  0.7708 -0.7337
 2085TIP3    H227671   0.992   6.701  13.642  1.0438  0.2562  0.4269
 2086TIP3   OH227672   3.968   1.459  11.558 -0.0322 -0.8596 -0.6357
 2086TIP3    H127673   3.916   1.444  11.479 -1.0190  2.0378 -0.6489
 2086TIP3    H227674   4.049   1.410  11.544 -1.6316 -3.3841 -1.7670
 2087TIP3   OH227675   0.944   2.675   3.952 -0.3851  0.3984 -0.4707
 2087TIP3    H127676   0.868   2.703   3.900 -0.1116  0.8710 -0.6206
 2087TIP3    H227677   0.973   2.594   3.911 -0.2079  0.7356 -1.0153
 2088TIP3   OH227678   1.156   3.569  15.893  0.2281 -0.1249  0.1948
 2088TIP3    H127679   1.078   3.625  15.902 -0.4456 -0.6153 -2.0210
 2088TIP3    H227680   1.229   3.630  15.892 -0.4426  0.7023 -1.4525
 2089TIP3   OH227681   3.178   6.672  15.488  0.3077 -0.3630  0.2807
 2089TIP3    H127682   3.161   6.578  15.494  2.5652 -0.8095  0.3318
 2089TIP3    H227683   3.091   6.711  15.472 -0.6947 -2.4088  0.4527
 2090TIP3   OH227684   5.836   6.625   3.306  0.2007  0.3155  0.0682
 2090TIP3    H127685   5.747   6.650   3.331  0.4250  1.8547 -0.5680
 2090TIP3    H227686   5.823   6.555   3.241 -0.4895 -0.3192  0.8626
 2091TIP3   OH227687   4.472   3.523  11.088  0.0383  0.8227  0.1733
 2091TIP3    H127688   4.554   3.479  11.111  0.4324  1.7683  0.6488
 2091TIP3    H227689   4.405   3.456  11.098  0.8272 -0.1726 -0.9383
 2092TIP3   OH227690   0.447   1.741   1.977  0.3934 -0.1774 -0.0694
 2092TIP3    H127691   0.378   1.807   1.973 -0.1299 -0.7148  0.0993
 2092TIP3    H227692   0.430   1.693   2.058 -0.4900 -1.8885 -1.2167
 2093TIP3   OH227693   1.498   3.238   2.870 -0.2414 -0.3536  0.1518
 2093TIP3    H127694   1.572   3.198   2.824 -0.0336 -0.6417  0.7271
 2093TIP3    H227695   1.508   3.332   2.854  0.4141 -0.3662  0.4545
 2094TIP3   OH227696   1.428   2.700   0.722  0.8369 -0.1418  0.0454
 2094TIP3    H127697   1.523   2.708   0.726  0.8234 -0.1089  0.3274
 2094TIP3    H227698   1.404   2.743   0.640  1.0666 -0.1524 -0.0266
 2095TIP3   OH227699   1.364   3.196   4.078 -0.5330  0.4511 -0.2685
 2095TIP3    H127700   1.367   3.191   4.174  0.5109  0.7674 -0.2716
 2095TIP3    H227701   1.453   3.175   4.050 -1.3584 -2.0532 -1.3232
 2096TIP3   OH227702   0.677   0.076   5.022  0.2251 -0.4313  0.3116
 2096TIP3    H127703   0.603   0.062   5.081 -1.0141  0.5838 -0.9519
 2096TIP3    H227704   0.647   0.142   4.960  1.6007 -1.2158 -1.2753
 2097TIP3   OH227705   4.582   6.712   2.191  0.2364  0.3756  0.6466
 2097TIP3    H127706   4.673   6.740   2.179  0.3317 -0.1319  0.1903
 2097TIP3    H227707   4.533   6.794   2.198  0.6717  0.6531  0.4823
 2098TIP3   OH227708   1.865   0.803  12.531  0.2449  0.9117  0.3501
 2098TIP3    H127709   1.958   0.799  12.554  0.4349  0.6162 -0.4544
 2098TIP3    H227710   1.844   0.896  12.529  0.7223  1.0096 -0.2385
 2099TIP3   OH227711   1.940   6.464   3.355 -0.2476 -0.8938 -0.0186
 2099TIP3    H127712   1.984   6.546   3.374 -0.6620 -1.2817  3.1560
 2099TIP3    H227713   1.851   6.490   3.330 -0.4901 -0.3164  1.3305
 2100TIP3   OH227714   4.189   2.352  15.489  0.0936  0.2646  0.4393
 2100TIP3    H127715   4.094   2.361  15.486  0.0782  0.2989  0.9394
 2100TIP3    H227716   4.222   2.434  15.453 -0.0652  0.4764  0.7714
 2101TIP3   OH227717   3.968   1.395  14.451  0.2414  0.3637 -0.3730
 2101TIP3    H127718   3.913   1.449  14.507 -0.9083 -0.3473 -0.7804
 2101TIP3    H227719   3.995   1.323  14.507 -0.3116  0.0370 -0.5169
 2102TIP3   OH227720   3.091   5.389  13.769  0.1676  0.1708  0.3908
 2102TIP3    H127721   3.156   5.454  13.794  0.4006 -0.1969  0.7510
 2102TIP3    H227722   3.132   5.305  13.788 -0.2600 -0.0768  0.2475
 2103TIP3   OH227723   3.687   0.434  15.982 -0.2734 -0.1072  0.3540
 2103TIP3    H127724   3.759   0.475  16.031  0.6926 -0.9246 -0.3221
 2103TIP3    H227725   3.656   0.364  16.039  0.5279 -0.7499  0.0209
 2104TIP3   OH227726   5.934   2.260  11.465 -0.1797  0.1316  0.0848
 2104TIP3    H127727   5.859   2.275  11.521  0.5799  3.5436  0.4052
 2104TIP3    H227728   5.898   2.258  11.376 -0.7339  1.2136  0.2738
 2105TIP3   OH227729   5.610   0.573   0.215  0.3794 -0.2448  0.9223
 2105TIP3    H127730   5.614   0.478   0.226  1.1543 -0.2147  0.9200
 2105TIP3    H227731   5.517   0.594   0.223  0.2002 -1.0053  0.8986
 2106TIP3   OH227732   6.566   5.336  11.653  0.3771 -0.1559 -0.1234
 2106TIP3    H127733   6.561   5.339  11.558 -2.6282 -0.1109 -0.0800
 2106TIP3    H227734   6.496   5.395  11.682 -1.0659 -2.6794  2.0080
 2107TIP3   OH227735   1.059   2.365  15.969  0.1051 -0.4795  0.4659
 2107TIP3    H127736   0.996   2.360  16.041 -0.3548 -3.2169  0.0022
 2107TIP3    H227737   1.145   2.365  16.012 -0.1000  2.2547  1.0652
 2108TIP3   OH227738   0.323   6.754   0.280  0.0160  0.2438 -0.1665
 2108TIP3    H127739   0.385   6.783   0.213  2.0323 -0.5051  1.2441
 2108TIP3    H227740   0.243   6.735   0.233  0.9230  1.0301 -2.1441
 2109TIP3   OH227741   6.589   2.890  12.252 -0.6712 -0.2941 -0.1053
 2109TIP3    H127742   6.663   2.929  12.204 -1.2399  1.3184  0.2817
 2109TIP3    H227743   6.626   2.867  12.337 -0.5305  0.1630 -0.0419
 2110TIP3   OH227744   4.283   0.136   0.462 -0.7109  0.5143  0.3281
 2110TIP3    H127745   4.350   0.090   0.411 -1.3279  1.5323 -1.4843
 2110TIP3    H227746   4.332   0.176   0.535 -0.0225 -2.1151  1.4310
 2111TIP3   OH227747   2.885   6.201  10.730 -0.1431 -0.2963 -0.0572
 2111TIP3    H127748   2.835   6.145  10.670 -0.6318  0.1655 -0.0845
 2111TIP3    H227749   2.906   6.279  10.678 -0.0061 -0.1783  0.1749
 2112TIP3   OH227750   0.760   1.182  16.192  0.2959  0.4059  0.2084
 2112TIP3    H127751   0.844   1.184  16.237  0.0971 -0.9465  0.6868
 2112TIP3    H227752   0.772   1.120  16.120  0.9858  3.4089 -2.4969
 2113TIP3   OH227753   3.496   1.640  11.385 -0.2680  0.2430  0.0618
 2113TIP3    H127754   3.431   1.685  11.331 -0.3033  1.8658  1.3768
 2113TIP3    H227755   3.579   1.683  11.364 -0.3596  1.2724  1.6004
 2114TIP3   OH227756   2.626   5.374   5.262 -0.1985  0.2468 -0.5700
 2114TIP3    H127757   2.647   5.417   5.179 -1.8153 -0.7807 -1.5775
 2114TIP3    H227758   2.538   5.406   5.285 -0.0652 -0.0163  0.3787
 2115TIP3   OH227759   6.537   3.521   0.697  0.3402 -0.1760 -0.9160
 2115TIP3    H127760   6.483   3.567   0.762  0.0385  0.3393 -1.5222
 2115TIP3    H227761   6.616   3.574   0.691  0.1649  0.0433 -1.3171
 2116TIP3   OH227762   0.031   4.697  15.702  0.2700 -0.4510 -0.0432
 2116TIP3    H127763   0.094   4.762  15.734 -0.6100  0.1204  0.5885
 2116TIP3    H227764  -0.008   4.737  15.625 -0.0465 -0.3597  0.1618
 2117TIP3   OH227765   0.764   1.119  16.860 -0.3092  0.3824 -0.5536
 2117TIP3    H127766   0.698   1.068  16.812 -1.3544 -0.9918  2.1095
 2117TIP3    H227767   0.713   1.173  16.920  0.9258 -0.6311  1.5032
 2118TIP3   OH227768   3.234   2.987   2.165 -0.3636 -0.6697 -0.4246
 2118TIP3    H127769   3.185   3.068   2.148  1.1572  0.2859 -0.4962
 2118TIP3    H227770   3.321   3.005   2.130  0.0074 -2.3577 -0.4164
 2119TIP3   OH227771   5.080   0.296  15.002  0.2054 -0.0445 -0.0372
 2119TIP3    H127772   4.999   0.345  15.015  1.1643  1.0984  2.2091
 2119TIP3    H227773   5.103   0.309  14.910 -0.9622  1.5142 -0.1365
 2120TIP3   OH227774   5.101   2.928  13.395 -0.0135  0.6132  0.1132
 2120TIP3    H127775   5.170   2.866  13.420 -0.3178  0.4487  0.5719
 2120TIP3    H227776   5.045   2.934  13.473 -1.1439 -0.1081 -0.6066
 2121TIP3   OH227777   3.500   5.676  14.103 -0.3083  0.0614 -0.4304
 2121TIP3    H127778   3.470   5.714  14.185 -0.6205 -1.0063 -0.0345
 2121TIP3    H227779   3.513   5.751  14.045  3.0949  1.2246  1.5616
 2122TIP3   OH227780   6.720   0.609   1.464  0.0103  0.0285 -0.1659
 2122TIP3    H127781   6.704   0.603   1.370  1.7599  0.4304 -0.5248
 2122TIP3    H227782   6.808   0.649   1.471 -0.8508  1.8001  1.6512
 2123TIP3   OH227783   2.493   2.444  17.104 -0.1748 -0.2749 -0.5553
 2123TIP3    H127784   2.478   2.416  17.195 -0.3521  1.6943  0.0618
 2123TIP3    H227785   2.406   2.448  17.065 -0.0180 -2.3343 -1.2536
 2124TIP3   OH227786   0.970   2.342  12.162  0.1543  0.2609 -0.0136
 2124TIP3    H127787   1.059   2.306  12.164  0.1170  0.0984 -0.8061
 2124TIP3    H227788   0.970   2.401  12.087 -0.1836  0.8729  0.4606
 2125TIP3   OH227789   0.315   6.014  15.270 -0.2461  0.1348  0.7278
 2125TIP3    H127790   0.285   6.010  15.361  1.2670 -0.4022  1.2432
 2125TIP3    H227791   0.270   5.942  15.227 -2.3171  1.4317  0.5707
 2126TIP3   OH227792   2.886   6.031   4.777  0.3945  0.1759  0.4202
 2126TIP3    H127793   2.798   6.055   4.749  0.3797  0.9374  1.0858
 2126TIP3    H227794   2.874   5.982   4.858  0.5689  0.1760  0.4478
 2127TIP3   OH227795   6.010   6.057  11.505  0.6188  0.1872  0.2049
 2127TIP3    H127796   5.970   6.094  11.583  0.7656  1.0845 -0.1285
 2127TIP3    H227797   5.970   6.105  11.433 -0.5883 -1.6135 -0.3886
 2128TIP3   OH227798   3.684   0.353  12.000  0.4463 -0.2239  0.0325
 2128TIP3    H127799   3.752   0.351  11.932  1.1701 -1.0986  0.7456
 2128TIP3    H227800   3.733   0.369  12.081 -0.5102  1.8473  0.2568
 2129TIP3   OH227801   5.221   4.972   4.996 -0.2208 -0.2032 -0.4711
 2129TIP3    H127802   5.292   5.018   5.042 -0.6382 -2.1554  2.4015
 2129TIP3    H227803   5.145   5.030   5.006 -0.1883 -0.3825  0.9706
 2130TIP3   OH227804   6.447   6.732  16.384 -0.4136 -0.2864  0.0358
 2130TIP3    H127805   6.443   6.637  16.393 -0.1293 -0.4522 -1.3727
 2130TIP3    H227806   6.538   6.749  16.358 -0.5242  0.3556  0.0647
 2131TIP3   OH227807   0.675   1.292   0.834 -0.2357 -0.1758  0.0911
 2131TIP3    H127808   0.703   1.201   0.845  2.0748  0.4642  0.1591
 2131TIP3    H227809   0.755   1.338   0.811 -1.5377  1.7001 -0.9167
 2132TIP3   OH227810   1.796   6.572  16.973 -0.4876 -0.1587  0.0385
 2132TIP3    H127811   1.804   6.477  16.963 -0.0467 -0.4679  2.6313
 2132TIP3    H227812   1.853   6.593  17.047  2.4588  2.7345 -2.7066
 2133TIP3   OH227813   2.562   5.724   4.258 -0.5239 -0.3364 -0.1172
 2133TIP3    H127814   2.511   5.761   4.186  0.5433  1.0136 -0.2177
 2133TIP3    H227815   2.653   5.739   4.233 -0.0996 -1.4240  0.7187
 2134TIP3   OH227816   0.173   0.440  16.740 -0.0102  0.0045 -0.1557
 2134TIP3    H127817   0.101   0.384  16.768  1.0867 -0.7340  1.2878
 2134TIP3    H227818   0.187   0.416  16.648 -1.7382  0.3735 -0.5707
 2135TIP3   OH227819   4.533   1.522  10.717 -0.2001  0.4632  0.4061
 2135TIP3    H127820   4.570   1.517  10.804 -0.8407  0.0253  0.6603
 2135TIP3    H227821   4.593   1.472  10.662 -0.2167  0.0624  0.7453
 2136TIP3   OH227822   0.466   3.048  14.261 -0.1705  0.2535 -0.0921
 2136TIP3    H127823   0.439   3.084  14.176 -0.0129  0.1498 -0.1865
 2136TIP3    H227824   0.516   3.119  14.302 -1.6716  0.9217  0.6361
 2137TIP3   OH227825   2.282   6.091   4.018 -0.2737  0.5710 -0.2625
 2137TIP3    H127826   2.190   6.073   4.038 -0.1429  0.0077 -0.1481
 2137TIP3    H227827   2.311   6.015   3.967 -0.1515  1.2262 -1.1915
 2138TIP3   OH227828   4.632   3.222   2.659 -0.2806 -0.2450 -0.2344
 2138TIP3    H127829   4.558   3.263   2.702 -1.2009 -2.0760  0.0381
 2138TIP3    H227830   4.594   3.154   2.604  1.1309 -0.5025 -0.9514
 2139TIP3   OH227831   1.304   5.451  14.130 -0.1686  0.7073 -0.7244
 2139TIP3    H127832   1.391   5.458  14.170 -0.5904  1.1973  0.1236
 2139TIP3    H227833   1.303   5.363  14.092  0.7219  0.7214 -0.8062
 2140TIP3   OH227834   6.763   3.514   5.308  0.1134 -0.5564  0.4545
 2140TIP3    H127835   6.764   3.488   5.400 -2.0922 -0.3453  0.5965
 2140TIP3    H227836   6.740   3.607   5.309  1.8578 -0.0869 -0.2717
 2141TIP3   OH227837   1.751   1.256  11.796  0.0651  0.7895  0.3754
 2141TIP3    H127838   1.684   1.321  11.819 -0.4250 -0.2175  1.9764
 2141TIP3    H227839   1.817   1.306  11.747 -0.8968  2.2163  0.4630
 2142TIP3   OH227840   0.714   6.454   4.627 -0.4906  0.3640 -0.3283
 2142TIP3    H127841   0.769   6.376   4.621 -1.3785 -0.1982 -1.7615
 2142TIP3    H227842   0.642   6.437   4.566 -1.0858  2.0111 -0.1375
 2143TIP3   OH227843   5.322   0.537   2.769  0.3180  0.0088  0.0344
 2143TIP3    H127844   5.386   0.466   2.783 -1.6771 -1.6015  1.6852
 2143TIP3    H227845   5.272   0.540   2.850 -1.3507  1.5998 -0.9817
 2144TIP3   OH227846   2.098   4.509  16.173  0.3940 -0.0747 -0.2126
 2144TIP3    H127847   2.077   4.509  16.079  2.1757  1.2485 -0.6644
 2144TIP3    H227848   2.070   4.423  16.203  0.2865 -0.7541 -2.0837
 2145TIP3   OH227849   1.484   5.299  11.513  0.9240  0.9462  0.3188
 2145TIP3    H127850   1.500   5.212  11.550 -0.4343  1.6102  2.6669
 2145TIP3    H227851   1.514   5.292  11.422  1.5881 -1.7199  0.6568
 2146TIP3   OH227852   4.673   3.651  15.632 -0.1967 -0.1757  0.4229
 2146TIP3    H127853   4.587   3.685  15.606  0.0720 -0.1761 -0.4925
 2146TIP3    H227854   4.730   3.727  15.629 -0.1645 -0.1651  1.0854
 2147TIP3   OH227855   3.152   0.212  14.488 -0.1673  0.2568  0.0548
 2147TIP3    H127856   3.237   0.247  14.514 -0.6356  1.0271  0.5915
 2147TIP3    H227857   3.170   0.164  14.406  1.0693 -1.0316  1.0288
 2148TIP3   OH227858   6.755   6.270  16.577 -0.4696  0.3223  0.0262
 2148TIP3    H127859   6.695   6.224  16.519  0.2316  0.4961 -0.8664
 2148TIP3    H227860   6.841   6.234  16.555 -0.0591  1.2049  0.1503
 2149TIP3   OH227861   1.689   2.424   4.238 -0.4241  0.4734 -0.3564
 2149TIP3    H127862   1.599   2.414   4.267 -0.5656  1.2416 -0.5184
 2149TIP3    H227863   1.694   2.374   4.157 -0.4979 -0.1982  0.0450
 2150TIP3   OH227864   6.498   2.371  14.195 -0.2965  0.3954 -0.1789
 2150TIP3    H127865   6.427   2.432  14.213 -1.9795 -1.0524 -1.4951
 2150TIP3    H227866   6.513   2.378  14.101  2.4097  1.7381  0.2635
 2151TIP3   OH227867   6.745   3.744   4.282  0.4097 -0.6044  0.4924
 2151TIP3    H127868   6.808   3.804   4.320  0.9417 -0.9870  0.2319
 2151TIP3    H227869   6.791   3.660   4.278  0.3916 -0.5597 -1.0434
 2152TIP3   OH227870   3.087   3.535   3.895  0.3723 -0.6883  0.6338
 2152TIP3    H127871   3.163   3.484   3.924  0.5472 -0.9642 -0.2841
 2152TIP3    H227872   3.025   3.469   3.864  0.9889 -0.3614 -1.5007
 2153TIP3   OH227873   3.091   0.418  16.068  0.3304 -0.3459  0.4286
 2153TIP3    H127874   3.065   0.502  16.104 -1.1120 -0.4451 -0.3194
 2153TIP3    H227875   3.057   0.418  15.979  2.1251 -0.8893 -0.3078
 2154TIP3   OH227876   4.335   1.029   3.931 -0.2292  0.3166 -0.2085
 2154TIP3    H127877   4.275   0.954   3.934 -0.6747  0.6968  1.2252
 2154TIP3    H227878   4.328   1.061   3.842 -1.5954 -0.1196 -0.2843
 2155TIP3   OH227879   4.113   2.285  14.320 -0.8007 -0.4590  0.2880
 2155TIP3    H127880   4.135   2.234  14.399 -0.1343  0.9793  1.0687
 2155TIP3    H227881   4.028   2.324  14.340  0.3014  1.6126  1.2336
 2156TIP3   OH227882   2.943   5.813   5.966 -0.1048  0.3942 -0.7873
 2156TIP3    H127883   2.960   5.722   5.988 -0.4662  0.8168  1.4451
 2156TIP3    H227884   3.029   5.855   5.966  0.2159 -0.1442 -3.0894
 2157TIP3   OH227885   5.172   1.691  15.521 -0.0927 -0.5709 -0.1813
 2157TIP3    H127886   5.223   1.738  15.454  0.5645  1.1800  1.4462
 2157TIP3    H227887   5.093   1.744  15.531 -0.2634 -0.9181  0.3047
 2158TIP3   OH227888   3.912   2.786   4.126 -0.3127  0.2704  0.1958
 2158TIP3    H127889   3.828   2.824   4.102  0.3277  1.3465 -0.4057
 2158TIP3    H227890   3.973   2.860   4.128  1.0103 -0.7181 -1.1922
 2159TIP3   OH227891   1.086   5.043   2.656 -0.0653 -0.1968 -0.8804
 2159TIP3    H127892   1.161   4.984   2.658  0.5891  0.6115  0.6527
 2159TIP3    H227893   1.024   5.002   2.595  0.4501 -2.3332 -0.0620
 2160TIP3   OH227894   3.753   5.373  15.278  0.0839  0.3822  0.0384
 2160TIP3    H127895   3.808   5.434  15.327 -0.1826  1.2320 -0.6834
 2160TIP3    H227896   3.780   5.386  15.186 -0.1072 -0.4551 -0.1410
 2161TIP3   OH227897   0.571   2.782   4.953 -0.0201 -0.5015 -0.5967
 2161TIP3    H127898   0.526   2.698   4.942  0.4291 -0.7831 -0.3027
 2161TIP3    H227899   0.560   2.804   5.046 -0.0845 -0.2608 -0.6592
 2162TIP3   OH227900   6.248   1.465   1.718  0.2004 -0.1673 -0.0503
 2162TIP3    H127901   6.211   1.511   1.793  1.2928  1.7379 -0.6141
 2162TIP3    H227902   6.343   1.466   1.734  0.2669 -3.3629  0.4966
 2163TIP3   OH227903   1.208   1.131  16.141 -0.0879  1.2296 -0.0197
 2163TIP3    H127904   1.283   1.128  16.200 -1.8496 -2.8600  2.3792
 2163TIP3    H227905   1.147   1.192  16.183  0.8963  2.8676 -0.8511
 2164TIP3   OH227906   0.121   4.280   1.825 -0.2227  0.6486 -0.0156
 2164TIP3    H127907   0.084   4.202   1.866 -0.4645  1.2740  0.9919
 2164TIP3    H227908   0.214   4.259   1.814  0.3583  1.2093  2.8821
 2165TIP3   OH227909   5.381   0.585  16.733  0.0317 -0.0788  0.3839
 2165TIP3    H127910   5.412   0.584  16.643 -0.7671  0.9865  0.0787
 2165TIP3    H227911   5.352   0.495  16.749 -1.9414  0.2001 -1.2053
 2166TIP3   OH227912   3.766   2.299   2.722  0.2918 -0.7175 -0.1191
 2166TIP3    H127913   3.718   2.219   2.743  1.5924 -1.5901 -0.3110
 2166TIP3    H227914   3.815   2.319   2.801 -1.4630  1.0136  0.5911
 2167TIP3   OH227915   0.206   5.245   6.164  0.4885  0.7056 -0.1718
 2167TIP3    H127916   0.139   5.180   6.186 -0.0371  0.3918 -2.4208
 2167TIP3    H227917   0.163   5.329   6.178 -0.5805  0.5075 -1.9315
 2168TIP3   OH227918   6.386   0.380  13.966  0.8523  0.1151  0.7198
 2168TIP3    H127919   6.346   0.449  14.018  0.4328 -0.0540  0.6278
 2168TIP3    H227920   6.312   0.332  13.929  1.1449  0.0902  0.1593
 2169TIP3   OH227921   2.345   3.175  12.421  0.0884  0.0267 -0.4635
 2169TIP3    H127922   2.406   3.107  12.450  0.2455 -0.7938 -2.5864
 2169TIP3    H227923   2.262   3.129  12.409 -0.0108  0.3754 -1.1404
 2170TIP3   OH227924   2.104   1.952  13.533  0.2707  0.4506 -0.2448
 2170TIP3    H127925   2.162   1.916  13.466 -2.2358 -0.1430 -2.2533
 2170TIP3    H227926   2.024   1.899  13.527 -1.1211  2.2349  1.2096
 2171TIP3   OH227927   4.046   0.284  12.895  0.3308 -0.3096  0.1834
 2171TIP3    H127928   4.113   0.352  12.895  0.2622 -0.2416  0.7794
 2171TIP3    H227929   3.965   0.330  12.919  0.1304 -0.4509 -0.2143
 2172TIP3   OH227930   0.656   4.566   0.369  0.3015 -0.0667 -0.4597
 2172TIP3    H127931   0.749   4.588   0.380  0.0853  1.0430 -0.6883
 2172TIP3    H227932   0.654   4.471   0.365  1.3002 -0.1749  0.7442
 2173TIP3   OH227933   2.694   4.475  15.677  0.6125 -0.3532  0.3123
 2173TIP3    H127934   2.731   4.387  15.682  0.9173 -0.2831 -0.4794
 2173TIP3    H227935   2.768   4.534  15.692  0.3092 -0.2264  1.3744
 2174TIP3   OH227936   1.148   2.392  11.841  0.0289  0.0270  0.2712
 2174TIP3    H127937   1.054   2.374  11.848  0.5838 -2.4964  4.5864
 2174TIP3    H227938   1.181   2.322  11.786 -0.1903 -1.7879  2.3150
 2175TIP3   OH227939   5.930   4.939   5.747  0.0195  0.5399  0.1443
 2175TIP3    H127940   6.006   4.907   5.698  0.3909  0.0563  1.0082
 2175TIP3    H227941   5.916   4.874   5.815 -2.2665 -0.2828 -1.0237
 2176TIP3   OH227942   4.510   4.692  16.799 -0.1030  0.0400  0.1307
 2176TIP3    H127943   4.501   4.760  16.733  0.1102 -1.0150 -1.0401
 2176TIP3    H227944   4.524   4.611  16.748  1.1276 -0.6529  1.4766
 2177TIP3   OH227945   1.688   3.671  14.352  0.1505  0.2151 -0.1664
 2177TIP3    H127946   1.689   3.618  14.431  0.5400 -0.6356 -0.7242
 2177TIP3    H227947   1.638   3.619  14.289 -1.6556  1.6424  0.0107
 2178TIP3   OH227948   5.245   2.121  14.587 -0.1593  0.5144 -0.9125
 2178TIP3    H127949   5.283   2.208  14.604  0.1778  0.8357 -3.0005
 2178TIP3    H227950   5.162   2.140  14.542  0.6125 -0.1994 -2.7403
 2179TIP3   OH227951   4.904   3.932   2.210  0.8284 -0.2861  0.1403
 2179TIP3    H127952   4.909   3.880   2.130 -0.2333 -0.3605  0.1061
 2179TIP3    H227953   4.823   3.902   2.253  0.6729  0.7113  0.5644
 2180TIP3   OH227954   5.126   2.282   3.525  0.0095  0.4063  0.0785
 2180TIP3    H127955   5.083   2.248   3.447 -0.4758 -2.1132  1.3647
 2180TIP3    H227956   5.210   2.315   3.493 -1.7384  3.2271 -2.0882
 2181TIP3   OH227957   0.957   0.519   0.118  0.8815  0.2272  0.1483
 2181TIP3    H127958   0.969   0.522   0.213  2.7894 -1.6291  0.0298
 2181TIP3    H227959   1.005   0.595   0.085 -0.4097  1.3083  0.6646
 2182TIP3   OH227960   3.854   2.712  16.406 -0.9870 -0.3998  0.8869
 2182TIP3    H127961   3.857   2.727  16.311 -0.1602 -0.8992  0.8249
 2182TIP3    H227962   3.838   2.618  16.415 -1.7422 -0.2390  1.2506
 2183TIP3   OH227963   1.968   2.164   4.842  0.6367 -0.0388 -0.5763
 2183TIP3    H127964   2.014   2.163   4.926  1.3069  1.0091 -0.9083
 2183TIP3    H227965   2.018   2.225   4.788 -0.2433 -0.0842 -1.4753
 2184TIP3   OH227966   5.490   3.462  15.551  0.2702  0.4812  0.0559
 2184TIP3    H127967   5.441   3.448  15.470  0.8461 -0.0437 -0.2080
 2184TIP3    H227968   5.491   3.376  15.593 -1.6363  1.1158  1.5687
 2185TIP3   OH227969   5.043   6.608  13.129 -0.0387  0.4160 -0.4872
 2185TIP3    H127970   5.045   6.532  13.187  0.1164  0.6322 -0.2048
 2185TIP3    H227971   5.019   6.573  13.043 -0.8946  0.1776 -0.1647
 2186TIP3   OH227972   0.678   3.122   4.368 -0.1118 -0.1447  0.0684
 2186TIP3    H127973   0.675   3.071   4.286 -0.5242  1.0466 -0.6874
 2186TIP3    H227974   0.764   3.102   4.405  0.0250 -0.8163 -0.5831
 2187TIP3   OH227975   4.925   3.446   0.636  0.2850 -0.0465  0.1063
 2187TIP3    H127976   4.986   3.391   0.586  1.3220 -1.0600  2.3297
 2187TIP3    H227977   4.967   3.456   0.721 -1.8854  0.6955  1.1524
 2188TIP3   OH227978   1.340   4.896   4.495  0.0281  0.0230  0.1794
 2188TIP3    H127979   1.313   4.819   4.544 -0.1471 -0.0336 -0.0049
 2188TIP3    H227980   1.335   4.869   4.403 -0.1679  0.2942  0.1094
 2189TIP3   OH227981   5.241   1.519   5.408 -0.4917  0.1225 -0.3193
 2189TIP3    H127982   5.312   1.504   5.471 -0.8917 -0.1248  0.0818
 2189TIP3    H227983   5.170   1.555   5.461 -1.2405 -1.1567 -0.4071
 2190TIP3   OH227984   3.017   1.274   0.432 -0.3189 -0.5321  0.2741
 2190TIP3    H127985   3.077   1.208   0.399 -0.3807 -0.4107 -0.0808
 2190TIP3    H227986   2.945   1.274   0.369  0.9993  1.9115 -1.3807
 2191TIP3   OH227987   5.819   4.582  12.740  0.1521 -1.0260 -0.4999
 2191TIP3    H127988   5.733   4.554  12.711  0.1631 -1.3320 -0.2420
 2191TIP3    H227989   5.842   4.521  12.809  0.3156 -0.5796 -0.1521
 2192TIP3   OH227990   0.979   2.128  12.362  0.1008 -0.9523 -0.1450
 2192TIP3    H127991   1.055   2.158  12.312 -0.4556 -2.0585 -1.7538
 2192TIP3    H227992   0.918   2.201  12.359  0.2859 -0.8161 -0.6437
 2193TIP3   OH227993   4.009   2.531   1.638 -0.3587  0.1258 -0.0761
 2193TIP3    H127994   3.971   2.463   1.582 -0.0998 -0.3509  0.3147
 2193TIP3    H227995   3.937   2.592   1.655 -0.8778 -0.6062  0.4105
 2194TIP3   OH227996   4.337   6.346  11.589 -0.2952  0.3179  0.5909
 2194TIP3    H127997   4.327   6.376  11.499 -0.2369 -0.8388  0.1741
 2194TIP3    H227998   4.248   6.343  11.623 -0.2974  0.9777  0.6491
 2195TIP3   OH227999   1.498   5.276   3.638  0.0106 -0.2870  0.7548
 2195TIP3    H128000   1.501   5.288   3.732  0.1283 -0.5270  0.7818
 2195TIP3    H228001   1.571   5.327   3.604  1.1069 -1.6549  0.9472
 2196TIP3   OH228002   5.771   3.917  16.142  0.0383  0.2912 -0.0206
 2196TIP3    H128003   5.805   3.870  16.065 -0.3959  2.5018 -1.6736
 2196TIP3    H228004   5.713   3.855  16.185  0.6823 -1.1809 -1.1992
 2197TIP3   OH228005   2.548   2.327  15.402  0.1318  0.9349 -0.1245
 2197TIP3    H128006   2.499   2.367  15.474 -2.2707 -0.8020 -0.6836
 2197TIP3    H228007   2.506   2.361  15.323  0.0543 -0.2878 -0.6339
 2198TIP3   OH228008   2.177   0.713  17.031 -0.1943 -0.0686  0.4036
 2198TIP3    H128009   2.175   0.621  17.058  2.4760 -0.4184 -0.3162
 2198TIP3    H228010   2.256   0.721  16.978 -0.9915  2.4072 -0.5444
 2199TIP3   OH228011   6.720   3.008   5.198  0.8280 -0.6642  0.7469
 2199TIP3    H128012   6.695   2.982   5.287  2.1695  1.3907  1.7837
 2199TIP3    H228013   6.773   2.935   5.165  0.2907 -1.4542  1.5811
 2200TIP3   OH228014   4.520   0.166  16.202  0.1897 -0.0618 -0.2188
 2200TIP3    H128015   4.579   0.142  16.272  0.0099  0.1379  0.0041
 2200TIP3    H228016   4.571   0.155  16.122  0.7151  0.6647  0.0096
 2201TIP3   OH228017   5.079   6.719   3.597 -0.4945 -0.2199  0.2548
 2201TIP3    H128018   5.011   6.654   3.574  0.5450 -1.6486  1.0502
 2201TIP3    H228019   5.158   6.667   3.608  1.2574  1.6051 -2.4890
 2202TIP3   OH228020   1.354   2.029   0.196 -0.1548  0.2136 -0.6080
 2202TIP3    H128021   1.293   1.976   0.248 -1.0357  1.3977 -0.3954
 2202TIP3    H228022   1.432   2.036   0.252  0.8886 -2.6155 -1.5131
 2203TIP3   OH228023   5.354   5.517   0.544 -0.3136  0.6770  1.0145
 2203TIP3    H128024   5.336   5.442   0.601 -0.3123  0.6882  1.0296
 2203TIP3    H228025   5.311   5.496   0.461 -0.4895  0.7531  1.0866
 2204TIP3   OH228026   4.863   3.269   6.157 -0.1279  0.3615  0.0155
 2204TIP3    H128027   4.848   3.336   6.224 -1.3335  0.1792 -0.0405
 2204TIP3    H228028   4.890   3.192   6.207  0.1551  0.5683  0.1857
 2205TIP3   OH228029   4.179   5.602   0.856 -0.1786  0.2128  0.7839
 2205TIP3    H128030   4.206   5.540   0.788 -0.7654  0.9769 -0.1678
 2205TIP3    H228031   4.183   5.551   0.938 -0.9853 -1.1877 -0.0088
 2206TIP3   OH228032   2.751   4.615  16.232 -1.0874  0.1801 -0.1557
 2206TIP3    H128033   2.706   4.649  16.155 -2.0482  0.0235  0.3215
 2206TIP3    H228034   2.694   4.638  16.306 -1.2850 -1.5510  0.2876
 2207TIP3   OH228035   1.534   3.926  13.235  0.0117  0.0159 -1.4328
 2207TIP3    H128036   1.548   3.894  13.146  0.9094  1.0487 -1.6853
 2207TIP3    H228037   1.553   4.020  13.230 -1.6048  0.4180 -0.5102
 2208TIP3   OH228038   6.676   2.246   4.145 -0.1598  0.6517  0.4773
 2208TIP3    H128039   6.663   2.297   4.065  1.7544  2.6391  1.3507
 2208TIP3    H228040   6.705   2.160   4.114 -1.5726  0.6331 -0.9742
 2209TIP3   OH228041   1.485   0.674  14.724 -0.4689  0.0650  0.3423
 2209TIP3    H128042   1.567   0.714  14.753 -1.0785  2.8997 -1.4218
 2209TIP3    H228043   1.469   0.604  14.786  1.8365  1.2415  2.4417
 2210TIP3   OH228044   4.355   6.733   2.518  0.0760 -0.1705  0.6283
 2210TIP3    H128045   4.397   6.657   2.477  1.3501  0.2054  1.1914
 2210TIP3    H228046   4.322   6.701   2.601  1.1364 -0.0035  1.1351
 2211TIP3   OH228047   2.753   6.170  14.667 -0.1567  0.0608  0.6350
 2211TIP3    H128048   2.752   6.223  14.587  0.3321 -0.2848  0.3930
 2211TIP3    H228049   2.839   6.188  14.707 -0.0556 -0.4085  0.6401
 2212TIP3   OH228050   6.613   2.867   2.566  0.3327 -0.7768  0.4966
 2212TIP3    H128051   6.621   2.907   2.479  0.5474  2.8966  2.0102
 2212TIP3    H228052   6.704   2.855   2.595  0.2753 -0.5688  0.7683
 2213TIP3   OH228053   6.022   1.110  15.914  0.1576  0.2127 -0.7006
 2213TIP3    H128054   6.006   1.022  15.881 -1.0098 -0.2668  0.9961
 2213TIP3    H228055   6.097   1.101  15.974  0.8991  0.6589 -1.5310
 2214TIP3   OH228056   0.075   3.108  11.762  0.4402  0.3572  0.6911
 2214TIP3    H128057   0.161   3.134  11.728  0.5783  0.7389  1.3047
 2214TIP3    H228058   0.020   3.099  11.685  0.8995  0.6192  0.3290
 2215TIP3   OH228059   6.150   1.167  14.501 -0.4377 -0.2267  0.1631
 2215TIP3    H128060   6.185   1.254  14.522 -0.8310 -0.4264  1.7641
 2215TIP3    H228061   6.083   1.184  14.434 -1.1961  0.8479  1.1388
 2216TIP3   OH228062   0.700   0.178   0.086  0.1765 -0.8333  0.3423
 2216TIP3    H128063   0.690   0.268   0.054 -1.7204 -1.3451 -0.6745
 2216TIP3    H228064   0.788   0.152   0.057  1.4742  1.1921  2.1324
 2217TIP3   OH228065   2.790   5.785   5.507 -0.0066  0.1609  0.2125
 2217TIP3    H128066   2.831   5.723   5.567  0.1192  0.5566  0.5420
 2217TIP3    H228067   2.709   5.811   5.551  1.2080  2.2771  1.3887
 2218TIP3   OH228068   1.641   0.353   3.944  0.1849  0.1327  0.5680
 2218TIP3    H128069   1.655   0.275   3.891  1.6407 -0.2923  1.5153
 2218TIP3    H228070   1.694   0.421   3.900 -1.2462  0.6861 -0.3774
 2219TIP3   OH228071   3.053   6.729  13.753 -0.5757 -0.0776  0.4147
 2219TIP3    H128072   3.118   6.786  13.711  1.7388 -0.7050  2.8908
 2219TIP3    H228073   3.002   6.693  13.680  0.6129  1.8948 -1.5039
 2220TIP3   OH228074   6.673   5.805   3.011 -0.3800 -0.4979 -0.7103
 2220TIP3    H128075   6.681   5.861   2.935  0.4816 -1.2861 -1.2259
 2220TIP3    H228076   6.614   5.735   2.984 -1.9683  0.4437  0.1353
 2221TIP3   OH228077   6.533   5.474   1.990  0.6954 -0.3117 -0.1288
 2221TIP3    H128078   6.574   5.464   1.904 -1.2655  0.6589 -1.2449
 2221TIP3    H228079   6.520   5.568   2.000  0.3352 -0.4619  0.9588
 2222TIP3   OH228080   0.656   1.037   5.841  0.2704 -0.5551 -0.0063
 2222TIP3    H128081   0.604   1.115   5.862 -0.3648 -1.2783  1.2172
 2222TIP3    H228082   0.603   0.990   5.776 -1.0015 -1.6101  1.6978
 2223TIP3   OH228083   5.337   3.272  13.966 -0.2314 -0.0314 -0.6277
 2223TIP3    H128084   5.336   3.299  14.058 -0.8819  1.0447 -0.9353
 2223TIP3    H228085   5.405   3.327  13.926  1.3325 -1.7443 -0.4571
 2224TIP3   OH228086   0.241   4.939   2.510 -1.1202 -0.1454 -0.0523
 2224TIP3    H128087   0.218   4.847   2.525 -1.1657 -0.0652  0.3941
 2224TIP3    H228088   0.169   4.988   2.549 -0.3173  0.1049  1.1722
 2225TIP3   OH228089   0.490   0.248   5.592 -0.1079  0.1062  0.0567
 2225TIP3    H128090   0.504   0.210   5.505  1.5896  0.8925 -0.0517
 2225TIP3    H228091   0.522   0.181   5.653  0.1752  0.1851 -0.0035
 2226TIP3   OH228092   0.204   1.912  16.238 -0.3006 -0.6268 -0.2498
 2226TIP3    H128093   0.134   1.977  16.226 -0.6275 -1.1653 -1.3457
 2226TIP3    H228094   0.165   1.829  16.212  0.7994 -0.9128 -1.0676
 2227TIP3   OH228095   4.582   2.456  11.445  0.1365  0.0896  0.0101
 2227TIP3    H128096   4.587   2.448  11.540 -1.0708 -1.1204  0.0085
 2227TIP3    H228097   4.574   2.366  11.414 -0.1337  0.5123 -1.1903
 2228TIP3   OH228098   4.746   2.324  14.294  0.3665  0.1498 -0.0890
 2228TIP3    H128099   4.762   2.418  14.289  1.1702 -0.0060 -0.5703
 2228TIP3    H228100   4.833   2.285  14.289  0.2942 -0.5471  2.5957
 2229TIP3   OH228101   4.683   4.232   0.419 -0.0697  0.0504 -0.1818
 2229TIP3    H128102   4.609   4.180   0.388  0.1445 -0.5445  0.2820
 2229TIP3    H228103   4.755   4.209   0.361  0.1707 -0.6063  0.3565
 2230TIP3   OH228104   2.423   3.341   2.557 -0.0901  0.0988 -0.1563
 2230TIP3    H128105   2.482   3.297   2.496 -1.9816 -2.7658 -0.0841
 2230TIP3    H228106   2.471   3.345   2.639  0.6550 -0.5576 -0.5559
 2231TIP3   OH228107   2.768   3.373   5.605 -0.3883  0.2655 -0.1609
 2231TIP3    H128108   2.712   3.433   5.557 -0.7303  1.5327  1.7192
 2231TIP3    H228109   2.708   3.308   5.642 -0.0619 -1.0652 -1.8732
 2232TIP3   OH228110   0.885   1.611  11.162  0.2443 -0.1652  0.2680
 2232TIP3    H128111   0.871   1.580  11.252 -1.1250  1.2402  0.5908
 2232TIP3    H228112   0.950   1.552  11.126 -0.9724 -2.3151  1.3812
 2233TIP3   OH228113   6.327   4.877   6.144  0.2246 -0.3549 -0.0378
 2233TIP3    H128114   6.263   4.890   6.214 -0.2619 -1.6104 -0.2263
 2233TIP3    H228115   6.393   4.818   6.181  0.1041 -0.8127 -0.5420
 2234TIP3   OH228116   6.719   6.562  15.491  0.1630 -0.0367  0.3811
 2234TIP3    H128117   6.663   6.631  15.525 -1.0914 -1.1097  0.5784
 2234TIP3    H228118   6.804   6.604  15.478 -0.5179  1.4838  0.6448
 2235TIP3   OH228119   3.160   3.996  16.851 -0.2951 -0.0666  0.2712
 2235TIP3    H128120   3.184   4.029  16.765  0.6041 -0.5555  0.3231
 2235TIP3    H228121   3.241   3.997  16.902 -1.0141  1.2353  1.4699
 2236TIP3   OH228122   4.041   1.965  13.913  0.2064 -0.1002 -0.5884
 2236TIP3    H128123   4.130   1.996  13.897  1.4267 -2.5933  0.7221
 2236TIP3    H228124   4.020   1.993  14.002  0.8579 -1.8086  0.1590
 2237TIP3   OH228125   1.010   2.811   2.110  0.6703 -0.1808  0.3407
 2237TIP3    H128126   1.037   2.896   2.143  1.0993 -0.5882  1.0494
 2237TIP3    H228127   0.929   2.791   2.157  1.8914 -1.2911  2.0878
 2238TIP3   OH228128   3.793   2.507  12.703  0.2870  0.4346  0.2173
 2238TIP3    H128129   3.751   2.580  12.746 -0.5698  0.8178 -1.2290
 2238TIP3    H228130   3.811   2.444  12.774  0.5967  1.8029  1.3878
 2239TIP3   OH228131   4.200   4.328  14.568  0.3772 -0.0943 -0.3540
 2239TIP3    H128132   4.225   4.386  14.496 -0.1653 -0.3030 -0.7200
 2239TIP3    H228133   4.245   4.364  14.644  2.4867 -0.9451 -1.1146
 2240TIP3   OH228134   1.174   1.034   0.373  0.2174  0.4521  0.0709
 2240TIP3    H128135   1.195   0.958   0.427 -4.1129 -0.7900  0.4403
 2240TIP3    H228136   1.167   0.999   0.284  1.0672  1.1037 -0.2638
 2241TIP3   OH228137   2.548   2.752  12.192  0.7735  0.2145 -0.3735
 2241TIP3    H128138   2.454   2.739  12.198  0.8919 -0.3290  0.3939
 2241TIP3    H228139   2.563   2.773  12.100  0.0525 -0.9299 -0.7677
 2242TIP3   OH228140   0.504   5.126  11.363  0.0431  0.0779  0.3787
 2242TIP3    H128141   0.419   5.113  11.405 -0.1886 -3.4286 -0.8783
 2242TIP3    H228142   0.559   5.165  11.432 -1.5312 -1.1832  2.4685
 2243TIP3   OH228143   2.931   4.277  11.631  0.2052  0.2934  0.3423
 2243TIP3    H128144   2.841   4.302  11.609  0.0972 -0.4489 -0.0914
 2243TIP3    H228145   2.922   4.224  11.710  0.2272 -0.0493  0.1158
 2244TIP3   OH228146   6.074   5.591  12.753 -0.0065 -0.0849  0.3460
 2244TIP3    H128147   6.119   5.579  12.837  1.1280  0.1083 -0.2150
 2244TIP3    H228148   6.052   5.684  12.750  0.0504 -0.0707  0.3777
 2245TIP3   OH228149   6.016   3.834   1.932  0.7620 -0.7894  0.2494
 2245TIP3    H128150   6.072   3.880   1.994  2.4288 -0.8449 -1.1310
 2245TIP3    H228151   5.929   3.869   1.948  1.6996  1.7670  0.2881
 2246TIP3   OH228152   3.196   0.971  16.106  0.3871  0.3056 -0.0204
 2246TIP3    H128153   3.253   0.909  16.060 -0.1246  1.3125 -2.1012
 2246TIP3    H228154   3.134   1.001  16.040  0.8047  3.2828  0.7792
 2247TIP3   OH228155   6.018   3.529   1.663  0.9226  0.0827 -0.0959
 2247TIP3    H128156   6.063   3.466   1.606  0.7415 -1.6174  1.5077
 2247TIP3    H228157   5.931   3.492   1.676  1.8639 -1.2845  3.5593
 2248TIP3   OH228158   5.028   2.493  11.705  0.4433  0.0669 -0.4134
 2248TIP3    H128159   4.980   2.440  11.769  1.8942 -0.6821  0.1169
 2248TIP3    H228160   5.028   2.440  11.625  0.3015  0.1111 -0.4426
 2249TIP3   OH228161   0.625   5.629  13.322  0.5992 -0.0385 -0.0311
 2249TIP3    H128162   0.618   5.717  13.359  1.6303 -0.9471  2.5321
 2249TIP3    H228163   0.565   5.630  13.247 -0.1047  2.5536  0.4629
 2250TIP3   OH228164   3.591   2.930  10.715  0.0039  0.3398  0.1229
 2250TIP3    H128165   3.665   2.890  10.670 -0.8109 -0.0700 -0.9111
 2250TIP3    H228166   3.608   3.024  10.714 -0.4540  0.4594 -2.0057
 2251TIP3   OH228167   3.430   1.081   1.649 -0.1743 -0.1513 -0.4447
 2251TIP3    H128168   3.499   1.078   1.716 -1.0685 -3.0172  0.5053
 2251TIP3    H228169   3.477   1.074   1.566  0.8636  1.8406 -0.0727
 2252TIP3   OH228170   3.930   1.563   4.378 -0.6181 -0.3442 -0.1906
 2252TIP3    H128171   3.977   1.519   4.307 -0.5386 -0.0280 -0.3394
 2252TIP3    H228172   3.959   1.654   4.372 -0.0567 -0.4518  0.7014
 2253TIP3   OH228173   0.118   3.999   5.197 -0.0089  0.0537 -0.0773
 2253TIP3    H128174   0.047   3.957   5.148 -0.4330 -0.3468  0.8621
 2253TIP3    H228175   0.080   4.018   5.283  0.6546  0.9695  0.0246
 2254TIP3   OH228176   0.703   1.421   4.052  0.1449 -0.0945 -0.1508
 2254TIP3    H128177   0.693   1.326   4.046  0.5117 -0.2100  0.7796
 2254TIP3    H228178   0.794   1.437   4.028 -1.0687  0.6364 -5.5876
 2255TIP3   OH228179   5.665   2.898  16.780 -0.3300  0.0073 -0.3182
 2255TIP3    H128180   5.570   2.889  16.790 -0.2629  0.6182  0.9996
 2255TIP3    H228181   5.694   2.810  16.756 -1.0206 -0.6458  1.1314
 2256TIP3   OH228182   2.615   4.844  12.306  0.0641  0.5402  0.1322
 2256TIP3    H128183   2.666   4.925  12.309  0.7492  0.1408 -0.2351
 2256TIP3    H228184   2.589   4.835  12.214 -0.1275  0.4155  0.1974
 2257TIP3   OH228185   2.658   3.238   5.248 -0.1646 -0.2692 -0.4118
 2257TIP3    H128186   2.660   3.288   5.166  0.0417 -0.4248 -0.5025
 2257TIP3    H228187   2.577   3.265   5.290 -0.4501 -0.4543 -0.8361
 2258TIP3   OH228188   3.857   0.684   4.991  0.0159  0.2340  0.6529
 2258TIP3    H128189   3.887   0.748   5.056  0.4388  1.0777 -0.3514
 2258TIP3    H228190   3.903   0.603   5.014  2.3802  1.2347 -0.2429
 2259TIP3   OH228191   2.860   6.562  14.816  0.1050  0.2542 -0.7776
 2259TIP3    H128192   2.938   6.523  14.778 -0.0736  0.8653 -1.7999
 2259TIP3    H228193   2.855   6.523  14.904  1.7008  0.3957 -0.5756
 2260TIP3   OH228194   6.389   5.790  11.632  0.2100 -0.2371 -0.5509
 2260TIP3    H128195   6.391   5.727  11.560  0.1025 -0.8964  0.0058
 2260TIP3    H228196   6.380   5.875  11.589 -0.4476 -0.6622 -1.2996
 2261TIP3   OH228197   3.420   6.354   2.781  0.5047 -0.6562  0.1672
 2261TIP3    H128198   3.340   6.302   2.793  1.4722 -2.2264  0.1553
 2261TIP3    H228199   3.452   6.330   2.694  0.1049  1.2901 -0.5699
 2262TIP3   OH228200   3.811   0.252   4.013 -0.0890  0.3871 -0.1545
 2262TIP3    H128201   3.748   0.316   3.980 -0.6694 -0.5600 -0.9388
 2262TIP3    H228202   3.837   0.201   3.936 -0.0756 -0.6837  0.5279
 2263TIP3   OH228203   6.459   2.216  12.923 -0.1135  0.3994 -0.1955
 2263TIP3    H128204   6.401   2.183  12.992 -1.4423  0.1111 -1.4136
 2263TIP3    H228205   6.435   2.308  12.912  1.2640  0.9226  0.8539
 2264TIP3   OH228206   6.484   5.594   5.960 -0.3720 -0.0743  0.3118
 2264TIP3    H128207   6.520   5.659   6.021  0.9983  0.4858 -1.0434
 2264TIP3    H228208   6.458   5.644   5.883  0.5757 -1.0878 -0.7015
 2265TIP3   OH228209   4.549   5.651   1.334 -0.1052 -0.1263  0.6661
 2265TIP3    H128210   4.601   5.715   1.383 -0.8651 -0.1245  1.4802
 2265TIP3    H228211   4.543   5.575   1.392 -0.3044 -0.4420  0.2360
 2266TIP3   OH228212   1.216   0.145   3.218 -0.4357 -0.5256  0.1340
 2266TIP3    H128213   1.133   0.135   3.264  1.2681  2.1042  4.5123
 2266TIP3    H228214   1.216   0.236   3.188  0.7852 -0.4694  0.2461
 2267TIP3   OH228215   6.642   3.124   2.821  0.3103 -0.1831  0.6070
 2267TIP3    H128216   6.655   3.217   2.800  1.5345 -0.4478  0.0665
 2267TIP3    H228217   6.718   3.080   2.782 -0.2554 -1.4192  0.8397
 2268TIP3   OH228218   0.881   6.645  11.954  0.0803 -0.1863  0.2520
 2268TIP3    H128219   0.938   6.722  11.958  1.5574 -1.2352  0.6892
 2268TIP3    H228220   0.890   6.614  11.863 -2.4033  1.4354 -0.6532
 2269TIP3   OH228221   3.042   0.309   5.498 -0.3120 -0.1459 -0.6198
 2269TIP3    H128222   2.964   0.360   5.473 -0.4462  0.7380  1.3649
 2269TIP3    H228223   3.113   0.346   5.445  0.3060  4.5988  2.7694
 2270TIP3   OH228224   0.134   3.849  13.252  0.0962  0.0469 -0.1030
 2270TIP3    H128225   0.228   3.844  13.237  0.0746 -0.3727 -0.0939
 2270TIP3    H228226   0.102   3.907  13.182  0.4188  0.5688  0.1715
 2271TIP3   OH228227   4.677   6.688  15.461 -0.0870 -0.4865 -0.5213
 2271TIP3    H128228   4.767   6.716  15.443 -0.4536  1.9062  0.8876
 2271TIP3    H228229   4.623   6.752  15.415 -0.9947  0.8980  2.2544
 2272TIP3   OH228230   1.678   3.370  11.296 -0.1269 -0.5730  0.3802
 2272TIP3    H128231   1.689   3.294  11.239  1.2214 -0.2496  0.1648
 2272TIP3    H228232   1.751   3.364  11.358 -1.5152 -0.8608  2.0341
 2273TIP3   OH228233   5.987   2.584  11.643  0.3064  0.1246 -0.2139
 2273TIP3    H128234   5.950   2.665  11.608 -0.6260  0.4153  1.3675
 2273TIP3    H228235   5.935   2.565  11.721  1.3107 -1.3320  0.1458
 2274TIP3   OH228236   2.135   2.803   0.847  0.0157 -0.2036  0.8482
 2274TIP3    H128237   2.091   2.733   0.797 -0.0073  0.1445  0.3701
 2274TIP3    H228238   2.228   2.790   0.830 -0.0601  2.1384 -2.4656
 2275TIP3   OH228239   2.362   4.786  12.595 -0.0385  0.7202  0.1459
 2275TIP3    H128240   2.373   4.731  12.518  0.1671 -0.5838  1.0860
 2275TIP3    H228241   2.349   4.874  12.559 -0.3395  0.0867 -1.3797
 2276TIP3   OH228242   1.030   0.259   5.855  1.0147  0.1096 -0.1802
 2276TIP3    H128243   0.948   0.304   5.876 -0.0435 -2.2332  0.9809
 2276TIP3    H228244   1.084   0.269   5.933  0.4327 -1.2837  0.4361
 2277TIP3   OH228245   6.327   3.715   5.379 -0.4622 -0.6813 -0.5068
 2277TIP3    H128246   6.370   3.680   5.456  1.5248  0.1448 -1.1799
 2277TIP3    H228247   6.343   3.649   5.310  0.0891 -0.1900 -0.8569
 2278TIP3   OH228248   5.508   5.186   3.480  0.5851 -0.4402  0.1193
 2278TIP3    H128249   5.553   5.121   3.534 -0.0901 -0.6944  0.3979
 2278TIP3    H228250   5.520   5.157   3.390  0.7779 -0.6263  0.2053
 2279TIP3   OH228251   1.971   0.222  13.923  0.2256  0.1916 -0.6779
 2279TIP3    H128252   1.947   0.308  13.888  0.0166  0.9622  1.2038
 2279TIP3    H228253   2.053   0.238  13.970  0.0582 -0.5685 -0.1077
 2280TIP3   OH228254   4.317   5.459  14.387  0.2873  0.3482  0.7871
 2280TIP3    H128255   4.316   5.534  14.447  0.3993  1.4280 -0.5218
 2280TIP3    H228256   4.292   5.384  14.442 -0.2191  1.4026  2.0440
 2281TIP3   OH228257   5.630   4.087  16.345  0.1981 -0.1064  0.1799
 2281TIP3    H128258   5.689   4.040  16.287  0.1724  0.6887 -0.5137
 2281TIP3    H228259   5.610   4.168  16.298  0.7632  0.8975  1.6113
 2282TIP3   OH228260   2.646   2.215   0.277 -0.0810 -0.1937  0.5778
 2282TIP3    H128261   2.731   2.199   0.318  0.6946  0.0598 -0.8809
 2282TIP3    H228262   2.603   2.129   0.279  0.3866 -0.4275  0.9111
 2283TIP3   OH228263   0.535   5.073  13.009 -0.1794  0.0364 -0.0031
 2283TIP3    H128264   0.562   5.074  13.101  0.0512 -0.8795 -0.0490
 2283TIP3    H228265   0.442   5.094  13.011  0.0812  1.2326  0.3289
 2284TIP3   OH228266   3.372   4.030  17.250 -0.6027  0.4004 -0.3845
 2284TIP3    H128267   3.462   4.052  17.276 -0.6412 -0.4496  0.5088
 2284TIP3    H228268   3.329   4.115  17.241  0.6396  0.9048 -2.2066
 2285TIP3   OH228269   0.247   5.217   0.080 -0.1842  0.4849  0.2253
 2285TIP3    H128270   0.342   5.228   0.076 -0.0551 -0.5854 -0.1027
 2285TIP3    H228271   0.212   5.306   0.080  0.7546  0.9079 -1.7360
 2286TIP3   OH228272   4.537   2.655  17.213 -0.1479 -0.2326  0.2351
 2286TIP3    H128273   4.603   2.590  17.237  1.1525  0.7343 -0.5908
 2286TIP3    H228274   4.468   2.644  17.278  0.8094 -1.2842  1.1145
 2287TIP3   OH228275   0.312   2.891   5.487 -0.1491  0.4078 -0.0318
 2287TIP3    H128276   0.402   2.869   5.510 -0.0346  1.8679  1.1020
 2287TIP3    H228277   0.320   2.966   5.428 -0.6210  0.4690 -0.0283
 2288TIP3   OH228278   6.380   1.242   1.105 -0.4968  0.5029 -0.0436
 2288TIP3    H128279   6.381   1.151   1.077 -0.7316  0.2241  0.8251
 2288TIP3    H228280   6.422   1.290   1.034 -0.3654 -0.2827 -0.4999
 2289TIP3   OH228281   3.198   2.796   6.260 -0.1261  0.3192 -0.3923
 2289TIP3    H128282   3.105   2.779   6.245  0.1627 -1.6622 -0.1549
 2289TIP3    H228283   3.209   2.889   6.238 -1.8369  0.1985 -1.9973
 2290TIP3   OH228284   2.597   0.094  14.428  0.3118  0.4725  0.1607
 2290TIP3    H128285   2.689   0.118  14.422  0.8679 -1.3070  0.7260
 2290TIP3    H228286   2.593   0.005  14.391 -0.5348 -0.7999  2.9889
 2291TIP3   OH228287   3.351   5.076   6.706  0.8188 -0.1081 -1.3918
 2291TIP3    H128288   3.269   5.116   6.677 -0.8135 -1.8299  0.5532
 2291TIP3    H228289   3.385   5.031   6.629 -0.6881 -0.3436 -1.9447
 2292TIP3   OH228290   4.641   0.503   1.845  0.2973 -0.0809 -0.1130
 2292TIP3    H128291   4.565   0.462   1.887  0.7331 -1.5352 -0.6746
 2292TIP3    H228292   4.656   0.450   1.766  1.1897  0.8948 -0.6163
 2293TIP3   OH228293   1.856   4.361   2.323 -0.3089  0.8255  0.0319
 2293TIP3    H128294   1.862   4.367   2.418 -2.4487  2.2872  0.1442
 2293TIP3    H228295   1.914   4.429   2.290  0.5585  0.2116  0.2510
 2294TIP3   OH228296   1.039   5.833  16.243 -0.1475  0.5639 -0.1577
 2294TIP3    H128297   1.009   5.899  16.181 -0.5194  0.7188  0.1860
 2294TIP3    H228298   1.111   5.789  16.197  1.4694  2.5325  0.3541
 2295TIP3   OH228299   6.065   3.052  16.101  0.3321 -0.7501 -0.1210
 2295TIP3    H128300   6.118   3.080  16.027  1.8435 -2.2776  0.3135
 2295TIP3    H228301   6.069   2.956  16.099  0.5426 -0.8467  1.9708
 2296TIP3   OH228302   0.740   6.692  17.108  0.2704 -0.4007 -0.1664
 2296TIP3    H128303   0.651   6.716  17.084  0.7685  0.3325 -1.3935
 2296TIP3    H228304   0.793   6.768  17.084  1.3442 -1.1678 -0.3178
 2297TIP3   OH228305   1.316   1.476   5.199 -0.6699 -0.5060 -0.9829
 2297TIP3    H128306   1.281   1.408   5.256  1.6178  0.5706  1.9753
 2297TIP3    H228307   1.404   1.444   5.176 -0.8873 -0.0862 -2.4724
 2298TIP3   OH228308   1.604   5.899   0.836 -0.4133  0.3181  0.0724
 2298TIP3    H128309   1.592   5.924   0.927 -0.5751  0.1206  0.1041
 2298TIP3    H228310   1.592   5.981   0.787 -0.5987  0.3710  0.2054
 2299TIP3   OH228311   4.945   5.194  13.347  0.0847 -0.4866 -0.1253
 2299TIP3    H128312   4.915   5.284  13.352 -1.7362 -1.0778  0.5318
 2299TIP3    H228313   4.973   5.182  13.256  1.3556  0.9990  0.0338
 2300TIP3   OH228314   1.006   5.467   1.538  0.0702 -0.0872  0.1549
 2300TIP3    H128315   0.955   5.508   1.468 -2.2059 -1.7462  0.7231
 2300TIP3    H228316   0.950   5.472   1.615 -0.0807 -3.5127  0.4226
 2301TIP3   OH228317   0.587   4.657   4.120  0.2167 -0.2164 -0.1422
 2301TIP3    H128318   0.617   4.621   4.204  2.2427 -3.5949 -2.0679
 2301TIP3    H228319   0.642   4.735   4.107 -0.9146  1.0622  2.0344
 2302TIP3   OH228320   1.321   4.638  14.984  0.1583 -0.2048  0.0699
 2302TIP3    H128321   1.409   4.626  15.021 -0.1324 -0.0171  0.8372
 2302TIP3    H228322   1.315   4.731  14.966 -0.0552 -0.1487  0.4450
 2303TIP3   OH228323   1.298   5.058  13.684 -0.0866 -0.1923  0.3929
 2303TIP3    H128324   1.265   5.126  13.626 -1.0783  1.1273  2.3837
 2303TIP3    H228325   1.390   5.081  13.700  0.2775 -0.7339 -0.8240
 2304TIP3   OH228326   0.294   3.479  16.626 -0.2842 -0.3216  0.0433
 2304TIP3    H128327   0.352   3.555  16.628  0.9929 -1.2588 -0.0451
 2304TIP3    H228328   0.218   3.508  16.575  0.0217  0.9848  0.3000
 2305TIP3   OH228329   0.335   1.224   3.706  0.2474  0.0662 -0.1123
 2305TIP3    H128330   0.383   1.266   3.778 -0.0600 -0.8857  0.6868
 2305TIP3    H228331   0.290   1.295   3.662 -0.2750  0.5760  1.2072
 2306TIP3   OH228332   4.332   5.888   3.130 -0.2287  0.3380  0.1021
 2306TIP3    H128333   4.267   5.914   3.065  1.4410  0.8635 -1.4570
 2306TIP3    H228334   4.297   5.919   3.213 -1.5683  1.3564 -0.8002
 2307TIP3   OH228335   2.632   1.491   0.023  0.1178  0.0889 -0.2095
 2307TIP3    H128336   2.561   1.505  -0.040  0.8094 -0.0310 -1.0177
 2307TIP3    H228337   2.590   1.504   0.109 -0.5950  1.3032 -0.7174
 2308TIP3   OH228338   0.698   5.514   1.990 -0.5672 -0.8190  0.0277
 2308TIP3    H128339   0.773   5.471   2.033  0.2029  0.8880  0.4617
 2308TIP3    H228340   0.627   5.508   2.054  0.7208  2.2005  1.9504
 2309TIP3   OH228341   1.605   2.977  12.482 -0.0293 -0.2703  0.1358
 2309TIP3    H128342   1.543   2.919  12.527  0.9157  0.2960  2.3089
 2309TIP3    H228343   1.551   3.027  12.420 -1.3078 -1.4818  0.2223
 2310TIP3   OH228344   4.415   6.712  15.100 -0.5617  0.6377 -0.4050
 2310TIP3    H128345   4.427   6.693  15.007 -3.0772  0.1364 -0.7022
 2310TIP3    H228346   4.435   6.805  15.108  0.3737  0.5310 -1.2909
 2311TIP3   OH228347   3.617   1.937   0.428  0.5243  0.0340  0.3349
 2311TIP3    H128348   3.547   1.940   0.363  0.2019 -1.1556  0.6051
 2311TIP3    H228349   3.595   2.006   0.490  0.0191  0.1884 -0.0045
 2312TIP3   OH228350   4.668   6.099  10.739  0.0725 -0.2683  0.4144
 2312TIP3    H128351   4.647   6.127  10.829 -0.4841  1.5907 -0.2528
 2312TIP3    H228352   4.730   6.164  10.708  0.5516 -1.1166 -0.4456
 2313TIP3   OH228353   2.207   3.554  11.971 -0.5345 -0.7628 -0.0700
 2313TIP3    H128354   2.296   3.556  11.936 -0.8470  0.9924 -0.8524
 2313TIP3    H228355   2.188   3.461  11.984  1.1564 -1.1969 -0.5210
 2314TIP3   OH228356   1.068   0.646  11.491  0.5817  0.1650 -0.2210
 2314TIP3    H128357   1.020   0.564  11.478 -2.8281  1.9632 -0.2845
 2314TIP3    H228358   1.115   0.660  11.409 -0.6965 -0.6346 -1.1338
 2315TIP3   OH228359   3.002   6.515   5.682  0.3782 -0.1571  0.4071
 2315TIP3    H128360   2.953   6.542   5.760 -0.9358 -0.3436 -0.3329
 2315TIP3    H228361   3.089   6.492   5.715 -0.4581 -1.1985  1.9580
 2316TIP3   OH228362   5.696   5.524  11.769 -0.7830  0.9912 -0.2777
 2316TIP3    H128363   5.730   5.601  11.816  1.7406 -0.2495  0.0770
 2316TIP3    H228364   5.676   5.461  11.838  1.1351 -0.1475 -0.6986
 2317TIP3   OH228365   5.740   1.581   2.011  0.0519 -0.2403  0.3886
 2317TIP3    H128366   5.705   1.645   2.072  1.2663  2.0285 -1.1475
 2317TIP3    H228367   5.810   1.538   2.060 -0.9928 -0.6829  1.5491
 2318TIP3   OH228368   1.746   4.418  14.028  0.1978  0.3427 -0.3879
 2318TIP3    H128369   1.656   4.449  14.019  0.3513  1.7556  2.1931
 2318TIP3    H228370   1.800   4.496  14.013  0.9339 -0.1443 -0.3259
 2319TIP3   OH228371   6.229   4.549   0.773  0.0564 -0.3950  0.1235
 2319TIP3    H128372   6.309   4.585   0.734 -0.1083 -0.3918 -0.2127
 2319TIP3    H228373   6.260   4.499   0.849  0.2941  0.3925  0.5532
 2320TIP3   OH228374   6.401   0.597   2.860 -0.4906  0.4451 -0.3241
 2320TIP3    H128375   6.354   0.539   2.920 -1.1241  1.2076 -0.0685
 2320TIP3    H228376   6.416   0.543   2.782 -0.7166 -0.1847  0.0623
 2321TIP3   OH228377   4.978   5.237  12.746  0.7559 -0.1163 -0.0039
 2321TIP3    H128378   4.895   5.285  12.752  1.1726  0.4554  1.7824
 2321TIP3    H228379   4.992   5.226  12.652 -0.5191  1.2160 -0.3905
 2322TIP3   OH228380   4.058   4.377   6.017 -0.0852  0.0686  0.1458
 2322TIP3    H128381   4.144   4.364   6.058 -0.8252 -0.7465  1.4820
 2322TIP3    H228382   3.997   4.384   6.090 -1.1792  0.5803 -0.7902
 2323TIP3   OH228383   4.969   6.198  14.849  0.3636 -0.0877  0.3879
 2323TIP3    H128384   5.047   6.252  14.857  0.7941 -0.6657  0.1705
 2323TIP3    H228385   4.899   6.259  14.826  1.0068  0.2580 -0.7171
 2324TIP3   OH228386   5.992   6.431   2.883  0.0426  0.6823 -0.0535
 2324TIP3    H128387   6.004   6.495   2.812  0.7187 -1.0821 -1.6006
 2324TIP3    H228388   5.976   6.348   2.839  2.5641 -0.9286  1.7829
 2325TIP3   OH228389   0.128   2.788  12.940 -0.5966 -0.3592 -0.1698
 2325TIP3    H128390   0.097   2.782  12.849 -1.9058 -0.7557  0.2808
 2325TIP3    H228391   0.058   2.833  12.986 -0.9410 -2.0753  1.0822
 2326TIP3   OH228392   5.214   2.372   5.555  0.1910 -0.3399 -0.3321
 2326TIP3    H128393   5.300   2.406   5.581 -0.2217  0.4412  0.0207
 2326TIP3    H228394   5.177   2.335   5.636 -0.2779  0.3523 -0.2214
 2327TIP3   OH228395   2.230   0.722  12.800  0.3063 -0.0411 -0.1470
 2327TIP3    H128396   2.209   0.633  12.827 -0.9902  0.5999  1.1180
 2327TIP3    H228397   2.296   0.751  12.863 -0.1141  0.2697  0.1538
 2328TIP3   OH228398   0.661   3.295  12.167  1.1165 -0.3400 -0.5668
 2328TIP3    H128399   0.566   3.287  12.166  0.8703  1.5398  1.5588
 2328TIP3    H228400   0.693   3.204  12.175 -0.5116 -0.9097 -0.2707
 2329TIP3   OH228401   6.217   6.024   1.351 -0.0515  0.7144  0.0969
 2329TIP3    H128402   6.254   5.990   1.433 -2.8889  1.2287  1.7090
 2329TIP3    H228403   6.283   6.086   1.320  2.0904 -1.0625  0.7537
 2330TIP3   OH228404   0.783   4.071   4.451 -0.5476 -0.0166 -0.1391
 2330TIP3    H128405   0.803   4.027   4.533 -0.4283  0.7912  0.2808
 2330TIP3    H228406   0.688   4.060   4.440 -0.4476 -0.7813 -0.2975
 2331TIP3   OH228407   5.286   0.049  14.774 -0.2737  0.1429 -0.1563
 2331TIP3    H128408   5.230  -0.010  14.825  1.8617 -0.3482  1.8037
 2331TIP3    H228409   5.248   0.136  14.788  0.8563  0.2269  3.4491
 2332TIP3   OH228410   1.792   3.093   0.444 -0.0413 -0.3665 -0.2171
 2332TIP3    H128411   1.861   3.030   0.422 -0.1818 -0.2054 -1.1450
 2332TIP3    H228412   1.714   3.040   0.459  0.6302 -0.7520  2.7116
 2333TIP3   OH228413   0.810   1.297  13.003 -0.0634 -0.1418  0.3600
 2333TIP3    H128414   0.809   1.334  13.091 -2.3613 -0.2013  0.4337
 2333TIP3    H228415   0.898   1.264  12.991  0.1354 -0.6877  2.8667
 2334TIP3   OH228416   5.095   0.540  15.339  0.4277  0.2267 -0.1225
 2334TIP3    H128417   5.077   0.590  15.419  0.3900  2.7952 -1.6282
 2334TIP3    H228418   5.183   0.567  15.313 -0.3220  1.0420 -1.9960
 2335TIP3   OH228419   0.481   4.890   4.454  0.5652 -0.1244  0.0055
 2335TIP3    H128420   0.427   4.948   4.509  2.0902  1.3054  0.0703
 2335TIP3    H228421   0.418   4.831   4.413 -1.1165  1.7435 -0.2602
 2336TIP3   OH228422   0.438   3.064   5.886 -0.5293 -0.0319  0.4958
 2336TIP3    H128423   0.453   3.081   5.979 -0.0720  0.8057  0.2765
 2336TIP3    H228424   0.518   3.020   5.857 -0.4100  0.2786  0.3550
 2337TIP3   OH228425   0.258   2.253  13.268 -0.2095  0.3041  0.3863
 2337TIP3    H128426   0.194   2.274  13.200 -1.3677 -0.0744  1.3212
 2337TIP3    H228427   0.207   2.207  13.336  1.3927 -1.7163  0.3211
 2338TIP3   OH228428   1.943   2.098  11.327 -0.2302  0.1866 -0.5464
 2338TIP3    H128429   1.847   2.104  11.322 -0.3365  0.0717  0.9832
 2338TIP3    H228430   1.968   2.167  11.388  0.7085  0.4154 -1.1689
 2339TIP3   OH228431   6.761   1.058   2.191 -0.9836 -0.0341 -0.4349
 2339TIP3    H128432   6.758   1.143   2.235 -0.2343 -0.0830 -0.2740
 2339TIP3    H228433   6.689   1.008   2.230 -1.2321  0.4141 -0.3047
 2340TIP3   OH228434   1.192   6.582   1.331 -0.0861 -0.3364  0.3026
 2340TIP3    H128435   1.227   6.542   1.411 -0.8808 -1.4041  0.1468
 2340TIP3    H228436   1.166   6.507   1.277 -0.5407  0.3883 -0.5010
 2341TIP3   OH228437   0.162   6.007  13.275 -0.6366  0.2946 -0.1399
 2341TIP3    H128438   0.181   6.096  13.242  0.0787  0.2191  0.0419
 2341TIP3    H228439   0.230   5.991  13.340  0.3890 -1.1009 -1.4739
 2342TIP3   OH228440   3.897   6.595  15.047 -0.0274 -0.2116 -0.5300
 2342TIP3    H128441   3.836   6.656  15.005  0.4637  0.6193 -0.0581
 2342TIP3    H228442   3.976   6.647  15.061  0.9468 -1.3806 -1.4902
 2343TIP3   OH228443   1.989   5.816   2.199 -0.0473  0.0754  0.3638
 2343TIP3    H128444   2.017   5.894   2.152 -0.5925 -0.2795 -0.5885
 2343TIP3    H228445   1.917   5.781   2.146 -0.4028 -0.5769  1.2491
 2344TIP3   OH228446   0.883   0.994   0.206 -0.3462  0.1780 -0.9505
 2344TIP3    H128447   0.827   1.071   0.197 -0.2207  0.1734 -1.8525
 2344TIP3    H228448   0.822   0.921   0.214 -0.4653  0.3575 -0.1236
 2345TIP3   OH228449   3.986   3.360  12.000  0.2198  0.3944 -0.6776
 2345TIP3    H128450   4.069   3.408  11.990 -1.3353  3.2088 -1.1142
 2345TIP3    H228451   3.942   3.403  12.073  0.8504 -3.9222  2.6570
 2346TIP3   OH228452   2.787   3.702  11.240  0.4392  0.0676 -0.0877
 2346TIP3    H128453   2.773   3.753  11.161  0.2607  2.4681  1.4139
 2346TIP3    H228454   2.874   3.728  11.271 -0.1076  0.3446  1.2985
 2347TIP3   OH228455   0.210   4.982   1.840 -0.5607  0.5188  0.6918
 2347TIP3    H128456   0.195   5.070   1.808  0.0696  0.1732 -0.6128
 2347TIP3    H228457   0.237   4.993   1.931 -0.2614  1.6755  0.4709
 2348TIP3   OH228458   5.843   0.808  11.506  0.5047 -0.2368  0.8603
 2348TIP3    H128459   5.876   0.757  11.580  2.4870 -0.7620 -0.3150
 2348TIP3    H228460   5.774   0.754  11.469  0.1345 -0.3957  1.7582
 2349TIP3   OH228461   3.986   0.576   0.834  0.6547 -0.0596  0.2607
 2349TIP3    H128462   3.922   0.648   0.829  1.2563  0.6443  1.9944
 2349TIP3    H228463   4.071   0.620   0.839  1.0652 -0.8949  0.8972
 2350TIP3   OH228464   5.350   0.069   3.389  0.7572 -0.4270  0.1366
 2350TIP3    H128465   5.271   0.051   3.441  0.2077 -0.5125 -0.7146
 2350TIP3    H228466   5.374   0.159   3.414 -0.4094  0.1146 -0.5965
 2351TIP3   OH228467   3.226   0.642   5.849  0.1843 -0.3087 -0.4421
 2351TIP3    H128468   3.320   0.629   5.848  0.5693  2.0161 -0.0453
 2351TIP3    H228469   3.204   0.669   5.760 -0.0597 -0.5468 -0.4557
 2352TIP3   OH228470   3.320   4.995  13.939  0.5490 -0.0129  0.4312
 2352TIP3    H128471   3.364   5.068  13.982  0.2495 -0.7742  2.1044
 2352TIP3    H228472   3.264   5.036  13.872  1.0642  1.2046  0.7336
 2353TIP3   OH228473   5.214   0.289  16.443 -0.0928  0.0430 -0.4104
 2353TIP3    H128474   5.187   0.311  16.354  0.9450 -1.3717 -1.1139
 2353TIP3    H228475   5.243   0.372  16.480  1.6089  0.3133 -2.1932
 2354TIP3   OH228476   6.656   0.103  14.622 -0.2191  0.0805 -0.4631
 2354TIP3    H128477   6.599   0.177  14.644  1.2695  1.5476 -1.2896
 2354TIP3    H228478   6.739   0.123  14.665 -0.2993 -2.0658  0.8046
 2355TIP3   OH228479   1.567   3.277  15.271 -0.5667  0.0371  0.6678
 2355TIP3    H128480   1.485   3.227  15.281 -0.9343  0.8232  1.8198
 2355TIP3    H228481   1.635   3.218  15.303 -0.4366 -1.1988 -1.6991
 2356TIP3   OH228482   5.275   1.846  12.188 -0.4063 -0.0118 -0.0518
 2356TIP3    H128483   5.235   1.872  12.271 -1.0320 -0.5666 -0.1760
 2356TIP3    H228484   5.352   1.794  12.213  1.3663  2.5370  0.2257
 2357TIP3   OH228485   3.190   1.977  16.844 -0.1484  0.8809  0.5097
 2357TIP3    H128486   3.166   1.943  16.758  1.0646  0.2621  0.3902
 2357TIP3    H228487   3.143   2.060  16.852 -0.4234  0.8498 -0.6585
 2358TIP3   OH228488   0.402   5.409  11.106 -0.3166  0.2927  0.3336
 2358TIP3    H128489   0.323   5.399  11.053 -0.3634 -0.6875  0.5681
 2358TIP3    H228490   0.469   5.359  11.059  0.1667  1.0966  0.1481
 2359TIP3   OH228491   4.032   1.098  12.460  0.3150 -0.0640 -0.5012
 2359TIP3    H128492   4.011   1.189  12.436 -0.1285 -0.1742 -0.5251
 2359TIP3    H228493   3.948   1.054  12.464  0.3612 -0.0665  1.2021
 2360TIP3   OH228494   0.666   2.981   0.612  0.3838 -0.6664 -0.7221
 2360TIP3    H128495   0.743   3.028   0.645 -0.0667 -0.5484  0.1900
 2360TIP3    H228496   0.673   2.894   0.650  1.0919 -1.3000 -2.2242
 2361TIP3   OH228497   1.391   3.026   3.625 -0.1722 -0.1189 -0.2011
 2361TIP3    H128498   1.355   2.992   3.707 -0.2679 -0.7004 -0.4770
 2361TIP3    H228499   1.317   3.023   3.564  0.6854 -2.8510 -1.2283
 2362TIP3   OH228500   0.176   0.529  13.936 -0.1811  0.9062  0.3068
 2362TIP3    H128501   0.214   0.509  14.022 -0.5708  0.4500  0.3778
 2362TIP3    H228502   0.191   0.623  13.924 -0.8997  1.1518  1.2650
 2363TIP3   OH228503   5.455   1.503  13.205  0.4721  0.6421  0.5147
 2363TIP3    H128504   5.396   1.428  13.194 -1.6000  2.3880 -1.0044
 2363TIP3    H228505   5.397   1.577  13.220  2.2716  2.4006 -0.7346
 2364TIP3   OH228506   5.703   5.896  13.880 -0.4472  0.1577  0.4975
 2364TIP3    H128507   5.616   5.935  13.885 -0.6162  0.8106 -3.5226
 2364TIP3    H228508   5.762   5.972  13.876 -0.2737 -0.0053 -1.7368
 2365TIP3   OH228509   5.768   6.575   4.689  0.2563  0.5036 -0.6292
 2365TIP3    H128510   5.745   6.653   4.638 -0.5190  0.8040  0.1425
 2365TIP3    H228511   5.842   6.603   4.743  0.6445  0.3887 -1.1012
 2366TIP3   OH228512   4.529   4.091   3.722  0.7179 -0.2018  0.0504
 2366TIP3    H128513   4.597   4.024   3.714  1.5836  0.7719 -1.3742
 2366TIP3    H228514   4.493   4.099   3.634 -0.5513  0.0394  0.5655
 2367TIP3   OH228515   5.124   4.339  16.939 -0.4112 -0.7940 -0.3555
 2367TIP3    H128516   5.139   4.377  17.026 -1.0548 -0.6809 -0.2923
 2367TIP3    H228517   5.031   4.318  16.938 -0.6255  0.1593 -1.4093
 2368TIP3   OH228518   5.127   1.360   3.225  0.9099  0.5483 -0.0004
 2368TIP3    H128519   5.119   1.377   3.131  1.3900  1.1999  0.0736
 2368TIP3    H228520   5.211   1.398   3.250  1.5612 -1.0647  0.3780
 2369TIP3   OH228521   2.153   2.921  15.820  0.9508 -0.0040  0.1091
 2369TIP3    H128522   2.090   2.977  15.773  1.2186  0.9793  0.8892
 2369TIP3    H228523   2.110   2.836  15.825  0.4186  0.1922 -0.8836
 2370TIP3   OH228524   5.774   2.793   5.659 -0.8992 -0.7730  0.2737
 2370TIP3    H128525   5.723   2.872   5.641  0.8106  0.1710 -0.8189
 2370TIP3    H228526   5.723   2.744   5.722 -2.0364  1.2203  0.9686
 2371TIP3   OH228527   5.879   4.903  16.637  0.6254  0.9100 -0.0316
 2371TIP3    H128528   5.827   4.869  16.564 -0.8164  1.6456  0.6207
 2371TIP3    H228529   5.884   4.997  16.621  1.9793  0.8333 -0.1915
 2372TIP3   OH228530   1.126   1.563  12.886 -0.3901  0.3333  0.1182
 2372TIP3    H128531   1.196   1.524  12.832 -0.8608  1.6115 -1.4926
 2372TIP3    H228532   1.047   1.517  12.859 -0.5053  0.4095  0.3295
 2373TIP3   OH228533   4.348   0.344  13.978  0.5290  0.1225  0.0668
 2373TIP3    H128534   4.414   0.289  13.936 -0.3497 -0.5909 -0.4283
 2373TIP3    H228535   4.273   0.340  13.919 -0.3604 -0.0255  1.1693
 2374TIP3   OH228536   6.470   0.699  10.378 -0.5098 -0.2131  0.1049
 2374TIP3    H128537   6.459   0.619  10.430 -0.5319  0.2688  0.8708
 2374TIP3    H228538   6.528   0.754  10.431  0.3806 -0.1409 -0.9096
 2375TIP3   OH228539   5.739   5.660   5.401  0.4549 -0.6049  0.1271
 2375TIP3    H128540   5.644   5.674   5.407  0.6474  0.5579  0.7200
 2375TIP3    H228541   5.772   5.737   5.356  1.1127 -1.0631 -0.1895
 2376TIP3   OH228542   6.240   3.214   4.786  0.0929 -0.3371 -1.2426
 2376TIP3    H128543   6.314   3.267   4.816  0.2341 -1.8629  1.3997
 2376TIP3    H228544   6.271   3.171   4.707  2.1538 -1.1082 -0.0673
 2377TIP3   OH228545   1.887   5.589  16.495  0.4794 -0.3704  0.4561
 2377TIP3    H128546   1.821   5.521  16.510  0.9224 -0.4140  2.5032
 2377TIP3    H228547   1.964   5.558  16.542  1.3995  0.5195 -0.4346
 2378TIP3   OH228548   4.937   5.006  14.324 -0.6520 -0.0642 -0.0524
 2378TIP3    H128549   4.973   5.081  14.370 -0.1179 -0.0699 -0.4472
 2378TIP3    H228550   4.920   4.941  14.392  0.3599 -0.1664  0.1163
 2379TIP3   OH228551   4.289   0.914  15.929 -0.0288 -0.5527 -0.1730
 2379TIP3    H128552   4.262   0.824  15.949  1.6512 -1.1866 -0.5785
 2379TIP3    H228553   4.367   0.904  15.875  2.4121  1.0591  2.7068
 2380TIP3   OH228554   5.147   3.138   3.782  0.2327 -0.1869 -0.0581
 2380TIP3    H128555   5.196   3.174   3.855  0.3306 -0.6816  0.1227
 2380TIP3    H228556   5.174   3.191   3.707  0.8835 -0.3153  0.0796
 2381TIP3   OH228557   3.946   2.117   6.617  0.0656  0.1069 -0.1951
 2381TIP3    H128558   4.034   2.103   6.582 -0.2516  1.0986 -1.4582
 2381TIP3    H228559   3.898   2.038   6.591 -0.5552  1.4031 -3.4516
 2382TIP3   OH228560   6.160   3.339  13.515  0.0114 -0.6228  0.1438
 2382TIP3    H128561   6.222   3.396  13.469  1.9964 -3.0979 -0.4715
 2382TIP3    H228562   6.076   3.385  13.508  0.7003  0.4344 -3.6937
 2383TIP3   OH228563   1.870   2.593  17.235  1.2536 -0.2977 -0.3269
 2383TIP3    H128564   1.843   2.637  17.315  1.6710  0.4660 -0.5995
 2383TIP3    H228565   1.796   2.603  17.175  0.7556 -1.2603  0.0914
 2384TIP3   OH228566   3.099   6.143  15.065 -0.6320 -0.1133  0.3280
 2384TIP3    H128567   3.042   6.145  15.141 -1.9049  0.3092 -0.5981
 2384TIP3    H228568   3.069   6.068  15.014 -0.9698  0.6288 -0.6038
 2385TIP3   OH228569   2.113   0.562  13.541 -0.8403 -0.0601  0.0106
 2385TIP3    H128570   2.156   0.545  13.457  0.3767 -1.7975  0.9208
 2385TIP3    H228571   2.172   0.622  13.586 -0.8825 -0.0829  0.0954
 2386TIP3   OH228572   4.046   4.519   1.365 -0.3907 -0.1565  0.3691
 2386TIP3    H128573   3.992   4.571   1.305  0.1708  0.1962  0.1624
 2386TIP3    H228574   4.023   4.552   1.452  0.0376  0.5231  0.2347
 2387TIP3   OH228575   1.327   3.981   3.176 -0.2539 -0.2282  0.0633
 2387TIP3    H128576   1.403   3.992   3.120  0.1327  1.4551  0.8285
 2387TIP3    H228577   1.363   3.979   3.265 -1.1197  1.6321  0.5069
 2388TIP3   OH228578   6.509   2.032   5.096  0.1765  0.0995  0.3759
 2388TIP3    H128579   6.418   2.055   5.117  0.7280  1.3042  1.5832
 2388TIP3    H228580   6.514   2.038   5.001 -1.9239 -3.5725 -0.1793
 2389TIP3   OH228581   1.888   6.673  14.509 -0.2163 -0.5063 -0.2052
 2389TIP3    H128582   1.954   6.613  14.474  0.7127 -0.3635  1.2103
 2389TIP3    H228583   1.877   6.740  14.442 -0.1169 -1.4018 -1.1350
 2390TIP3   OH228584   1.527   1.310   4.936  0.0999 -0.0945  0.2246
 2390TIP3    H128585   1.553   1.222   4.907 -0.9374 -0.1722 -0.5438
 2390TIP3    H228586   1.610   1.356   4.950  0.6569 -1.1015  0.3485
 2391TIP3   OH228587   0.204   5.669  14.589 -0.0177  0.6387 -0.7947
 2391TIP3    H128588   0.280   5.626  14.551  1.7257  1.9321  1.0327
 2391TIP3    H228589   0.152   5.697  14.514  1.1147 -0.5555 -2.0801
 2392TIP3   OH228590   5.693   2.187  10.912  0.2036 -0.0406 -0.8514
 2392TIP3    H128591   5.627   2.209  10.846 -0.1608 -1.5627 -1.0359
 2392TIP3    H228592   5.644   2.138  10.978  0.9353 -0.2129 -0.4361
 2393TIP3   OH228593   1.319   5.086  12.106 -0.3603  0.4298  0.0358
 2393TIP3    H128594   1.249   5.022  12.109  0.4981 -0.5339  0.0471
 2393TIP3    H228595   1.334   5.102  12.012 -1.1513  1.2886  0.0396
 2394TIP3   OH228596   3.086   2.209  15.325  0.4427  0.1593 -0.3767
 2394TIP3    H128597   3.168   2.169  15.298  1.2959  0.8932  1.0108
 2394TIP3    H228598   3.032   2.136  15.356  1.2141 -0.1410  0.2661
 2395TIP3   OH228599   2.189   4.398  14.327 -0.2956  0.6272  0.3763
 2395TIP3    H128600   2.284   4.407  14.332 -0.0453 -1.4045  0.3361
 2395TIP3    H228601   2.171   4.377  14.235 -0.8564  1.5201  0.2704
 2396TIP3   OH228602   0.616   2.232  11.576  0.7366  0.0825  0.3652
 2396TIP3    H128603   0.631   2.238  11.670 -0.4924  1.1501  0.5151
 2396TIP3    H228604   0.657   2.312  11.541 -1.1432  1.0846  0.3435
 2397TIP3   OH228605   3.744   2.844  12.330  0.0613  0.0620  0.2884
 2397TIP3    H128606   3.805   2.780  12.367  0.7530  0.2177 -0.5570
 2397TIP3    H228607   3.741   2.822  12.237 -2.4724 -1.0108  0.5558
 2398TIP3   OH228608   5.334   5.861  15.616  0.2746  0.1727  0.1522
 2398TIP3    H128609   5.303   5.945  15.582  0.7715  0.6956  0.9811
 2398TIP3    H228610   5.429   5.863  15.605  0.3023 -0.2325  0.2917
 2399TIP3   OH228611   0.606   0.857  14.809  0.3334 -0.4028  0.5239
 2399TIP3    H128612   0.546   0.922  14.771  0.2387  0.4714  2.0882
 2399TIP3    H228613   0.692   0.883  14.777 -0.0008 -1.3190 -1.2618
 2400TIP3   OH228614   4.340   2.925   4.269 -0.5718  0.2411 -0.4725
 2400TIP3    H128615   4.409   2.933   4.202 -0.0012  0.3379  0.1147
 2400TIP3    H228616   4.353   3.001   4.326 -0.0495 -0.6502  0.6482
 2401TIP3   OH228617   3.921   2.333   0.567  0.0500  0.3015  0.2155
 2401TIP3    H128618   3.955   2.389   0.498 -0.4047  2.3180  1.5268
 2401TIP3    H228619   3.986   2.263   0.576  0.2106  0.0957 -2.0467
 2402TIP3   OH228620   0.131   0.497   2.445 -0.0697  0.0894  0.3211
 2402TIP3    H128621   0.217   0.489   2.403  0.4033 -1.4798  1.4911
 2402TIP3    H228622   0.138   0.578   2.496  1.0936 -0.4781  1.1332
 2403TIP3   OH228623   0.572   1.232  13.530 -0.2752  0.3037 -0.7383
 2403TIP3    H128624   0.536   1.320  13.538  0.0171  0.5538 -2.0070
 2403TIP3    H228625   0.498   1.177  13.504 -1.0035 -0.3260  2.2672
 2404TIP3   OH228626   5.481   2.780  15.187 -0.2924  0.8961 -0.0475
 2404TIP3    H128627   5.393   2.756  15.159 -0.4447  1.2476  0.1205
 2404TIP3    H228628   5.514   2.702  15.231 -0.4555  0.7034 -0.2676
 2405TIP3   OH228629   0.506   0.924   5.640  0.9348 -0.2420 -0.1857
 2405TIP3    H128630   0.431   0.979   5.664  0.9261  0.5829 -1.9128
 2405TIP3    H228631   0.490   0.841   5.684 -0.1415  0.4531  0.8035
 2406TIP3   OH228632   3.003   5.497   4.102 -0.1456 -0.2975 -0.3186
 2406TIP3    H128633   2.919   5.527   4.069 -0.3513 -0.1461  0.3248
 2406TIP3    H228634   3.067   5.531   4.040 -0.5373 -0.1615 -0.6473
 2407TIP3   OH228635   2.166   3.255  16.221 -0.3519 -0.1764  0.3353
 2407TIP3    H128636   2.251   3.277  16.259 -0.3938  0.2536  0.1845
 2407TIP3    H228637   2.187   3.207  16.141 -0.2102  1.3704 -0.5875
 2408TIP3   OH228638   0.060   6.313  13.798  0.4321 -0.1442 -0.6022
 2408TIP3    H128639  -0.034   6.315  13.813  0.4114  0.5870 -0.8142
 2408TIP3    H228640   0.097   6.298  13.885  0.2661  3.1806  0.1716
 2409TIP3   OH228641   4.086   5.452  17.227  0.4020  0.5833 -0.0848
 2409TIP3    H128642   4.147   5.452  17.152  0.7631 -1.0520  0.1536
 2409TIP3    H228643   4.054   5.542  17.232  1.8192  1.1851 -1.0270
 2410TIP3   OH228644   5.952   1.611   3.049  0.1607 -0.0990 -0.0257
 2410TIP3    H128645   5.865   1.637   3.080  1.1627  1.7954  1.4801
 2410TIP3    H228646   5.946   1.517   3.034 -2.1686  0.0063 -0.0759
 2411TIP3   OH228647   2.573   3.997   5.670  0.3123  0.7966 -0.5829
 2411TIP3    H128648   2.552   3.905   5.660 -0.6498  1.0103 -0.5557
 2411TIP3    H228649   2.613   4.003   5.757 -0.8560  0.6128 -0.0207
 2412TIP3   OH228650   1.421   3.971  15.063  0.3395  0.0100 -0.1633
 2412TIP3    H128651   1.460   3.897  15.110  1.0612 -0.2927 -1.1974
 2412TIP3    H228652   1.446   4.048  15.115 -1.4744 -0.5160  1.6136
 2413TIP3   OH228653   2.027   5.358   4.405  0.1736  0.3892  0.2787
 2413TIP3    H128654   2.038   5.433   4.347  0.2979  1.2019  1.3090
 2413TIP3    H228655   1.950   5.379   4.458  0.9540  0.3886  1.4468
 2414TIP3   OH228656   6.403   0.456  14.412 -0.2181  0.6705 -0.3774
 2414TIP3    H128657   6.374   0.397  14.342  1.8865  2.0965 -2.6432
 2414TIP3    H228658   6.414   0.399  14.488 -0.7269 -1.3615 -1.7316
 2415TIP3   OH228659   5.206   4.721   6.505  0.3409  0.0130 -0.3923
 2415TIP3    H128660   5.154   4.777   6.562  0.0529 -0.8292  0.1910
 2415TIP3    H228661   5.241   4.781   6.438  0.1030  0.8903  0.2472
 2416TIP3   OH228662   3.561   5.142   0.438 -0.0982  0.1426  0.3642
 2416TIP3    H128663   3.525   5.230   0.447  0.4173  0.6346 -1.8278
 2416TIP3    H228664   3.655   5.153   0.451  0.1029  0.1377 -0.9311
 2417TIP3   OH228665   0.753   6.541  13.759  0.6363 -0.6252 -0.0238
 2417TIP3    H128666   0.801   6.478  13.704  0.2281 -0.6564 -0.3436
 2417TIP3    H228667   0.675   6.563  13.708  0.7989  0.1824  0.0613
 2418TIP3   OH228668   5.748   0.306   3.147 -0.5391 -0.5438  0.2253
 2418TIP3    H128669   5.769   0.395   3.175 -0.7193 -0.6259  0.6282
 2418TIP3    H228670   5.829   0.274   3.108 -0.9942  0.4536 -1.6609
 2419TIP3   OH228671   4.712   1.681  11.786  0.2001  0.3464  0.1803
 2419TIP3    H128672   4.719   1.754  11.724 -1.1206 -0.5855 -1.1284
 2419TIP3    H228673   4.688   1.722  11.869  2.5341  1.6774  0.2953
 2420TIP3   OH228674   0.818   2.810   3.700 -0.0999  0.3473 -0.0625
 2420TIP3    H128675   0.912   2.826   3.698 -0.1456  1.0665  1.6819
 2420TIP3    H228676   0.782   2.885   3.747 -1.4616 -0.3082 -0.0045
 2421TIP3   OH228677   4.245   5.985  12.723 -0.3936  0.6137  0.5423
 2421TIP3    H128678   4.254   6.080  12.725  0.4995  0.7794 -3.2758
 2421TIP3    H228679   4.326   5.953  12.683 -0.6685 -1.7778  1.7003
 2422TIP3   OH228680   5.922   2.386  10.879 -0.1398 -0.0866 -0.0164
 2422TIP3    H128681   5.827   2.386  10.871 -0.1420 -2.3288 -0.9147
 2422TIP3    H228682   5.952   2.450  10.814 -1.0140  2.5409  1.9870
 2423TIP3   OH228683   0.792   5.496   2.651 -0.4027 -0.4569 -0.0533
 2423TIP3    H128684   0.875   5.451   2.635  1.5013  2.5652  0.4630
 2423TIP3    H228685   0.738   5.474   2.575  1.1477 -1.8795 -0.8251
 2424TIP3   OH228686   2.399   3.506  15.260  0.0454  0.2050 -0.0643
 2424TIP3    H128687   2.405   3.508  15.355  0.9346 -1.6705 -0.0253
 2424TIP3    H228688   2.328   3.566  15.238  0.0670  0.9414  1.7406
 2425TIP3   OH228689   5.814   5.333   2.972 -0.6817  0.1336 -0.3784
 2425TIP3    H128690   5.776   5.414   3.007  0.2987  0.5573 -0.2592
 2425TIP3    H228691   5.763   5.314   2.894 -1.0545  0.7565 -0.2922
 2426TIP3   OH228692   6.229   3.735  11.609 -0.5305 -0.3517  0.7863
 2426TIP3    H128693   6.171   3.805  11.579  0.5453  0.1687 -0.1945
 2426TIP3    H228694   6.278   3.774  11.681  0.7667  0.2871 -0.3914
 2427TIP3   OH228695   0.970   3.879   5.464 -0.4264  0.2900  0.0275
 2427TIP3    H128696   0.904   3.948   5.460  0.1345  0.8154 -0.4993
 2427TIP3    H228697   0.953   3.825   5.387 -0.3245  0.3478 -0.0357
 2428TIP3   OH228698   5.647   1.873   0.032  0.4685 -0.3640  0.0689
 2428TIP3    H128699   5.611   1.792  -0.004 -0.1500 -0.7324  1.4410
 2428TIP3    H228700   5.578   1.907   0.088 -0.2352  2.4169 -2.2358
 2429TIP3   OH228701   0.423   4.716   0.402 -0.9037  0.8156  0.1708
 2429TIP3    H128702   0.512   4.684   0.387 -1.6065 -0.9025 -0.5665
 2429TIP3    H228703   0.372   4.679   0.330 -2.5103  0.5560  1.3974
 2430TIP3   OH228704   5.677   5.473   3.833 -0.1354 -0.5525 -0.4273
 2430TIP3    H128705   5.584   5.480   3.857 -0.2611 -1.9582 -0.4255
 2430TIP3    H228706   5.692   5.547   3.775 -0.5642  1.2603  1.6362
 2431TIP3   OH228707   0.973   0.118  13.120  0.0339 -0.2681 -0.1531
 2431TIP3    H128708   0.979   0.129  13.025  1.0004  0.4465 -0.0342
 2431TIP3    H228709   1.020   0.036  13.137  0.0937 -0.2604 -0.2750
 2432TIP3   OH228710   4.262   2.384   1.871  0.1389 -0.1256 -0.0467
 2432TIP3    H128711   4.222   2.309   1.825  2.6862 -0.5230 -1.8530
 2432TIP3    H228712   4.225   2.461   1.827  1.2687 -0.4821 -1.7282
 2433TIP3   OH228713   0.745   5.941  11.737 -0.1543 -0.4927 -0.1646
 2433TIP3    H128714   0.835   5.955  11.707 -0.0791 -1.2261 -0.3013
 2433TIP3    H228715   0.754   5.927  11.832 -0.0135 -1.4522 -0.3089
 2434TIP3   OH228716   4.861   6.011  11.711 -0.4891  0.1550 -0.8578
 2434TIP3    H128717   4.931   6.050  11.657 -0.4087  1.3884  0.0835
 2434TIP3    H228718   4.908   5.966  11.782 -0.6257  0.6664 -0.4346
 2435TIP3   OH228719   4.997   3.967  15.823 -0.1588  0.0431 -1.0517
 2435TIP3    H128720   5.011   3.916  15.903  1.5593  1.0008 -0.6789
 2435TIP3    H228721   4.956   4.048  15.853 -1.7042 -0.5602 -1.4753
 2436TIP3   OH228722   6.650   0.804   4.256 -0.0920 -0.6000 -0.4576
 2436TIP3    H128723   6.568   0.829   4.213  0.5847  2.8171 -0.0769
 2436TIP3    H228724   6.716   0.805   4.186  0.2542  0.5738 -0.1353
 2437TIP3   OH228725   5.435   4.602  12.392 -0.4172 -0.2720  0.2440
 2437TIP3    H128726   5.342   4.626  12.388 -0.6059 -1.0804 -1.2799
 2437TIP3    H228727   5.475   4.648  12.318  0.0055 -1.3077 -0.2073
 2438TIP3   OH228728   1.279   3.941   2.841 -0.2132 -0.2311 -0.5681
 2438TIP3    H128729   1.300   3.904   2.755  1.1003 -0.6407 -0.1038
 2438TIP3    H228730   1.364   3.965   2.877 -0.8788  1.3416  0.0094
 2439TIP3   OH228731   6.406   1.339   1.363  0.1502  0.1150 -0.1080
 2439TIP3    H128732   6.342   1.269   1.374 -1.7638  2.0291  1.8527
 2439TIP3    H228733   6.425   1.339   1.269 -0.8391 -2.0895 -0.3720
 2440TIP3   OH228734   3.824   3.857  14.461 -0.1075 -0.6276 -0.3867
 2440TIP3    H128735   3.786   3.798  14.396 -2.3459  0.1103  0.1534
 2440TIP3    H228736   3.815   3.945  14.422  0.8938 -0.3904 -0.1283
 2441TIP3   OH228737   2.076   1.211   4.402 -0.1700  0.3369  0.5822
 2441TIP3    H128738   2.095   1.130   4.353 -0.2708  0.1670  0.8231
 2441TIP3    H228739   2.096   1.281   4.340  3.6311  0.3207  1.5146
 2442TIP3   OH228740   2.754   4.571  12.157 -0.0741  0.5365 -0.3492
 2442TIP3    H128741   2.806   4.548  12.080  1.1806  1.3281  0.2223
 2442TIP3    H228742   2.736   4.665  12.147  0.4114  0.7333  0.4659
 2443TIP3   OH228743   5.279   0.898   1.510 -0.1740  0.1202 -0.2679
 2443TIP3    H128744   5.302   0.812   1.545 -0.1701 -0.4058 -1.5046
 2443TIP3    H228745   5.202   0.924   1.560  0.4648 -0.1037  0.8641
 2444TIP3   OH228746   4.361   5.218   3.515 -0.6724  0.5806 -0.6681
 2444TIP3    H128747   4.423   5.276   3.559  1.2776  0.0872 -2.5955
 2444TIP3    H228748   4.333   5.267   3.438  1.1784 -1.0094 -2.4454
 2445TIP3   OH228749   0.664   2.689   5.219 -0.0138 -0.2457  0.1354
 2445TIP3    H128750   0.743   2.736   5.193  0.2349 -1.5629 -1.7136
 2445TIP3    H228751   0.667   2.687   5.314  1.0549  1.5660  0.1766
 2446TIP3   OH228752   4.304   1.723   5.440 -0.4268  0.3178  0.1033
 2446TIP3    H128753   4.237   1.788   5.423  0.2708  0.6082 -1.7712
 2446TIP3    H228754   4.337   1.745   5.527 -0.3344  2.3621 -0.3979
 2447TIP3   OH228755   2.096   3.944   4.735 -0.0435 -0.2168  0.8931
 2447TIP3    H128756   2.076   3.940   4.641  3.7943 -1.5447 -0.0323
 2447TIP3    H228757   2.138   4.029   4.747  0.9536 -0.7105  1.0066
 2448TIP3   OH228758   2.978   1.557  10.863  0.5809  0.7828 -0.2354
 2448TIP3    H128759   3.037   1.512  10.923  0.9060 -1.3544 -2.0320
 2448TIP3    H228760   2.994   1.650  10.878  1.8765  0.2870  1.7327
 2449TIP3   OH228761   6.624   0.093  13.491 -0.3097  0.2544 -0.6204
 2449TIP3    H128762   6.685   0.139  13.433  1.4759 -1.7458 -0.4497
 2449TIP3    H228763   6.590   0.162  13.549  0.5038  1.7090 -1.7970
 2450TIP3   OH228764   2.364   2.196  16.839  0.3146 -0.2096  0.2393
 2450TIP3    H128765   2.336   2.285  16.862 -0.0395 -0.2319 -0.0993
 2450TIP3    H228766   2.398   2.160  16.921  1.1645  0.4971  0.2072
 2451TIP3   OH228767   3.076   1.687  12.411  0.2418  0.4833  0.2630
 2451TIP3    H128768   3.029   1.757  12.367 -1.1863  0.2624  1.3753
 2451TIP3    H228769   3.012   1.649  12.471  2.6377  2.2480  4.3026
 2452TIP3   OH228770   3.178   3.466   6.013  0.4126 -0.1553  0.2285
 2452TIP3    H128771   3.140   3.553   6.024 -3.4280 -1.6763  0.7019
 2452TIP3    H228772   3.179   3.428   6.101  0.1200 -1.2615 -0.2177
 2453TIP3   OH228773   2.829   1.613  16.693 -0.4698 -1.4032 -0.2004
 2453TIP3    H128774   2.826   1.594  16.787 -1.3009 -0.0216  0.0850
 2453TIP3    H228775   2.749   1.664  16.676  0.5956  0.0082 -1.2707
 2454TIP3   OH228776   6.376   4.097  12.021  0.4424 -0.1318 -0.2084
 2454TIP3    H128777   6.419   4.025  12.068 -1.5785 -0.9012  0.5717
 2454TIP3    H228778   6.283   4.075  12.024  0.0334  0.9829 -2.6286
 2455TIP3   OH228779   1.678   0.356  10.875  0.0211  0.4680  0.5388
 2455TIP3    H128780   1.614   0.293  10.907 -0.7441  1.0843  0.2644
 2455TIP3    H228781   1.763   0.313  10.886 -0.4238 -0.2715  1.1146
 2456TIP3   OH228782   5.121   2.186  12.992 -0.2289  0.1493 -0.4942
 2456TIP3    H128783   5.052   2.252  12.987 -0.2546  0.1227 -0.4893
 2456TIP3    H228784   5.203   2.236  12.985 -0.2546  0.1437 -0.8431
 2457TIP3   OH228785   5.523   2.717  16.350  0.3175 -0.3747 -0.5347
 2457TIP3    H128786   5.615   2.692  16.357  0.4125  0.1029  0.0284
 2457TIP3    H228787   5.520   2.806  16.386 -0.3418 -0.3414 -0.6665
 2458TIP3   OH228788   3.781   4.664   2.509  0.3521  0.0665 -0.5004
 2458TIP3    H128789   3.776   4.707   2.424  2.0299 -0.4565 -0.8880
 2458TIP3    H228790   3.739   4.579   2.495  1.4897 -0.4172 -1.0934
 2459TIP3   OH228791   1.062   4.006   2.626  0.4804 -0.0669 -0.1318
 2459TIP3    H128792   1.112   3.949   2.568 -0.6762  0.9585 -2.2699
 2459TIP3    H228793   1.043   4.084   2.573 -1.3974  0.5552  1.3245
 2460TIP3   OH228794   2.937   2.440   0.696 -0.2243 -0.2099  0.2550
 2460TIP3    H128795   2.957   2.437   0.789  0.5034 -0.7024  0.0909
 2460TIP3    H228796   2.931   2.533   0.675 -2.6701 -0.0659  1.2552
 2461TIP3   OH228797   2.176   3.955  13.820  0.5740  0.0674  0.4677
 2461TIP3    H128798   2.161   3.957  13.725 -2.2267  1.0454  0.8432
 2461TIP3    H228799   2.165   3.862  13.843 -1.2121  0.1537  0.1115
 2462TIP3   OH228800   5.214   5.057  14.927  0.0469  0.6971 -0.1687
 2462TIP3    H128801   5.290   5.027  14.976 -0.4345  0.7181  0.6179
 2462TIP3    H228802   5.142   5.051  14.989 -0.8246 -0.4189 -1.2173
 2463TIP3   OH228803   0.050   4.558   6.632 -0.5038  0.3882  0.1299
 2463TIP3    H128804   0.044   4.517   6.546  2.5354  1.9721 -1.0059
 2463TIP3    H228805   0.064   4.485   6.693 -1.1404 -0.6357 -0.9182
 2464TIP3   OH228806   3.565   3.293   1.943  0.3635 -0.0845 -0.2308
 2464TIP3    H128807   3.546   3.382   1.914 -0.6085 -0.5931 -1.2277
 2464TIP3    H228808   3.489   3.241   1.915  0.8143 -1.1958  0.5002
 2465TIP3   OH228809   1.763   3.126   5.904  0.2773  0.1645 -0.4383
 2465TIP3    H128810   1.702   3.154   5.836  0.9963  1.5215 -0.5715
 2465TIP3    H228811   1.845   3.171   5.882  0.4737  0.8119  1.4350
 2466TIP3   OH228812   6.770   0.547  12.217  0.1518 -0.6044  0.2066
 2466TIP3    H128813   6.785   0.521  12.126  1.2037 -0.6633  0.3769
 2466TIP3    H228814   6.842   0.506  12.265 -1.7521 -2.7016  1.4741
 2467TIP3   OH228815   1.451   0.279  12.014 -0.2891  0.1640 -0.5554
 2467TIP3    H128816   1.458   0.240  11.927 -2.1438  0.6576 -0.9693
 2467TIP3    H228817   1.482   0.369  12.003 -0.0108  0.0672 -0.5704
 2468TIP3   OH228818   2.607   1.217   1.295 -0.3064  0.3109 -0.2855
 2468TIP3    H128819   2.685   1.162   1.286  0.2100  0.8844  0.5389
 2468TIP3    H228820   2.571   1.195   1.380 -0.6060  0.5986 -0.3348
 2469TIP3   OH228821   0.542   3.921  16.943  0.0481  0.5255 -0.0806
 2469TIP3    H128822   0.638   3.921  16.946  0.0281 -0.0968  1.1510
 2469TIP3    H228823   0.515   3.936  17.034 -1.0129 -1.0002 -0.1093
 2470TIP3   OH228824   0.548   4.439   3.123  0.0809 -0.3603  0.3915
 2470TIP3    H128825   0.599   4.359   3.135  2.2817  0.6199 -1.6728
 2470TIP3    H228826   0.608   4.510   3.146 -0.1950  0.8586 -2.3018
 2471TIP3   OH228827   5.099   3.758  16.390  0.1192 -0.1090  0.8463
 2471TIP3    H128828   5.084   3.666  16.369  1.6947 -0.5294  1.4105
 2471TIP3    H228829   5.015   3.788  16.427 -2.0549  0.0779 -3.5997
 2472TIP3   OH228830   3.233   5.988  17.272 -0.8907 -0.4461 -0.1886
 2472TIP3    H128831   3.292   6.018  17.341 -0.5276 -2.0239  0.2389
 2472TIP3    H228832   3.161   6.051  17.273 -0.9804 -0.5008  1.7592
 2473TIP3   OH228833   0.590   3.374   2.939 -0.2060 -0.2825 -0.3158
 2473TIP3    H128834   0.545   3.458   2.937  1.3964  0.6117 -0.5857
 2473TIP3    H228835   0.649   3.381   3.014 -1.1098 -1.7775  0.5891
 2474TIP3   OH228836   2.059   3.328  16.493 -0.2366 -0.0540 -0.5535
 2474TIP3    H128837   2.098   3.252  16.537  1.3755  1.4491  0.7575
 2474TIP3    H228838   2.084   3.318  16.402 -1.3041 -1.8196 -0.7007
 2475TIP3   OH228839   0.605   5.091   1.163  0.1473  0.1264 -0.3999
 2475TIP3    H128840   0.577   5.150   1.233 -1.7160 -1.2629  0.0904
 2475TIP3    H228841   0.667   5.031   1.205 -0.9690 -0.7058  0.0796
 2476TIP3   OH228842   5.746   3.589  15.570 -0.4387  0.0203  0.0365
 2476TIP3    H128843   5.680   3.531  15.607 -0.8216  0.7443  0.5006
 2476TIP3    H228844   5.728   3.588  15.476 -1.7701  1.0038  0.2570
 2477TIP3   OH228845   3.689   6.771  11.925 -0.4310  0.4902 -0.0355
 2477TIP3    H128846   3.745   6.804  11.995  0.2713 -1.7104  0.4988
 2477TIP3    H228847   3.600   6.784  11.958 -0.1150 -0.3458  1.2310
 2478TIP3   OH228848   2.465   4.515  13.956  0.1797 -0.1141 -0.2491
 2478TIP3    H128849   2.529   4.512  14.027 -1.2581  1.1822  1.1818
 2478TIP3    H228850   2.385   4.548  13.997 -1.1764 -0.8616 -2.1516
 2479TIP3   OH228851   6.443   2.547   5.544 -0.2657 -0.1092  0.6818
 2479TIP3    H128852   6.395   2.607   5.602  0.4952  0.7005  0.5001
 2479TIP3    H228853   6.449   2.593   5.461 -1.3397 -1.2675 -0.0594
 2480TIP3   OH228854   3.573   1.502   2.394  0.4549  0.3109  0.5078
 2480TIP3    H128855   3.530   1.457   2.467 -0.4421 -0.5054 -0.4964
 2480TIP3    H228856   3.562   1.595   2.414 -3.2183  0.2328 -0.4075
 2481TIP3   OH228857   2.819   1.079  13.394  0.3306  1.0316 -0.3059
 2481TIP3    H128858   2.746   1.060  13.454 -0.7199  0.3768 -1.7245
 2481TIP3    H228859   2.799   1.166  13.359  1.9331  2.2709  1.6088
 2482TIP3   OH228860   0.451   3.143   0.526 -0.8730 -0.0907 -0.0249
 2482TIP3    H128861   0.520   3.078   0.513 -0.2628  0.1000  1.9579
 2482TIP3    H228862   0.447   3.155   0.620 -2.5432  1.0955 -0.2085
 2483TIP3   OH228863   2.764   1.568   6.132  0.1196 -0.0617 -0.4383
 2483TIP3    H128864   2.782   1.662   6.128 -1.1575  0.2534  0.7975
 2483TIP3    H228865   2.720   1.548   6.049  1.6468  0.1012 -1.3409
 2484TIP3   OH228866   3.704   3.701  16.378  0.5309  0.6631 -0.5434
 2484TIP3    H128867   3.667   3.789  16.371  3.3397  2.0257  0.2044
 2484TIP3    H228868   3.754   3.703  16.459 -0.1991 -2.0500  0.0838
 2485TIP3   OH228869   3.604   2.602   2.907 -0.0199 -0.0157 -0.1786
 2485TIP3    H128870   3.628   2.553   2.829  0.4606  0.7651 -0.5336
 2485TIP3    H228871   3.594   2.535   2.975  1.0164 -0.5810 -0.5521
 2486TIP3   OH228872   1.415   5.497  15.240 -0.7296 -0.4921 -0.0360
 2486TIP3    H128873   1.478   5.495  15.311 -1.5692  1.2761  0.8136
 2486TIP3    H228874   1.339   5.451  15.274 -0.4808 -1.2491 -0.4834
 2487TIP3   OH228875   5.440   3.900   5.184  0.0903 -0.1536 -0.1660
 2487TIP3    H128876   5.379   3.836   5.219  0.8837 -0.6601  0.3301
 2487TIP3    H228877   5.398   3.934   5.105 -1.7432  1.0133  1.2378
 2488TIP3   OH228878   0.885   4.022  16.690 -0.0005  0.4228 -0.0776
 2488TIP3    H128879   0.965   4.073  16.682  0.8887 -1.0709 -1.2689
 2488TIP3    H228880   0.850   4.016  16.601 -0.1541 -0.8877  0.0502
 2489TIP3   OH228881   1.730   0.996   1.643 -0.1899 -0.0585 -0.2576
 2489TIP3    H128882   1.733   1.039   1.558  1.7703  0.3321 -0.0477
 2489TIP3    H228883   1.716   1.067   1.706  0.5995 -0.0308 -0.1007
 2490TIP3   OH228884   1.197   2.083   5.049  0.3511 -0.1804 -0.6042
 2490TIP3    H128885   1.253   2.085   5.127  0.3342  2.5972 -0.5790
 2490TIP3    H228886   1.235   2.014   4.995 -0.3115 -3.0557  2.2504
 2491TIP3   OH228887   6.741   1.292   1.920  0.2924  0.0582 -0.2430
 2491TIP3    H128888   6.762   1.385   1.923  0.8247 -0.0831  1.2046
 2491TIP3    H228889   6.679   1.279   1.992  0.8949 -0.8432  0.1389
 2492TIP3   OH228890   2.763   5.605   3.966  0.9167  0.9430 -0.0187
 2492TIP3    H128891   2.723   5.562   3.890 -0.7840  0.3421  1.1382
 2492TIP3    H228892   2.762   5.698   3.944  2.1257  0.6591 -1.4422
 2493TIP3   OH228893   2.150   3.311  12.954 -0.3008 -0.1312 -0.3718
 2493TIP3    H128894   2.134   3.243  12.889 -0.0855 -0.2429 -0.3069
 2493TIP3    H228895   2.065   3.352  12.967 -0.8005 -1.4352  0.7796
 2494TIP3   OH228896   2.672   6.746   5.384 -0.2386  0.7914 -0.0367
 2494TIP3    H128897   2.637   6.729   5.472  1.2479 -0.6941  0.3138
 2494TIP3    H228898   2.764   6.723   5.390 -0.7212 -2.7408 -2.8461
 2495TIP3   OH228899   1.926   5.890   5.918  0.1135  0.3469 -0.7332
 2495TIP3    H128900   1.850   5.948   5.913  0.2817  0.8274  1.2511
 2495TIP3    H228901   1.928   5.862   6.010  1.1227 -1.3469 -1.2281
 2496TIP3   OH228902   0.008   3.431   0.559  0.0712  0.7787  0.2528
 2496TIP3    H128903  -0.076   3.394   0.588  0.9022 -0.9924  0.5690
 2496TIP3    H228904  -0.006   3.526   0.560 -1.7657  0.5503  0.7729
 2497TIP3   OH228905   3.492   4.491  16.895 -0.1735  0.2692 -0.3554
 2497TIP3    H128906   3.443   4.459  16.820 -0.6879  0.8964 -0.2944
 2497TIP3    H228907   3.441   4.565  16.928  0.1265  0.1077  0.5162
 2498TIP3   OH228908   4.395   1.486   1.298 -0.4871  0.9171 -0.3272
 2498TIP3    H128909   4.352   1.455   1.218  0.6714  1.1787 -1.0794
 2498TIP3    H228910   4.330   1.472   1.367 -1.0248 -0.5928 -1.0864
 2499TIP3   OH228911   6.362   5.473  11.797 -0.2383 -0.2046 -0.3997
 2499TIP3    H128912   6.340   5.428  11.878 -0.5716  0.4514 -0.1182
 2499TIP3    H228913   6.290   5.453  11.738  0.6653 -1.8300 -1.0275
 2500TIP3   OH228914   2.865   0.574   1.455  0.3628  0.1230  0.4172
 2500TIP3    H128915   2.856   0.505   1.521  0.6796 -0.5413 -0.2243
 2500TIP3    H228916   2.943   0.551   1.406  0.9652  1.4137  0.7348
 2501TIP3   OH228917   4.589   0.809  13.890 -0.2817  0.5619  0.5149
 2501TIP3    H128918   4.506   0.848  13.916 -1.3058 -1.6519  0.7019
 2501TIP3    H228919   4.567   0.750  13.817  0.9060 -0.9218  1.3015
 2502TIP3   OH228920   3.514   4.690   5.734  0.0708 -0.2377  0.7307
 2502TIP3    H128921   3.421   4.702   5.756 -0.3715 -0.5255 -0.8703
 2502TIP3    H228922   3.560   4.714   5.814 -1.4048 -0.7143  1.7753
 2503TIP3   OH228923   3.442   2.793  16.036 -0.5619 -0.0598  0.3716
 2503TIP3    H128924   3.383   2.823  16.105 -0.9817  3.0352 -1.1358
 2503TIP3    H228925   3.387   2.741  15.978 -1.0118  0.0526  0.6945
 2504TIP3   OH228926   6.750   1.392  13.874 -0.3054  0.2773  0.1868
 2504TIP3    H128927   6.841   1.411  13.895 -1.0017  2.0899  1.8904
 2504TIP3    H228928   6.700   1.440  13.940 -2.5045 -0.6553 -0.7084
 2505TIP3   OH228929   6.478   0.865  16.404 -0.0491  0.0383  0.7078
 2505TIP3    H128930   6.507   0.899  16.489  2.9842 -2.0369  0.6715
 2505TIP3    H228931   6.504   0.933  16.342 -0.2174  0.5839  1.2188
 2506TIP3   OH228932   1.105   1.692   1.229  0.3295  0.6151  0.1731
 2506TIP3    H128933   1.049   1.768   1.243  1.2049  0.8153  3.4321
 2506TIP3    H228934   1.077   1.629   1.295  0.4774 -1.4312 -1.6189
 2507TIP3   OH228935   0.622   3.859   2.033  0.1102 -0.2273  0.0646
 2507TIP3    H128936   0.688   3.912   1.987 -0.7516  0.1460 -0.7663
 2507TIP3    H228937   0.609   3.904   2.116  0.7428 -0.1824  0.1459
 2508TIP3   OH228938   3.754   3.803  15.805  0.1123 -0.1084 -0.9679
 2508TIP3    H128939   3.772   3.715  15.771 -1.6451 -0.6705 -0.5592
 2508TIP3    H228940   3.700   3.789  15.883  1.1930  1.2949  0.0844
 2509TIP3   OH228941   2.131   2.771  14.645  0.2509 -1.1612  0.1036
 2509TIP3    H128942   2.046   2.725  14.647 -1.0422  1.0499 -0.6523
 2509TIP3    H228943   2.127   2.825  14.566  1.4979  0.5797  1.1765
 2510TIP3   OH228944   1.106   2.715   1.880 -0.3309  0.6457  0.0965
 2510TIP3    H128945   1.035   2.681   1.825  1.1703 -1.7517 -0.5105
 2510TIP3    H228946   1.063   2.737   1.963 -1.8386 -0.4656 -0.3428
 2511TIP3   OH228947   2.760   0.838  11.654  0.7170 -0.4286  0.1582
 2511TIP3    H128948   2.720   0.898  11.718  0.0512  0.3859 -0.9843
 2511TIP3    H228949   2.807   0.774  11.707 -1.2732 -0.8177  1.5476
 2512TIP3   OH228950   4.957   3.236   2.123 -0.7003  0.4660  0.3579
 2512TIP3    H128951   4.940   3.160   2.179 -1.3282  0.7103  0.5061
 2512TIP3    H228952   4.871   3.273   2.106 -0.3757  1.3233  0.5329
 2513TIP3   OH228953   1.581   1.745  13.103 -0.0434  0.4956 -0.0956
 2513TIP3    H128954   1.601   1.690  13.178  0.1854 -0.3750 -0.7761
 2513TIP3    H228955   1.619   1.698  13.028 -0.5700  1.1673 -0.7999
 2514TIP3   OH228956   2.196   2.789   2.696 -0.4097 -0.4182  0.7015
 2514TIP3    H128957   2.164   2.730   2.628 -0.9648 -0.4932  1.0280
 2514TIP3    H228958   2.178   2.744   2.778 -0.3013 -0.0541  0.9272
 2515TIP3   OH228959   6.344   2.790  17.034 -0.1767 -0.2025 -0.2824
 2515TIP3    H128960   6.383   2.705  17.017 -0.6018  0.0692 -2.9801
 2515TIP3    H228961   6.251   2.772  17.048 -0.5437 -0.1347 -2.2951
 2516TIP3   OH228962   4.888   3.023   3.680 -0.2233 -0.2713 -0.4985
 2516TIP3    H128963   4.799   3.058   3.690  0.5130  1.9040 -1.1237
 2516TIP3    H228964   4.942   3.079   3.735  0.8662 -1.2283 -0.5682
 2517TIP3   OH228965   5.745   0.236   1.026  0.2048 -0.3471  0.1277
 2517TIP3    H128966   5.660   0.192   1.016  0.6462 -1.0286 -0.6748
 2517TIP3    H228967   5.785   0.193   1.101 -0.3508  0.3066  0.8176
 2518TIP3   OH228968   5.545   0.231  15.019 -0.1355 -0.3668  0.1681
 2518TIP3    H128969   5.597   0.293  15.070  0.1145 -2.2129  2.2923
 2518TIP3    H228970   5.609   0.177  14.974 -0.1254 -2.0891  2.1099
 2519TIP3   OH228971   6.081   2.802   0.225 -0.2885  0.7550 -0.2928
 2519TIP3    H128972   6.079   2.744   0.149 -0.7058  0.1633  0.1629
 2519TIP3    H228973   6.016   2.766   0.285  1.2221  0.1595  1.0992
 2520TIP3   OH228974   3.273   2.706   0.766  0.0348 -0.3747 -0.1761
 2520TIP3    H128975   3.298   2.757   0.689 -1.2004 -0.3398 -0.5800
 2520TIP3    H228976   3.265   2.617   0.733 -1.9240 -0.1452 -0.4825
 2521TIP3   OH228977   5.288   5.304   0.701 -0.2116 -0.4158  0.1711
 2521TIP3    H128978   5.321   5.330   0.787 -0.5737 -0.4220  0.3151
 2521TIP3    H228979   5.301   5.209   0.698  0.5931 -0.3073 -0.1301
 2522TIP3   OH228980   2.946   3.455   5.799  0.0774  0.1105 -0.1909
 2522TIP3    H128981   2.885   3.408   5.742 -0.2164  0.2880 -0.0278
 2522TIP3    H228982   2.921   3.429   5.888  0.0853  0.3702 -0.1121
 2523TIP3   OH228983   0.034   4.100  10.672  0.1302 -0.4064  0.3286
 2523TIP3    H128984   0.076   4.076  10.755  1.1498  0.9852  0.2570
 2523TIP3    H228985  -0.019   4.176  10.694  1.0967  0.5153 -0.4410
 2524TIP3   OH228986   5.023   2.903  13.667  0.5636  0.3313  0.6301
 2524TIP3    H128987   4.976   2.821  13.655  1.0321 -0.1820  2.1352
 2524TIP3    H228988   4.984   2.942  13.745  0.1144  1.7245 -0.2572
 2525TIP3   OH228989   0.891   3.957  10.886 -0.3954 -0.2265 -0.3516
 2525TIP3    H128990   0.824   4.024  10.904  0.1593  0.3790 -0.5207
 2525TIP3    H228991   0.974   4.005  10.890  0.0688 -1.0647  0.3167
 2526TIP3   OH228992   0.575   0.296  13.634 -0.2615 -0.2247 -0.2842
 2526TIP3    H128993   0.601   0.333  13.550  0.5814  0.8648  0.4249
 2526TIP3    H228994   0.484   0.271  13.623 -0.2311  0.1358 -1.4353
 2527TIP3   OH228995   6.415   1.721   1.631 -0.3389  0.2099 -0.7396
 2527TIP3    H128996   6.364   1.710   1.550 -1.0330 -1.6736 -0.1017
 2527TIP3    H228997   6.472   1.644   1.634 -0.5178  0.1061  0.6775
 2528TIP3   OH228998   1.712   3.429   5.210 -0.7143 -0.2167 -0.4130
 2528TIP3    H128999   1.647   3.368   5.245  0.6287 -0.5719  1.6241
 2528TIP3    H229000   1.768   3.375   5.155 -0.6975 -0.4207 -0.1981
 2529TIP3   OH229001   4.898   4.529   0.188  0.3914  0.9315  0.0141
 2529TIP3    H129002   4.857   4.481   0.116 -0.4550 -0.2475  1.2258
 2529TIP3    H229003   4.987   4.547   0.158  0.5803 -0.9902 -0.7000
 2530TIP3   OH229004   3.994   2.034  14.160  0.1840 -0.6797 -0.9260
 2530TIP3    H129005   3.995   2.122  14.195 -0.6243 -0.7664 -0.6750
 2530TIP3    H229006   3.939   1.984  14.220 -1.0002 -0.8930 -2.1168
 2531TIP3   OH229007   3.050   2.306   4.237 -0.3543  0.0381  0.1459
 2531TIP3    H129008   2.995   2.228   4.244  1.7812 -1.7699 -1.9052
 2531TIP3    H229009   3.056   2.324   4.143  0.8907  1.4224  0.4444
 2532TIP3   OH229010   4.793   4.448  15.457 -0.0788  0.5007 -0.0022
 2532TIP3    H129011   4.704   4.442  15.423 -0.5242  4.8218 -0.1602
 2532TIP3    H229012   4.782   4.471  15.549  0.8572  1.1356 -0.0383
 2533TIP3   OH229013   6.282   6.223  13.557  0.2109 -0.0293 -0.0423
 2533TIP3    H129014   6.286   6.159  13.629  2.5232 -0.2651 -0.3079
 2533TIP3    H229015   6.299   6.171  13.479  0.1978  0.6353 -0.4854
 2534TIP3   OH229016   2.214   1.273   2.995  0.2257  0.0477 -0.5754
 2534TIP3    H129017   2.277   1.343   2.977  1.1926 -0.8151 -0.6942
 2534TIP3    H229018   2.241   1.202   2.935 -0.0120 -0.8256  0.3313
 2535TIP3   OH229019   5.912   5.142  15.934 -0.1705  0.1577 -0.6236
 2535TIP3    H129020   5.856   5.155  16.010  1.2295  0.6000  0.3617
 2535TIP3    H229021   5.996   5.181  15.958  0.2099  0.6587 -2.5322
 2536TIP3   OH229022   4.573   3.574   2.958 -0.1798 -0.0915  0.2918
 2536TIP3    H129023   4.604   3.484   2.943 -0.6603 -0.2233  0.0664
 2536TIP3    H229024   4.479   3.564   2.975 -0.6966  0.5574 -1.8773
 2537TIP3   OH229025   4.070   2.577  11.687  0.5040 -0.2418  0.3416
 2537TIP3    H129026   4.030   2.550  11.604  1.2292 -0.2818  0.0029
 2537TIP3    H229027   4.101   2.495  11.726 -1.7715 -0.5660  1.7337
 2538TIP3   OH229028   4.754   2.817   3.426 -0.1382  0.0524  0.5500
 2538TIP3    H129029   4.805   2.896   3.439  0.6896 -0.2650 -0.6112
 2538TIP3    H229030   4.746   2.779   3.514 -0.7396  1.5136  1.1538
 2539TIP3   OH229031   0.284   6.523  13.446 -0.7360  0.2363  0.4503
 2539TIP3    H129032   0.208   6.469  13.427 -1.3941  1.4593 -0.4798
 2539TIP3    H229033   0.293   6.519  13.542 -2.3249  0.5254  0.6395
 2540TIP3   OH229034   3.701   5.232  16.499 -0.7963  0.1358 -0.7453
 2540TIP3    H129035   3.640   5.279  16.443  0.4379  0.3729 -1.9409
 2540TIP3    H229036   3.788   5.261  16.472 -0.1258  0.3616  1.4043
 2541TIP3   OH229037   5.837   2.663  14.759  0.4839 -0.2124 -0.5347
 2541TIP3    H129038   5.910   2.625  14.808 -0.7713 -0.0862  1.5858
 2541TIP3    H229039   5.842   2.757  14.779 -0.7699 -0.3264  0.4461
 2542TIP3   OH229040   6.072   0.196   4.687  0.2243 -0.0714 -0.2371
 2542TIP3    H129041   6.112   0.166   4.768 -0.3640 -2.7231 -0.8235
 2542TIP3    H229042   6.056   0.289   4.701  1.3188 -0.1633  2.1554
 2543TIP3   OH229043   6.216   6.250  14.403 -0.7936 -0.1097 -0.8564
 2543TIP3    H129044   6.310   6.262  14.394 -0.8115 -0.4132 -1.4433
 2543TIP3    H229045   6.178   6.335  14.378 -0.5713  0.8430  1.7594
 2544TIP3   OH229046   6.277   1.966   6.023 -0.1219  0.1067  0.6603
 2544TIP3    H129047   6.318   1.945   6.107 -0.3080  0.2728  0.7934
 2544TIP3    H229048   6.198   1.913   6.021  0.5424 -0.8789  0.0152
 2545TIP3   OH229049   3.346   0.601  16.153 -0.3039 -0.2115 -0.0356
 2545TIP3    H129050   3.309   0.652  16.225 -0.8894 -1.0890  0.3090
 2545TIP3    H229051   3.334   0.656  16.076  2.1696  1.6439  0.7795
 2546TIP3   OH229052   6.055   0.444  13.644 -0.7511 -0.2802  0.1576
 2546TIP3    H129053   6.046   0.352  13.620 -1.0965 -0.5551  1.3011
 2546TIP3    H229054   6.102   0.443  13.727 -1.5233  0.5188  0.6196
 2547TIP3   OH229055   3.863   0.456  12.181 -0.1051 -0.1228  0.1469
 2547TIP3    H129056   3.933   0.468  12.245  0.5165  0.4516 -0.6193
 2547TIP3    H229057   3.884   0.517  12.110  1.0589 -2.9775 -2.1558
 2548TIP3   OH229058   4.659   1.747   5.463 -0.9954  0.4630  0.1665
 2548TIP3    H129059   4.682   1.760   5.371 -2.0219  2.9799  0.1836
 2548TIP3    H229060   4.722   1.802   5.511 -0.7065 -0.5288  0.9454
 2549TIP3   OH229061   2.688   5.009   3.939 -0.0107  0.3811 -0.4093
 2549TIP3    H129062   2.605   5.055   3.951  0.1074  0.8546 -1.2922
 2549TIP3    H229063   2.689   4.943   4.008 -0.5529  1.1831  0.4019
 2550TIP3   OH229064   6.729   2.573   5.579  0.3016 -0.2851 -0.5714
 2550TIP3    H129065   6.637   2.597   5.578 -0.0017 -1.1861  1.2839
 2550TIP3    H229066   6.776   2.656   5.566 -0.7475  0.4648  0.2999
 2551TIP3   OH229067   1.113   6.530   5.449  0.1724  0.4977 -0.2622
 2551TIP3    H129068   1.144   6.609   5.492 -0.0326  0.8415 -0.7424
 2551TIP3    H229069   1.017   6.533   5.459  0.1730  0.2514 -0.1781
 2552TIP3   OH229070   1.462   6.166   1.520  0.6828  0.1150 -0.6290
 2552TIP3    H129071   1.539   6.134   1.474  0.7506  0.6765 -0.9117
 2552TIP3    H229072   1.411   6.087   1.540  1.8627 -0.3797  0.5653
 2553TIP3   OH229073   6.301   4.888   6.430 -0.6862  0.0210  0.0710
 2553TIP3    H129074   6.251   4.931   6.500 -1.4117 -0.6934  0.0140
 2553TIP3    H229075   6.392   4.901   6.454 -0.8608  1.7759 -0.0640
 2554TIP3   OH229076   1.896   6.678   4.291 -0.1221 -0.3253  0.4269
 2554TIP3    H129077   1.987   6.698   4.268 -0.6173 -0.7225 -2.1596
 2554TIP3    H229078   1.881   6.725   4.373  2.5837 -0.7503  1.2679
 2555TIP3   OH229079   2.804   0.914  14.069 -0.2208  0.1880  0.0329
 2555TIP3    H129080   2.812   0.906  14.164 -0.6196  0.5116  0.0971
 2555TIP3    H229081   2.720   0.873  14.049 -1.1232  1.9100  0.0771
 2556TIP3   OH229082   3.450   3.114   4.650  0.7097  0.5816 -0.4295
 2556TIP3    H129083   3.363   3.090   4.680  1.2058 -1.6114 -0.5375
 2556TIP3    H229084   3.509   3.078   4.717  1.5954  0.2756 -1.3432
 2557TIP3   OH229085   6.757   1.193   2.808  0.2984 -0.1147  0.2227
 2557TIP3    H129086   6.808   1.267   2.841 -0.7497  0.8633 -0.2694
 2557TIP3    H229087   6.819   1.143   2.755  0.7970  0.9509 -0.2232
 2558TIP3   OH229088   2.561   5.164  15.278  0.1981 -0.5065 -0.5099
 2558TIP3    H129089   2.617   5.152  15.201  0.4543  0.0163 -0.4084
 2558TIP3    H229090   2.620   5.150  15.352 -0.3330 -2.3832 -0.3813
 2559TIP3   OH229091   5.347   5.624   1.984 -0.2698 -0.1851 -0.5003
 2559TIP3    H129092   5.438   5.640   2.011 -1.0645  1.4059  1.5307
 2559TIP3    H229093   5.301   5.607   2.067 -1.6471 -2.1845 -1.5887
 2560TIP3   OH229094   2.103   0.457   0.327  0.1556 -0.6033  0.1500
 2560TIP3    H129095   2.189   0.423   0.302  0.0700 -0.8809  0.2236
 2560TIP3    H229096   2.105   0.549   0.303  0.4133 -0.6495 -0.0061
 2561TIP3   OH229097   1.739   6.767   2.052 -0.0275  0.0071  0.0089
 2561TIP3    H129098   1.737   6.768   1.956 -1.3804  1.4755  0.0067
 2561TIP3    H229099   1.824   6.731   2.074  0.0792 -0.9201 -1.7431
 2562TIP3   OH229100   3.573   4.595   1.577 -0.8886  0.2467 -0.0829
 2562TIP3    H129101   3.629   4.528   1.618 -3.2748 -1.4131  0.7135
 2562TIP3    H229102   3.547   4.652   1.650 -0.0512  1.1706 -0.4958
 2563TIP3   OH229103   2.810   4.013   0.621 -0.5994  0.3657 -0.7514
 2563TIP3    H129104   2.805   4.101   0.585 -0.3853  0.3650 -0.7826
 2563TIP3    H229105   2.718   3.988   0.636 -0.6192  0.8650 -0.0517
 2564TIP3   OH229106   4.946   0.676   0.873 -0.1011 -0.1429 -0.1130
 2564TIP3    H129107   4.881   0.657   0.941  1.1178  0.4283  1.2883
 2564TIP3    H229108   4.975   0.766   0.892 -0.4845  0.4340 -2.0739
 2565TIP3   OH229109   4.621   5.509   5.545 -0.2243 -0.5795 -0.1571
 2565TIP3    H129110   4.566   5.431   5.549 -2.0447  0.6599  0.9923
 2565TIP3    H229111   4.594   5.553   5.464 -1.9962  0.6924  1.0554
 2566TIP3   OH229112   3.929   5.985  14.139 -0.5457  0.1532 -0.3867
 2566TIP3    H129113   3.965   5.902  14.108  3.0286  1.4692 -0.1511
 2566TIP3    H229114   3.935   5.979  14.235 -0.2884  0.6842 -0.3695
 2567TIP3   OH229115   3.409   3.439  12.304  0.3729  0.5779 -0.1837
 2567TIP3    H129116   3.499   3.471  12.306  0.6409  0.0054 -1.9253
 2567TIP3    H229117   3.359   3.506  12.351  1.4033  1.9263 -0.9382
 2568TIP3   OH229118   0.175   1.191   0.166  1.0108 -0.0484 -0.0494
 2568TIP3    H129119   0.124   1.272   0.173 -0.2413 -0.8351  0.2759
 2568TIP3    H229120   0.191   1.166   0.257  1.0149 -0.3982 -0.1466
 2569TIP3   OH229121   6.633   2.191   2.067  0.4221 -0.1003  0.2400
 2569TIP3    H129122   6.691   2.134   2.118  0.6424  0.2171  0.3433
 2569TIP3    H229123   6.593   2.132   2.003  0.0946 -0.5158  0.8150
 2570TIP3   OH229124   2.548   0.299   1.252  0.3042  0.0247  0.4437
 2570TIP3    H129125   2.484   0.339   1.311 -0.7337  2.0340 -1.8713
 2570TIP3    H229126   2.609   0.370   1.231  1.1610 -0.8780 -0.2168
 2571TIP3   OH229127   1.136   0.121  15.068 -0.6789 -0.3763 -0.0820
 2571TIP3    H129128   1.142   0.159  14.980  0.7592  0.0661  0.1699
 2571TIP3    H229129   1.051   0.078  15.070 -0.6240 -0.6712 -1.8140
 2572TIP3   OH229130   3.125   5.855   3.855  0.5923 -0.2967 -0.0479
 2572TIP3    H129131   3.029   5.845   3.853  0.3394  1.6702 -0.7869
 2572TIP3    H229132   3.140   5.923   3.921  1.5276 -0.8654  0.3378
 2573TIP3   OH229133   5.139   6.084  13.008 -0.1046  0.7386 -0.9155
 2573TIP3    H129134   5.060   6.044  13.045 -0.0940  1.2030 -0.3788
 2573TIP3    H229135   5.187   6.010  12.969  0.0360  0.1694  0.2792
 2574TIP3   OH229136   5.713   4.409  15.944  0.1486  0.1737 -0.1235
 2574TIP3    H129137   5.785   4.472  15.948  0.1817  0.1611  4.2093
 2574TIP3    H229138   5.634   4.463  15.941  0.2031  0.2159 -2.2832
 2575TIP3   OH229139   0.157   5.811   5.520  0.1363  0.2905 -0.4867
 2575TIP3    H129140   0.068   5.819   5.554  0.0996  1.5465 -0.8079
 2575TIP3    H229141   0.212   5.849   5.589  0.4749 -0.8444 -0.1164
 2576TIP3   OH229142   4.287   6.050  13.649 -0.2581  0.0199 -0.2955
 2576TIP3    H129143   4.369   6.050  13.698 -0.9969 -0.6441  0.9893
 2576TIP3    H229144   4.234   6.118  13.691 -0.0969  1.0169 -1.6384
 2577TIP3   OH229145   6.119   2.468  14.544 -0.2119  0.0779 -0.3865
 2577TIP3    H129146   6.105   2.402  14.476 -1.1688 -0.7977  0.6111
 2577TIP3    H229147   6.057   2.537  14.524  1.2158  1.0351 -1.7949
 2578TIP3   OH229148   3.381   3.488   6.982  1.4732  0.5220 -0.3591
 2578TIP3    H129149   3.449   3.464   6.919  1.6362  2.3935 -0.9619
 2578TIP3    H229150   3.403   3.578   7.008 -0.3687  0.9067 -0.0152
 2579TIP3   OH229151   4.092   1.580  15.465 -0.2616 -0.3271  0.2282
 2579TIP3    H129152   4.178   1.621  15.472 -0.1300 -0.6500  0.5335
 2579TIP3    H229153   4.078   1.569  15.371  0.2791 -0.7848  0.1968
 2580TIP3   OH229154   5.828   3.346  13.968 -0.0611  0.3673  0.2125
 2580TIP3    H129155   5.796   3.405  13.899 -0.0999 -0.3973 -0.4406
 2580TIP3    H229156   5.858   3.405  14.037 -0.5389  1.1457 -0.2205
 2581TIP3   OH229157   6.203   4.315  14.648 -0.1185 -0.0239 -0.2782
 2581TIP3    H129158   6.187   4.410  14.646  0.4452  0.0794 -0.2039
 2581TIP3    H229159   6.227   4.294  14.557  0.1341 -0.0232 -0.2126
 2582TIP3   OH229160   4.833   2.299   3.151  0.3744  0.0274  0.4581
 2582TIP3    H129161   4.882   2.243   3.211  0.6309  0.2390  0.4499
 2582TIP3    H229162   4.791   2.364   3.208  2.5842  1.7382  0.2549
 2583TIP3   OH229163   3.938   1.735   6.099 -0.0913 -0.1553 -0.5594
 2583TIP3    H129164   3.988   1.666   6.143  1.3556  0.9021 -0.4579
 2583TIP3    H229165   3.847   1.706   6.104  0.5811 -2.7855 -1.8304
 2584TIP3   OH229166   4.312   1.068   1.415 -0.1636 -0.1980  0.0175
 2584TIP3    H129167   4.265   1.151   1.408 -0.8031 -0.4945  0.7082
 2584TIP3    H229168   4.399   1.087   1.380 -0.9558  0.2054 -1.8208
 2585TIP3   OH229169   0.935   4.347   3.033 -0.0576  0.0798 -0.4164
 2585TIP3    H129170   0.883   4.362   3.113 -0.4756  1.2719 -0.8883
 2585TIP3    H229171   0.870   4.323   2.967  0.1066  0.5614 -0.7582
 2586TIP3   OH229172   5.299   1.356  14.890 -0.0718 -0.2327 -0.0810
 2586TIP3    H129173   5.278   1.264  14.876 -1.2448  0.1728 -1.2826
 2586TIP3    H229174   5.287   1.369  14.984  0.0963 -1.2947  0.0997
 2587TIP3   OH229175   2.510   2.667  14.481 -0.2039  0.0527 -0.0690
 2587TIP3    H129176   2.465   2.598  14.433 -0.5932  0.2524  0.0014
 2587TIP3    H229177   2.557   2.621  14.550 -0.4594 -0.1444 -0.0219
 2588TIP3   OH229178   3.983   5.642   2.500 -0.6729 -0.5704  0.0247
 2588TIP3    H129179   3.926   5.690   2.560 -1.0073 -1.7982  0.7256
 2588TIP3    H229180   4.013   5.708   2.437 -0.2190  0.7928  1.5929
 2589TIP3   OH229181   0.892   4.700   2.473 -0.5768  0.9550 -0.1499
 2589TIP3    H129182   0.908   4.682   2.565 -1.4307  0.9959  0.0072
 2589TIP3    H229183   0.932   4.786   2.457 -1.2491  1.3787  0.4112
 2590TIP3   OH229184   6.377   2.426   5.188  0.0092 -0.2249 -0.1445
 2590TIP3    H129185   6.387   2.513   5.227 -0.0258  0.2619 -1.1674
 2590TIP3    H229186   6.415   2.435   5.100  1.0154 -1.5511  0.1172
 2591TIP3   OH229187   1.357   4.290   5.466 -0.3607  0.0303 -0.6077
 2591TIP3    H129188   1.306   4.235   5.526 -1.5409  1.0356 -0.6399
 2591TIP3    H229189   1.443   4.296   5.506 -0.2271 -1.7132 -0.5411
 2592TIP3   OH229190   3.742   4.441   1.723  0.0900 -0.5421 -0.2914
 2592TIP3    H129191   3.685   4.422   1.797 -0.5184 -1.5933 -0.9935
 2592TIP3    H229192   3.804   4.506   1.756 -0.2088 -0.9336  1.1120
 2593TIP3   OH229193   6.567   1.188   6.702  1.0221  0.0895 -0.2525
 2593TIP3    H129194   6.521   1.254   6.652  0.9472 -0.3137 -0.7308
 2593TIP3    H229195   6.655   1.223   6.713  0.6875  0.7320  0.4176
 2594TIP3   OH229196   4.169   6.513  14.730 -0.3269  0.0861  0.6212
 2594TIP3    H129197   4.148   6.438  14.674  0.5290  0.9506 -0.9253
 2594TIP3    H229198   4.129   6.588  14.685 -1.0034  0.6205  2.0433
 2595TIP3   OH229199   5.565   5.090  16.623  0.3080 -0.0091  0.7073
 2595TIP3    H129200   5.534   5.001  16.607  0.9486 -0.1704  0.3317
 2595TIP3    H229201   5.617   5.112  16.546 -0.3537  0.9286  0.5087
 2596TIP3   OH229202   4.032   4.245   1.696 -0.8142  0.2978  0.0771
 2596TIP3    H129203   3.977   4.178   1.736 -0.8039 -0.3188 -0.9066
 2596TIP3    H229204   4.069   4.293   1.770  0.1460 -1.5678  0.8772
 2597TIP3   OH229205   1.479   0.705  12.047  0.6111 -0.2721 -0.6753
 2597TIP3    H129206   1.539   0.643  12.088  0.1091 -2.1134 -2.5361
 2597TIP3    H229207   1.528   0.787  12.041  3.2785 -1.8670 -2.7118
 2598TIP3   OH229208   5.882   3.652   2.795 -0.4553 -0.3469  0.4648
 2598TIP3    H129209   5.858   3.603   2.873 -1.6217 -1.0699 -0.3104
 2598TIP3    H229210   5.811   3.635   2.733  0.8755 -0.5657 -1.0890
 2599TIP3   OH229211   3.883   2.600   5.536  0.1222  0.4604 -0.3059
 2599TIP3    H129212   3.866   2.541   5.610  0.3878 -0.2120 -0.7726
 2599TIP3    H229213   3.966   2.568   5.499  1.2379  2.2169  0.5044
 2600TIP3   OH229214   1.247   4.947   5.566 -0.5166  0.1372 -0.2367
 2600TIP3    H129215   1.328   4.909   5.603  0.0498  0.4501 -1.1299
 2600TIP3    H229216   1.271   4.971   5.477 -1.3794  0.9870 -0.2442
 2601TIP3   OH229217   0.281   5.744  17.182 -0.0874  0.3060 -0.1152
 2601TIP3    H129218   0.357   5.728  17.238  1.3188 -0.9798 -2.2713
 2601TIP3    H229219   0.225   5.801  17.234  1.8029  0.3606  2.0069
 2602TIP3   OH229220   6.227   0.398  13.047 -0.5126  0.1795 -0.3068
 2602TIP3    H129221   6.225   0.338  12.973 -2.3417 -1.8846  1.2598
 2602TIP3    H229222   6.245   0.342  13.123  0.2769  2.0360  0.9575
 2603TIP3   OH229223   4.979   3.691   3.274  0.3782  0.0072  0.6664
 2603TIP3    H129224   4.920   3.694   3.199  0.8831  0.1198  0.2707
 2603TIP3    H229225   5.006   3.599   3.281  2.2022  0.3748 -0.7769
 2604TIP3   OH229226   3.769   0.289  11.626 -0.0353  0.3031 -0.3074
 2604TIP3    H129227   3.782   0.369  11.575  1.2976 -0.1230 -0.6873
 2604TIP3    H229228   3.824   0.302  11.704  1.6083 -0.9085 -1.1855
 2605TIP3   OH229229   4.587   3.227   1.827 -0.6845  1.2271 -0.5774
 2605TIP3    H129230   4.564   3.162   1.893 -0.1058 -0.5373 -2.0318
 2605TIP3    H229231   4.504   3.263   1.797 -1.3712 -1.3872 -2.1672
 2606TIP3   OH229232   4.449   6.329   0.382  0.1171 -0.5175 -0.2207
 2606TIP3    H129233   4.449   6.236   0.364  0.0876 -0.5351 -0.1323
 2606TIP3    H229234   4.542   6.352   0.393  0.0586 -0.7973  1.0720
 2607TIP3   OH229235   4.032   5.866  15.284 -0.4536 -0.2750  0.3038
 2607TIP3    H129236   3.984   5.860  15.201 -1.3316  2.5593  0.5332
 2607TIP3    H229237   4.090   5.941  15.273  0.2202 -0.5263  1.9011
 2608TIP3   OH229238   5.931   0.735  16.469  0.5403 -0.5293 -0.0141
 2608TIP3    H129239   5.987   0.680  16.524  1.6392  0.8102  0.2830
 2608TIP3    H229240   5.842   0.716  16.498  1.0538 -0.2226  1.9322
 2609TIP3   OH229241   5.509   2.240   1.149  0.2958  0.2830 -0.5169
 2609TIP3    H129242   5.546   2.307   1.092  1.8529  1.0053  1.2840
 2609TIP3    H229243   5.578   2.175   1.158 -0.3429 -0.3837 -0.3230
 2610TIP3   OH229244   0.436   3.840  14.576 -0.4473 -0.3038 -0.0812
 2610TIP3    H129245   0.376   3.913  14.564  0.7355  0.5846 -0.8280
 2610TIP3    H229246   0.481   3.832  14.492  0.5614 -0.8511  0.4930
 2611TIP3   OH229247   1.932   0.809   3.075  0.4877 -0.2602 -0.0372
 2611TIP3    H129248   1.937   0.766   2.990  1.1130 -0.6473  0.1864
 2611TIP3    H229249   1.919   0.738   3.137  2.6770 -0.3004  0.4567
 2612TIP3   OH229250   4.599   0.435  12.729 -0.4682 -1.0067  0.3896
 2612TIP3    H129251   4.672   0.401  12.781 -0.0612  2.2263  2.2167
 2612TIP3    H229252   4.639   0.465  12.648  0.0354 -0.4039  0.8539
 2613TIP3   OH229253   6.611   6.363   4.197  0.7741  0.5634 -0.2895
 2613TIP3    H129254   6.544   6.356   4.128  0.8931  0.3570 -0.3841
 2613TIP3    H229255   6.584   6.300   4.263  0.6889  0.7243 -0.1706
 2614TIP3   OH229256   2.761   6.137   5.586  0.0091 -0.5143 -0.2525
 2614TIP3    H129257   2.709   6.210   5.619 -0.6801 -0.8138 -0.6534
 2614TIP3    H229258   2.696   6.076   5.551  0.4466 -1.9179  1.2254
 2615TIP3   OH229259   1.947   0.739   2.802  0.0759 -0.2638 -0.2339
 2615TIP3    H129260   2.026   0.760   2.751 -0.7194 -2.8598 -2.7987
 2615TIP3    H229261   1.878   0.792   2.761  0.0862  0.4682  0.6702
 2616TIP3   OH229262   1.611   6.584   4.080  0.0257 -0.3674  0.0825
 2616TIP3    H129263   1.679   6.638   4.120 -0.4476 -0.1722  0.6370
 2616TIP3    H229264   1.529   6.618   4.115 -0.2973 -1.3164  0.3021
 2617TIP3   OH229265   6.095   4.917   1.019 -0.3191  0.0745 -0.6490
 2617TIP3    H129266   6.141   4.997   1.043  2.1978 -1.4524 -0.0879
 2617TIP3    H229267   6.146   4.879   0.948  2.0417 -3.7967  2.6895
 2618TIP3   OH229268   0.356   3.537  11.192 -0.3677 -0.0345 -0.4292
 2618TIP3    H129269   0.305   3.568  11.267 -1.5091  0.7201 -1.4676
 2618TIP3    H229270   0.415   3.609  11.171 -0.9943  0.3137 -1.0579
 2619TIP3   OH229271   1.946   0.326   2.357  0.1722  0.4848  0.2011
 2619TIP3    H129272   1.902   0.258   2.307 -0.2762  0.8615  0.0770
 2619TIP3    H229273   2.039   0.303   2.352 -0.1005 -1.3132  1.9374
 2620TIP3   OH229274   5.866   6.509  15.512 -0.0573  0.5981  0.0970
 2620TIP3    H129275   5.837   6.526  15.602 -1.3598  0.9927 -0.3755
 2620TIP3    H229276   5.856   6.414  15.501 -0.4165  0.6245  0.1957
 2621TIP3   OH229277   6.014   6.354  12.612 -0.5636  0.5671  0.5710
 2621TIP3    H129278   6.100   6.379  12.577 -1.0738  0.4777 -0.8102
 2621TIP3    H229279   5.973   6.437  12.637 -0.3580  0.6697  0.5708
 2622TIP3   OH229280   4.342   0.598   2.489 -0.5766  0.3919  0.7076
 2622TIP3    H129281   4.256   0.576   2.453 -0.5019  1.3737 -0.1223
 2622TIP3    H229282   4.395   0.620   2.412  0.0188  1.0986  1.3092
 2623TIP3   OH229283   2.489   1.510   5.468  0.6603  0.2514 -0.8196
 2623TIP3    H129284   2.444   1.556   5.538  0.4017 -1.8018  0.4401
 2623TIP3    H229285   2.484   1.569   5.393 -1.1823  1.4963  0.2142
 2624TIP3   OH229286   0.266   0.369   4.406  0.1707 -0.4273  0.3081
 2624TIP3    H129287   0.279   0.464   4.400  0.0559 -0.5031 -1.4401
 2624TIP3    H229288   0.334   0.332   4.349 -0.2837 -1.3616  0.3676
 2625TIP3   OH229289   5.079   1.909  14.344 -0.0904 -0.9140  0.3957
 2625TIP3    H129290   5.015   1.978  14.330 -0.1205 -1.0122  0.0590
 2625TIP3    H229291   5.148   1.926  14.280 -0.2877 -1.4272  0.0420
 2626TIP3   OH229292   6.591   1.502   1.497 -0.0408 -0.1520  1.0260
 2626TIP3    H129293   6.666   1.445   1.514  0.8645  0.8379  0.4604
 2626TIP3    H229294   6.532   1.448   1.445  1.9281  0.1449 -1.7262
 2627TIP3   OH229295   4.047   5.318   1.917  1.1242 -0.0494 -0.1454
 2627TIP3    H129296   4.033   5.228   1.944  2.7359  0.1151  1.4120
 2627TIP3    H229297   4.142   5.325   1.905  1.0417  1.4629 -0.1569
 2628TIP3   OH229298   0.160   0.535   3.743  0.4633  0.2426  0.2101
 2628TIP3    H129299   0.194   0.474   3.809 -0.2853  1.0296  1.3650
 2628TIP3    H229300   0.091   0.486   3.699  2.9841 -1.3953 -2.2048
 2629TIP3   OH229301   3.265   4.693   4.178  0.4303  0.4443  0.2555
 2629TIP3    H129302   3.180   4.735   4.196 -0.1818 -0.9909  0.9278
 2629TIP3    H229303   3.307   4.751   4.115 -1.1368  1.1074 -0.2532
 2630TIP3   OH229304   4.949   3.351   1.328 -0.2606 -0.1762 -0.0040
 2630TIP3    H129305   4.928   3.444   1.326  0.4577 -0.0038  0.0473
 2630TIP3    H229306   4.896   3.313   1.258  0.5863  0.5399 -1.0827
 2631TIP3   OH229307   3.133   1.782   5.444  1.0779  0.5490 -0.3182
 2631TIP3    H129308   3.179   1.841   5.385  0.8060  0.6148 -0.4678
 2631TIP3    H229309   3.042   1.783   5.413  0.7947  1.1059  0.5037
 2632TIP3   OH229310   6.482   2.274  13.245  0.1147  0.0972  0.2395
 2632TIP3    H129311   6.394   2.241  13.226 -0.2778  1.3606 -0.2169
 2632TIP3    H229312   6.487   2.274  13.341 -1.6306  3.0177  0.4471
 2633TIP3   OH229313   1.975   1.220   2.758  0.4811  0.2088 -0.6847
 2633TIP3    H129314   1.891   1.180   2.735  0.1390  0.2804  0.3881
 2633TIP3    H229315   2.020   1.152   2.808  1.4286 -0.1339 -1.9362
 2634TIP3   OH229316   1.195   3.304  15.793 -0.0561  0.3762  0.0096
 2634TIP3    H129317   1.197   3.378  15.854  0.1584  1.6475 -1.4967
 2634TIP3    H229318   1.117   3.318  15.740  0.4538  0.0048 -0.8647
 2635TIP3   OH229319   0.198   5.950  13.985 -0.1217 -0.1166 -0.1927
 2635TIP3    H129320   0.167   6.040  13.993  2.2125  0.9947 -2.3858
 2635TIP3    H229321   0.130   5.898  14.028 -1.4840  2.6536  1.2776
 2636TIP3   OH229322   2.929   6.337   0.311  0.2509  0.3394 -0.2903
 2636TIP3    H129323   2.906   6.424   0.344  0.5538  0.8428 -1.3783
 2636TIP3    H229324   2.910   6.340   0.218  4.2583  0.7365 -1.2902
 2637TIP3   OH229325   3.062   2.000  12.992  0.2001 -0.0304 -0.0360
 2637TIP3    H129326   3.154   2.026  13.003  0.3798 -0.7135  0.1410
 2637TIP3    H229327   3.014   2.059  13.049  0.5174  0.4312 -0.2404
 2638TIP3   OH229328   2.846   6.223  15.980  0.4328  0.3374 -0.0549
 2638TIP3    H129329   2.822   6.286  15.912  0.7999  0.3898 -0.1373
 2638TIP3    H229330   2.922   6.177  15.944  0.9640  0.7299  0.5391
 2639TIP3   OH229331   6.273   3.114  13.593  0.4715  0.6777 -0.2968
 2639TIP3    H129332   6.259   3.129  13.687 -0.1749  0.6853 -0.3924
 2639TIP3    H229333   6.239   3.192  13.550  0.8539  0.7160 -0.5360
 2640TIP3   OH229334   4.640   4.425  17.152  0.0933 -0.1496 -0.0016
 2640TIP3    H129335   4.615   4.509  17.190  0.7828  0.5949 -1.1535
 2640TIP3    H229336   4.574   4.409  17.084 -0.9574 -1.3319  1.2183
 2641TIP3   OH229337   6.117   0.061  14.646 -0.7445 -0.4303  0.0053
 2641TIP3    H129338   6.038   0.043  14.696 -1.0344 -0.3077 -0.4017
 2641TIP3    H229339   6.182  -0.001  14.679 -0.7931 -0.0485  0.8509
 2642TIP3   OH229340   2.637   2.021  14.682  0.2109  0.0409  0.0452
 2642TIP3    H129341   2.710   2.043  14.741 -0.7746 -0.5099  1.5499
 2642TIP3    H229342   2.584   2.102  14.679 -0.1280 -0.1500  0.5583
 2643TIP3   OH229343   4.670   0.844   2.803 -0.1138 -0.1864 -0.4568
 2643TIP3    H129344   4.626   0.815   2.723 -1.6802 -0.7217  0.5422
 2643TIP3    H229345   4.759   0.810   2.796 -1.1775 -3.3490 -0.4358
 2644TIP3   OH229346   3.822   6.641   5.213 -0.0252 -0.3231  0.1357
 2644TIP3    H129347   3.749   6.682   5.259  1.1731  0.5904  1.2819
 2644TIP3    H229348   3.784   6.561   5.176 -1.6230  0.1748  0.5893
 2645TIP3   OH229349   5.622   3.174  12.118  0.0475  0.1160  0.3845
 2645TIP3    H129350   5.666   3.258  12.132 -2.2810  1.2238  1.5373
 2645TIP3    H229351   5.588   3.150  12.204 -2.2369 -0.2653 -0.5597
 2646TIP3   OH229352   5.321   0.358  16.128 -0.5122  0.2697  0.8090
 2646TIP3    H129353   5.329   0.453  16.123 -0.4703  0.3039  1.3994
 2646TIP3    H229354   5.235   0.343  16.168 -0.5838  0.0561  0.5798
 2647TIP3   OH229355   1.337   1.841   1.772  0.1191 -0.5816 -0.2720
 2647TIP3    H129356   1.406   1.829   1.837  0.5800  0.8335 -0.4574
 2647TIP3    H229357   1.360   1.923   1.728 -0.2763 -1.4188 -2.1151
 2648TIP3   OH229358   6.565   0.677   0.182 -0.2479  0.5602 -0.2356
 2648TIP3    H129359   6.656   0.658   0.202 -0.9570 -0.7386  2.1366
 2648TIP3    H229360   6.530   0.717   0.261 -1.8284  0.7280 -0.9629
 2649TIP3   OH229361   6.598   2.056   1.845  0.2145 -0.7815  0.0277
 2649TIP3    H129362   6.516   2.026   1.805 -0.3897  0.7331  0.0535
 2649TIP3    H229363   6.667   2.012   1.796 -0.6095 -2.3742  0.2391
 2650TIP3   OH229364   2.373   3.043   3.252  0.0495 -0.0558  0.1666
 2650TIP3    H129365   2.454   3.091   3.270 -0.6327  1.9270 -1.5277
 2650TIP3    H229366   2.331   3.034   3.337  2.0290 -1.1593  1.0853
 2651TIP3   OH229367   5.983   5.520   3.712  0.5401 -0.1950 -0.3690
 2651TIP3    H129368   6.061   5.542   3.764  1.9987 -0.1185 -2.4570
 2651TIP3    H229369   5.915   5.579   3.744  1.6150  0.4536  0.8317
 2652TIP3   OH229370   6.628   4.367  11.331  0.2220  0.1858 -0.3155
 2652TIP3    H129371   6.674   4.286  11.354 -1.2868 -0.6257  0.0099
 2652TIP3    H229372   6.608   4.358  11.238 -0.5518 -0.1613 -0.1274
 2653TIP3   OH229373   0.802   4.915   5.521  0.0368  0.0870  0.2624
 2653TIP3    H129374   0.764   4.984   5.575 -1.1693 -0.5173  0.2317
 2653TIP3    H229375   0.884   4.893   5.564  0.0716  1.0191  0.6887
 2654TIP3   OH229376   0.442   2.289  12.182  0.9909  0.2703 -0.2695
 2654TIP3    H129377   0.404   2.315  12.266 -3.2075 -1.8607 -1.2151
 2654TIP3    H229378   0.496   2.213  12.204 -0.1238 -0.3259  0.5983
 2655TIP3   OH229379   6.584   5.664  16.017 -0.4907  0.0806  0.2618
 2655TIP3    H129380   6.645   5.728  16.055 -0.5560  0.0987  0.3367
 2655TIP3    H229381   6.550   5.616  16.092 -0.8835  0.3495  0.2610
 2656TIP3   OH229382   5.879   0.783  12.870 -0.3814  0.2856 -0.0575
 2656TIP3    H129383   5.812   0.739  12.922 -0.9205  0.2014 -0.8018
 2656TIP3    H229384   5.835   0.806  12.788  0.7351 -0.5843 -0.9456
 2657TIP3   OH229385   3.899   4.320   3.874 -0.0290 -0.0259  0.0515
 2657TIP3    H129386   3.981   4.351   3.835 -1.0891  2.4498 -0.4390
 2657TIP3    H229387   3.839   4.312   3.800 -0.4068 -1.2875  0.4676
 2658TIP3   OH229388   0.321   5.224   4.180 -0.5121 -0.3068 -0.1199
 2658TIP3    H129389   0.231   5.192   4.173 -0.3922 -0.3640 -1.8063
 2658TIP3    H229390   0.338   5.226   4.274 -2.8361  1.3167  0.3551
 2659TIP3   OH229391   1.183   3.832   1.006 -0.1111 -0.4446  0.8459
 2659TIP3    H129392   1.109   3.798   1.056 -0.0200  0.5688  1.7126
 2659TIP3    H229393   1.194   3.921   1.038 -0.3616  0.4431 -1.3655
 2660TIP3   OH229394   5.839   6.236  13.034  0.4025 -0.2460 -0.0131
 2660TIP3    H129395   5.813   6.319  12.994  1.0531 -0.1878 -0.3235
 2660TIP3    H229396   5.934   6.234  13.026  0.3130 -1.5432 -1.0451
 2661TIP3   OH229397   4.743   5.040  14.625  0.1360  0.4011  0.0289
 2661TIP3    H129398   4.799   4.976  14.669  0.2390  0.4571 -0.0200
 2661TIP3    H229399   4.676   4.987  14.582  1.0725  0.1927 -1.2703
 2662TIP3   OH229400   3.694   5.037   2.085 -0.4942  0.0141 -0.3351
 2662TIP3    H129401   3.662   4.999   2.004  0.1054  0.2148 -0.6730
 2662TIP3    H229402   3.704   5.130   2.066 -0.7282  0.1310  0.0920
 2663TIP3   OH229403   6.558   1.694   0.245  0.5691  0.2909 -1.0034
 2663TIP3    H129404   6.495   1.680   0.315  1.4670 -0.9419 -0.4130
 2663TIP3    H229405   6.623   1.753   0.283  0.1066  1.1076 -1.4307
 2664TIP3   OH229406   2.512   6.123  16.477 -0.4717 -0.3681 -0.2158
 2664TIP3    H129407   2.560   6.197  16.440  1.8595 -1.4574  0.4835
 2664TIP3    H229408   2.491   6.151  16.566  0.1234 -0.4246 -0.0554
 2665TIP3   OH229409   3.130   4.726   4.469 -0.6875  0.1170  0.0294
 2665TIP3    H129410   3.131   4.649   4.412 -1.3244 -0.4132  0.7209
 2665TIP3    H229411   3.039   4.736   4.495 -0.4542  0.5492  0.7022
 2666TIP3   OH229412   6.724   3.317  16.448 -0.3208 -0.9179  0.2074
 2666TIP3    H129413   6.780   3.287  16.519 -0.9583 -2.3006  0.1693
 2666TIP3    H229414   6.776   3.304  16.369 -0.6290 -2.1286  0.1786
 2667TIP3   OH229415   1.090   3.809  16.887 -0.2135  0.1611 -0.2695
 2667TIP3    H129416   1.128   3.887  16.845  2.1402 -0.6709  0.1224
 2667TIP3    H229417   1.138   3.736  16.847 -1.7869 -1.0470 -0.0301
 2668TIP3   OH229418   3.509   0.662   5.822 -0.2800 -0.3239 -0.1718
 2668TIP3    H129419   3.543   0.573   5.815  0.3045 -0.2290  1.1417
 2668TIP3    H229420   3.578   0.711   5.865 -1.0082  0.5325  0.0638
 2669TIP3   OH229421   4.582   4.302   2.878  0.6430  0.2145  0.6283
 2669TIP3    H129422   4.574   4.309   2.973  3.5225  3.6437  0.8589
 2669TIP3    H229423   4.670   4.268   2.864  0.7007  0.8812 -0.7564
 2670TIP3   OH229424   5.393   1.934  12.558 -1.2931 -0.5264  0.2124
 2670TIP3    H129425   5.409   2.006  12.619 -0.0792  0.0393 -0.7212
 2670TIP3    H229426   5.408   1.855  12.609  0.7840 -0.0536  0.4027
 2671TIP3   OH229427   3.310   5.920  16.799  0.0095  0.1718  0.6961
 2671TIP3    H129428   3.353   5.989  16.849 -1.2902  0.9274  0.8068
 2671TIP3    H229429   3.304   5.846  16.860 -0.3837  0.6477  1.2473
 2672TIP3   OH229430   3.558   2.442   3.136  0.3992  0.0235  0.5424
 2672TIP3    H129431   3.511   2.379   3.191 -1.1169  1.5096  1.0552
 2672TIP3    H229432   3.569   2.518   3.193 -1.1461  1.5839 -1.1318
 2673TIP3   OH229433   4.591   1.167   4.722  0.3208  0.2179  0.0152
 2673TIP3    H129434   4.506   1.167   4.766  0.0379  0.7419 -0.5094
 2673TIP3    H229435   4.571   1.190   4.631  0.9721 -0.1315 -0.2270
 2674TIP3   OH229436   3.307   5.072   1.146  0.3152  0.5196  0.1900
 2674TIP3    H129437   3.334   5.164   1.139  0.3634  0.5075  0.2157
 2674TIP3    H229438   3.364   5.036   1.214  0.4905  0.3973 -0.0203
 2675TIP3   OH229439   0.521   2.704   1.100  0.6126  0.3485  0.0613
 2675TIP3    H129440   0.563   2.641   1.041  0.9673 -0.2141  0.8945
 2675TIP3    H229441   0.471   2.762   1.042 -0.9409 -1.5750 -0.6353
 2676TIP3   OH229442   1.195   0.111   5.243  0.4911 -0.2727 -0.0806
 2676TIP3    H129443   1.258   0.137   5.177 -2.2586  1.9909 -2.0477
 2676TIP3    H229444   1.197   0.182   5.308 -1.2720  0.8469 -1.1724
 2677TIP3   OH229445   2.726   0.808  14.324 -0.5718  0.1520 -0.3313
 2677TIP3    H129446   2.759   0.722  14.350  0.3579  0.6811  0.2901
 2677TIP3    H229447   2.768   0.869  14.384 -0.4939  1.1420 -1.3516
 2678TIP3   OH229448   1.870   6.638   2.932 -0.2340 -0.2703 -0.1396
 2678TIP3    H129449   1.775   6.632   2.923 -0.5183 -0.1584  2.0874
 2678TIP3    H229450   1.898   6.549   2.954  0.3779 -0.5686 -1.9870
 2679TIP3   OH229451   5.597   0.494   5.615 -0.0146  0.1165  0.0077
 2679TIP3    H129452   5.642   0.578   5.605 -1.4770  1.2746  2.1844
 2679TIP3    H229453   5.564   0.495   5.705 -1.1004 -2.3058 -0.2717
 2680TIP3   OH229454   2.307   2.230   3.768  0.3971 -0.3348  0.4572
 2680TIP3    H129455   2.225   2.213   3.722  2.0397 -2.7767 -1.8925
 2680TIP3    H229456   2.305   2.170   3.843 -0.9760  1.4832  1.9767
 2681TIP3   OH229457   5.550   0.149   4.568  0.1433  0.2448 -0.2029
 2681TIP3    H129458   5.490   0.085   4.531  1.1334 -0.3117 -0.8912
 2681TIP3    H229459   5.637   0.111   4.555  0.6770  1.2033  0.4206
 2682TIP3   OH229460   5.238   4.136  16.242  0.4012  0.6897  0.1025
 2682TIP3    H129461   5.273   4.083  16.314  2.8127  0.9960 -0.7502
 2682TIP3    H229462   5.200   4.213  16.286 -0.5645 -0.3566  1.1686
 2683TIP3   OH229463   0.129   1.639  16.156 -0.0871 -0.9676 -0.0703
 2683TIP3    H129464   0.105   1.688  16.077 -1.0074 -1.1301  0.0968
 2683TIP3    H229465   0.187   1.570  16.124 -3.5747 -3.6072 -1.3574
 2684TIP3   OH229466   3.872   5.495  13.483 -0.1384  0.0939  0.7178
 2684TIP3    H129467   3.856   5.402  13.468  1.8828  0.0083 -1.2789
 2684TIP3    H229468   3.877   5.503  13.579 -0.6999 -1.7515  0.9390
 2685TIP3   OH229469   0.808   3.239   2.008 -0.1649 -0.3480  0.7011
 2685TIP3    H129470   0.898   3.217   1.985 -0.0806  0.3026  0.3668
 2685TIP3    H229471   0.770   3.157   2.039  0.6701 -0.5356  1.2652
 2686TIP3   OH229472   5.528   2.914  15.608  0.0482 -0.0061 -0.3722
 2686TIP3    H129473   5.517   2.819  15.600  0.0517  0.0647 -1.3182
 2686TIP3    H229474   5.535   2.929  15.702 -1.6640 -0.7557 -0.0884
 2687TIP3   OH229475   6.631   5.067  15.295 -0.2437  0.6572  0.1965
 2687TIP3    H129476   6.584   5.019  15.227 -1.9658  0.7560  1.2378
 2687TIP3    H229477   6.575   5.142  15.314  2.1051  2.8407 -0.9901
 2688TIP3   OH229478   1.482   2.273   6.038  0.1409  0.5638 -0.2908
 2688TIP3    H129479   1.562   2.222   6.024 -0.7167 -0.8644 -0.1594
 2688TIP3    H229480   1.413   2.221   5.998 -0.4961  2.7125 -2.2067
 2689TIP3   OH229481   6.021   4.170   3.910 -0.3689  0.2873 -0.1416
 2689TIP3    H129482   6.086   4.220   3.959 -0.7931  1.4210 -0.7257
 2689TIP3    H229483   6.072   4.120   3.847  0.3311 -2.1410  2.1187
 2690TIP3   OH229484   1.178   5.636  15.466  0.1456  0.2319 -0.1666
 2690TIP3    H129485   1.180   5.549  15.425 -0.7092 -0.4417  1.1643
 2690TIP3    H229486   1.117   5.627  15.539  2.0323  1.2096  1.6399
 2691TIP3   OH229487   0.733   3.853  13.622 -0.1007  0.6992  0.0546
 2691TIP3    H129488   0.797   3.833  13.691  1.2322  1.7754 -0.8325
 2691TIP3    H229489   0.782   3.902  13.557 -1.3942 -0.0628 -1.5689
 2692TIP3   OH229490   6.645   2.160  13.688 -0.0600  0.2223 -0.9977
 2692TIP3    H129491   6.653   2.204  13.774  0.2479 -0.6010 -0.5968
 2692TIP3    H229492   6.604   2.076  13.708 -0.1302  0.0938 -1.6847
 2693TIP3   OH229493   0.818   0.694   5.124  0.6848  0.1121  0.0640
 2693TIP3    H129494   0.753   0.715   5.192  1.6657  0.4517  0.9277
 2693TIP3    H229495   0.878   0.633   5.167  1.3178  0.3256 -0.4992
 2694TIP3   OH229496   2.861   0.681   1.006  0.6182 -0.4017 -0.3531
 2694TIP3    H129497   2.779   0.699   0.959  0.0632 -0.7449  0.4578
 2694TIP3    H229498   2.920   0.751   0.978  0.5392 -0.9765 -2.0798
 2695TIP3   OH229499   0.536   6.646  14.956  0.2079  0.1358 -0.0122
 2695TIP3    H129500   0.555   6.570  15.011 -3.3382 -1.6078 -0.9213
 2695TIP3    H229501   0.518   6.717  15.018 -0.4639 -0.8998  1.0233
 2696TIP3   OH229502   3.365   2.145   6.289  0.4074  0.1398  0.2949
 2696TIP3    H129503   3.373   2.184   6.376 -0.2068  0.0454  0.3908
 2696TIP3    H229504   3.367   2.051   6.304 -1.9953  0.0634  0.4496
 2697TIP3   OH229505   6.244   0.798  13.943 -0.6631  0.1223  0.7195
 2697TIP3    H129506   6.322   0.853  13.942 -1.3336  1.1405  1.6532
 2697TIP3    H229507   6.253   0.745  14.022 -0.0011 -1.1882 -0.1958
 2698TIP3   OH229508   5.233   1.690   6.411  0.1186  0.2294  0.8066
 2698TIP3    H129509   5.256   1.643   6.330  1.4524 -0.0624  1.3252
 2698TIP3    H229510   5.184   1.625   6.462  1.3224 -0.3965  1.2095
 2699TIP3   OH229511   3.279   2.900   4.818  0.1743 -0.1661 -0.1120
 2699TIP3    H129512   3.285   2.838   4.745  0.6157 -1.8539  1.2833
 2699TIP3    H229513   3.251   2.847   4.893  1.3525  1.1585  1.3450
 2700TIP3   OH229514   4.791   5.520  10.981  0.4074 -0.2256  0.6335
 2700TIP3    H129515   4.877   5.498  10.944  0.1523  0.5450 -0.4750
 2700TIP3    H229516   4.767   5.443  11.033  1.0298 -1.1546 -0.3893
 2701TIP3   OH229517   5.510   1.194  16.863  0.0456 -0.2707 -0.7154
 2701TIP3    H129518   5.599   1.221  16.887 -0.3762  0.8572 -0.3109
 2701TIP3    H229519   5.477   1.267  16.811 -0.8004 -0.4707 -0.4674
 2702TIP3   OH229520   4.737   3.469   4.601 -0.2471  0.2778  0.3296
 2702TIP3    H129521   4.644   3.490   4.599 -0.4351 -0.4475  1.0028
 2702TIP3    H229522   4.741   3.374   4.593  0.5140  0.3968 -1.1591
 2703TIP3   OH229523   3.165   5.129   0.752  0.5162 -0.6688  0.6660
 2703TIP3    H129524   3.151   5.186   0.677  0.8886 -1.1331  0.2381
 2703TIP3    H229525   3.210   5.185   0.816 -2.8738  0.7954  2.0097
 2704TIP3   OH229526   2.117   0.331   3.292 -0.2899  0.2444 -0.9908
 2704TIP3    H129527   2.123   0.427   3.288  1.4062  0.1436 -1.7974
 2704TIP3    H229528   2.202   0.303   3.327 -0.3864 -1.0170 -1.7163
 2705TIP3   OH229529   2.721   3.858  16.107  0.1508 -0.9155  0.0609
 2705TIP3    H129530   2.634   3.857  16.148  0.7221  0.3890  1.3830
 2705TIP3    H229531   2.726   3.774  16.061 -2.5822 -0.2034 -1.7827
 2706TIP3   OH229532   0.916   1.228  15.162  0.0326 -0.2707 -0.7113
 2706TIP3    H129533   0.859   1.224  15.086  1.7452 -0.2214 -2.0535
 2706TIP3    H229534   0.872   1.289  15.222 -0.6310  0.8620 -2.2863
 2707TIP3   OH229535   1.305   3.119   0.042 -0.6238 -0.6412 -0.0828
 2707TIP3    H129536   1.377   3.058   0.028  1.1041  1.1736  0.4959
 2707TIP3    H229537   1.316   3.185  -0.027 -1.5132 -0.1317  0.2518
 2708TIP3   OH229538   5.400   2.966  11.457  0.2109 -0.3914 -0.1498
 2708TIP3    H129539   5.437   2.954  11.545  0.6646 -1.1122 -0.4273
 2708TIP3    H229540   5.328   3.027  11.469 -0.6583 -1.5755  0.9832
 2709TIP3   OH229541   1.959   3.520  12.864  0.0817 -0.0123 -0.6986
 2709TIP3    H129542   1.977   3.609  12.834  1.6305 -0.3877 -0.9730
 2709TIP3    H229543   1.932   3.531  12.956 -0.3207  0.7816 -0.9058
 2710TIP3   OH229544   1.183   1.328  14.984  0.0319  0.2545  0.1507
 2710TIP3    H129545   1.104   1.288  15.020  1.0522 -0.7166  1.4329
 2710TIP3    H229546   1.248   1.321  15.055  0.7962  2.5794 -0.2361
 2711TIP3   OH229547   4.905   3.023  13.860 -0.1952  0.5137  0.2153
 2711TIP3    H129548   4.889   2.976  13.942 -0.2486 -0.1799 -0.1857
 2711TIP3    H229549   4.956   3.100  13.886  0.7327 -0.2592  0.7746
 2712TIP3   OH229550   0.099   4.535   1.714 -0.1457  0.2757 -0.2060
 2712TIP3    H129551   0.188   4.551   1.684  0.0958 -0.7059 -0.0594
 2712TIP3    H229552   0.093   4.440   1.722 -1.2659  0.3163 -0.3828
 2713TIP3   OH229553   0.818   5.691   3.090 -0.3865  0.0319 -0.0514
 2713TIP3    H129554   0.854   5.779   3.101  1.7678 -0.7013 -0.6437
 2713TIP3    H229555   0.748   5.685   3.155  0.8309  1.4518  1.4877
 2714TIP3   OH229556   5.976   2.337  12.681  0.4005  0.5509  0.7638
 2714TIP3    H129557   5.947   2.306  12.596  1.3758  0.4909  0.4438
 2714TIP3    H229558   5.996   2.258  12.731 -1.1360  0.5448  1.4196
 2715TIP3   OH229559   5.204   4.016  13.088  0.1528 -0.0218 -0.0519
 2715TIP3    H129560   5.195   4.055  13.175  0.1777  2.7253 -1.1856
 2715TIP3    H229561   5.115   4.014  13.054  0.4364  1.4693 -0.9484
 2716TIP3   OH229562   0.029   4.702   1.435  0.3846 -0.0935 -0.4522
 2716TIP3    H129563  -0.039   4.714   1.501  0.5949 -0.5366 -0.1496
 2716TIP3    H229564   0.109   4.734   1.477  0.4742 -0.1397 -0.5876
 2717TIP3   OH229565   3.917   3.104  11.915 -0.0446 -0.2579 -0.6097
 2717TIP3    H129566   3.911   3.142  11.828 -0.8375 -0.5572 -0.6890
 2717TIP3    H229567   3.970   3.166  11.965  0.3480 -0.0460 -1.2746
 2718TIP3   OH229568   2.211   6.698  13.958 -0.1234 -0.1807 -0.5313
 2718TIP3    H129569   2.143   6.670  14.019 -0.7036  1.1521 -0.5210
 2718TIP3    H229570   2.280   6.734  14.014  0.5961 -1.4770 -0.5455
 2719TIP3   OH229571   5.304   6.571   3.646  0.1149  0.3670  0.3575
 2719TIP3    H129572   5.388   6.536   3.616 -1.8938 -2.6022 -2.5382
 2719TIP3    H229573   5.275   6.508   3.713  0.1999  1.4498  1.4416
 2720TIP3   OH229574   3.174   3.718  14.757  0.1547 -0.3027  0.1405
 2720TIP3    H129575   3.079   3.714  14.757  0.1024 -0.0225  2.3720
 2720TIP3    H229576   3.198   3.721  14.664 -2.0835  1.7233 -0.4648
 2721TIP3   OH229577   2.964   1.391  13.460  0.6362 -0.5258 -0.4182
 2721TIP3    H129578   2.988   1.461  13.521 -1.3165 -0.4753  0.3615
 2721TIP3    H229579   2.935   1.319  13.517 -3.2665  0.2671 -1.1819
 2722TIP3   OH229580   5.421   5.050   4.349  0.3136 -0.1316 -0.2511
 2722TIP3    H129581   5.499   5.070   4.401 -0.0653  1.1690 -0.1239
 2722TIP3    H229582   5.452   5.046   4.259  0.5364  0.4638 -0.2105
 2723TIP3   OH229583   5.927   3.845   4.763  0.0621 -0.3129  0.1642
 2723TIP3    H129584   5.944   3.939   4.758  1.9136 -0.4501  2.2413
 2723TIP3    H229585   5.842   3.838   4.806 -0.9684  0.3665 -1.6557
 2724TIP3   OH229586   5.570   6.337  15.694  0.6145  0.0385  0.1287
 2724TIP3    H129587   5.586   6.428  15.721 -0.0198  0.4045 -0.6638
 2724TIP3    H229588   5.564   6.342  15.598 -0.5712 -0.6432  0.1516
 2725TIP3   OH229589   1.222   1.850   3.806 -0.3870  0.1573  0.0495
 2725TIP3    H129590   1.188   1.762   3.790 -1.8276  0.8085 -0.6697
 2725TIP3    H229591   1.314   1.836   3.829 -0.2862 -1.4453 -1.1368
 2726TIP3   OH229592   4.455   3.684  13.748 -0.1852  0.0217 -0.6861
 2726TIP3    H129593   4.359   3.682  13.740 -0.3455  0.9769  0.5787
 2726TIP3    H229594   4.485   3.723  13.666 -0.7515 -1.6268 -1.7103
 2727TIP3   OH229595   4.193   4.664  12.482 -0.5274 -0.0052 -0.1167
 2727TIP3    H129596   4.154   4.742  12.521 -1.5319  0.1535 -1.3766
 2727TIP3    H229597   4.134   4.593  12.505 -0.7426 -0.0306 -0.7251
 2728TIP3   OH229598   4.087   2.463   2.083  0.3789  0.0491  0.3378
 2728TIP3    H129599   4.065   2.537   2.026  1.1051  1.8834  2.2830
 2728TIP3    H229600   4.175   2.436   2.056  1.2231  1.6979  1.2727
 2729TIP3   OH229601   5.541   3.087  13.341 -0.1021  0.2031  0.3402
 2729TIP3    H129602   5.478   3.133  13.285 -0.6669 -0.0207  0.7851
 2729TIP3    H229603   5.488   3.024  13.390  0.8744 -2.8621 -2.1265
 2730TIP3   OH229604   5.822   0.704   0.339 -0.2265  0.7078  0.6745
 2730TIP3    H129605   5.757   0.742   0.399 -1.1307 -0.4311  0.4395
 2730TIP3    H229606   5.772   0.646   0.283  0.8757  0.4864 -0.1125
 2731TIP3   OH229607   1.702   2.461  12.379  0.7251  0.2123 -0.2804
 2731TIP3    H129608   1.798   2.467  12.376  1.1093 -3.0748  0.6448
 2731TIP3    H229609   1.685   2.374  12.417 -2.6551  1.2526  0.9513
 2732TIP3   OH229610   3.556   0.395  16.847 -0.0521  0.7650 -0.2084
 2732TIP3    H129611   3.625   0.446  16.890  0.2593 -0.1309  0.3876
 2732TIP3    H229612   3.586   0.304  16.854 -1.4704  0.3077  0.4171
 2733TIP3   OH229613   3.744   1.843  16.725  0.2148 -0.0694 -0.4516
 2733TIP3    H129614   3.831   1.867  16.693 -0.2559  0.6375 -1.2783
 2733TIP3    H229615   3.693   1.827  16.645 -0.9482  1.5510 -0.0955
 2734TIP3   OH229616   4.459   5.274  12.463 -0.2720 -0.6606  0.7321
 2734TIP3    H129617   4.510   5.312  12.392 -0.7512  1.0951  1.2866
 2734TIP3    H229618   4.523   5.224  12.514  0.3129 -0.8655 -0.1797
 2735TIP3   OH229619   2.662   3.477   6.231  0.9622 -0.2494  0.0652
 2735TIP3    H129620   2.744   3.524   6.244  0.8019 -0.5940  3.0413
 2735TIP3    H229621   2.673   3.395   6.280 -0.1136 -1.6443 -1.8982
 2736TIP3   OH229622   6.743   1.258  12.881  0.1737  0.1211 -0.2413
 2736TIP3    H129623   6.838   1.258  12.879  0.1634 -0.4602 -1.3069
 2736TIP3    H229624   6.716   1.286  12.794 -0.6051 -2.0768 -0.7701
 2737TIP3   OH229625   1.633   4.554   2.373  0.2057  0.0485 -0.8186
 2737TIP3    H129626   1.552   4.599   2.351  1.4889  1.7187 -2.5419
 2737TIP3    H229627   1.643   4.488   2.304 -0.0750 -0.7148 -0.1390
 2738TIP3   OH229628   6.601   5.159   3.700 -0.0808 -0.2290 -0.2587
 2738TIP3    H129629   6.507   5.141   3.692 -0.2679 -0.1556  1.4558
 2738TIP3    H229630   6.609   5.252   3.681 -0.0770 -0.5738 -2.1619
 2739TIP3   OH229631   2.700   2.526  11.821  0.5229 -0.2470 -0.4419
 2739TIP3    H129632   2.732   2.577  11.747 -1.4416  1.2134 -0.3659
 2739TIP3    H229633   2.676   2.592  11.886  1.0455 -1.4484  1.0371
 2740TIP3   OH229634   3.701   4.932   1.068  0.3358 -0.2081  0.4892
 2740TIP3    H129635   3.762   4.929   0.994  0.3306 -0.0477  0.4779
 2740TIP3    H229636   3.730   5.008   1.119  0.1784 -0.1633  0.5115
 2741TIP3   OH229637   5.398   6.495  14.618  0.0381  0.2198 -0.1115
 2741TIP3    H129638   5.453   6.417  14.625 -0.7816 -0.3373  0.3063
 2741TIP3    H229639   5.443   6.551  14.555 -0.0004 -1.1534 -1.4112
 2742TIP3   OH229640   6.733   2.469   2.034  0.3523  0.5694 -0.0581
 2742TIP3    H129641   6.732   2.448   1.941 -0.7280 -0.5444  0.1828
 2742TIP3    H229642   6.658   2.421   2.070  0.4505  1.3962  1.2933
 2743TIP3   OH229643   2.665   5.138   2.161 -0.4989  0.7045  0.1347
 2743TIP3    H129644   2.604   5.074   2.125  0.0869  0.5550 -0.6129
 2743TIP3    H229645   2.749   5.117   2.120 -0.0094  1.1150  0.8966
 2744TIP3   OH229646   2.837   4.541  13.902  0.0917  0.2089  0.4132
 2744TIP3    H129647   2.922   4.532  13.858 -1.4996 -1.2077 -2.6959
 2744TIP3    H229648   2.837   4.631  13.935  1.7848  1.1887 -1.9501
 2745TIP3   OH229649   2.128   4.074  13.444 -0.0229 -0.1141  0.5107
 2745TIP3    H129650   2.035   4.084  13.427 -0.1016 -0.8956  0.4389
 2745TIP3    H229651   2.168   4.154  13.409 -0.6113  0.0213  0.1357
 2746TIP3   OH229652   1.282   2.462  16.113  0.1160 -0.4900 -0.4691
 2746TIP3    H129653   1.349   2.394  16.123  1.8309  0.9732 -1.3312
 2746TIP3    H229654   1.288   2.513  16.194  0.2321 -0.2147 -0.6492
 2747TIP3   OH229655   4.525   1.273  11.261 -0.1104 -0.4668 -0.1558
 2747TIP3    H129656   4.573   1.265  11.343  0.4252  0.1565 -0.4024
 2747TIP3    H229657   4.461   1.342  11.278  0.2776 -0.0436 -0.3843
 2748TIP3   OH229658   0.761   5.756  15.585 -0.2332  0.5168  0.3694
 2748TIP3    H129659   0.665   5.749  15.582 -0.2848  0.9677  0.8276
 2748TIP3    H229660   0.777   5.846  15.612  0.3213  0.3627  0.5635
 2749TIP3   OH229661   0.905   5.595   4.037 -0.4502  0.2979 -0.3120
 2749TIP3    H129662   0.860   5.663   4.086  1.5716  1.0468  0.6225
 2749TIP3    H229663   0.935   5.638   3.956  0.9000  0.6095  0.3159
 2750TIP3   OH229664   6.573   5.408  12.091 -0.2560 -0.0081 -0.1588
 2750TIP3    H129665   6.615   5.322  12.095 -0.4061 -0.2038 -1.8804
 2750TIP3    H229666   6.645   5.470  12.082 -0.2094 -0.0894 -0.3465
 2751TIP3   OH229667   3.499   5.366   2.163 -0.4518 -0.8664  0.2934
 2751TIP3    H129668   3.549   5.328   2.234 -1.1104 -0.5460  0.9506
 2751TIP3    H229669   3.548   5.346   2.084  1.5504  0.7646  1.0308
 2752TIP3   OH229670   4.598   6.351  16.247  0.1685  0.0226 -0.6814
 2752TIP3    H129671   4.587   6.361  16.341  0.6078 -0.9679 -0.5067
 2752TIP3    H229672   4.529   6.405  16.208  0.6269  1.2721  0.1802
 2753TIP3   OH229673   4.605   1.883  14.779  0.2598  0.1495 -0.6328
 2753TIP3    H129674   4.570   1.823  14.712  0.6134  1.0271 -1.6194
 2753TIP3    H229675   4.699   1.886  14.762  0.3516  0.3968 -0.1011
 2754TIP3   OH229676   1.961   1.471  12.780  0.3613  0.3393 -0.2205
 2754TIP3    H129677   2.031   1.493  12.719  0.8282 -1.1718 -0.2673
 2754TIP3    H229678   1.997   1.401  12.834  0.2005  2.0221  2.2635
 2755TIP3   OH229679   0.424   0.811  10.981 -0.1013  0.0112  0.1916
 2755TIP3    H129680   0.441   0.747  10.912  1.1900  0.7124 -0.1791
 2755TIP3    H229681   0.349   0.861  10.949 -0.7498 -0.9231  0.2160
 2756TIP3   OH229682   3.709   2.425  17.014  0.2040 -0.6808 -0.1434
 2756TIP3    H129683   3.764   2.481  17.069  1.1962 -1.0037 -0.7690
 2756TIP3    H229684   3.684   2.480  16.940 -0.7105 -0.3999  0.3557
 2757TIP3   OH229685   6.631   1.677   2.615  0.1567 -0.1059  0.0136
 2757TIP3    H129686   6.559   1.684   2.678  0.2282 -0.7525  0.1692
 2757TIP3    H229687   6.693   1.618   2.657  1.3297  1.3347  0.4131
 2758TIP3   OH229688   2.033   2.122  10.355 -0.5242 -0.4116  0.3391
 2758TIP3    H129689   2.010   2.038  10.395 -0.0442 -0.5609  0.3083
 2758TIP3    H229690   1.976   2.128  10.278 -1.3440 -0.1925  0.9592
 2759TIP3   OH229691   4.443   4.340  13.366  0.2751 -0.1518  0.4783
 2759TIP3    H129692   4.537   4.327  13.358  0.3258  0.5630 -0.1417
 2759TIP3    H229693   4.406   4.302  13.286  0.2275  1.3377 -0.2424
 2760TIP3   OH229694   0.100   6.473  14.959 -0.8789 -0.0885 -0.0802
 2760TIP3    H129695   0.038   6.508  14.896  0.4013  2.2917 -0.1398
 2760TIP3    H229696   0.065   6.498  15.044 -1.3673 -1.1623  0.0471
 2761TIP3   OH229697   5.348   5.792  11.053 -0.1297 -0.0146 -0.0314
 2761TIP3    H129698   5.286   5.801  11.125  0.3756 -2.0511  0.7276
 2761TIP3    H229699   5.339   5.701  11.024  1.4650  0.0495 -0.8578
 2762TIP3   OH229700   2.257   3.108  15.992 -0.3366  0.0282 -0.1399
 2762TIP3    H129701   2.340   3.143  15.962 -0.6067  0.9752  0.1882
 2762TIP3    H229702   2.243   3.029  15.939 -0.6914  1.5057 -2.3787
 2763TIP3   OH229703   4.985   2.384   5.026 -0.0205  0.0881  0.3461
 2763TIP3    H129704   5.011   2.470   5.059 -0.3937  1.0097 -1.6477
 2763TIP3    H229705   4.890   2.382   5.038 -0.2598  0.7339 -1.2795
 2764TIP3   OH229706   4.175   1.084  11.317 -0.7330 -0.0936 -0.3691
 2764TIP3    H129707   4.083   1.056  11.319 -0.9716  0.3659 -2.3309
 2764TIP3    H229708   4.182   1.136  11.237  1.3187 -0.4089 -0.4460
 2765TIP3   OH229709   1.343   5.522   2.841  0.2797  0.3636  0.3163
 2765TIP3    H129710   1.316   5.569   2.920 -1.8074 -0.5656  0.2262
 2765TIP3    H229711   1.352   5.431   2.869 -1.2619 -0.1203 -0.6321
 2766TIP3   OH229712   3.297   0.866  16.729 -0.0691  0.4217 -0.2338
 2766TIP3    H129713   3.214   0.902  16.700 -0.1772  0.4306  0.0850
 2766TIP3    H229714   3.273   0.786  16.777  0.0042  1.1687  1.0699
 2767TIP3   OH229715   4.484   5.629   2.688 -0.2430  0.4587  0.0205
 2767TIP3    H129716   4.421   5.586   2.630 -1.0967 -0.2905  1.4609
 2767TIP3    H229717   4.552   5.662   2.629 -0.7478 -0.8403 -1.3437
 2768TIP3   OH229718   2.462   4.844  16.909  0.1111  0.1539  0.5704
 2768TIP3    H129719   2.557   4.855  16.920  0.3358 -2.3357  1.6626
 2768TIP3    H229720   2.444   4.757  16.944 -2.2239 -0.4606 -1.8946
 2769TIP3   OH229721   6.694   2.932   5.468 -0.0326  0.4323 -0.3578
 2769TIP3    H129722   6.742   2.867   5.519 -0.3150  0.5432  0.0590
 2769TIP3    H229723   6.724   3.016   5.502 -0.4795  0.5023 -0.1288
 2770TIP3   OH229724   4.905   3.413  15.121  0.1752 -0.3382 -0.2545
 2770TIP3    H129725   4.960   3.441  15.048  0.2881 -0.4770 -0.2249
 2770TIP3    H229726   4.898   3.318  15.110  0.4282 -0.3962  0.0764
 2771TIP3   OH229727   5.850   1.841   4.994 -0.0589  0.2830 -0.0660
 2771TIP3    H129728   5.892   1.926   5.011 -0.5101  0.6368 -0.6699
 2771TIP3    H229729   5.766   1.864   4.956 -0.4029 -0.4419  0.2546
 2772TIP3   OH229730   5.549   0.221  16.137 -0.0102 -0.5209  0.1609
 2772TIP3    H129731   5.472   0.276  16.150 -1.2008 -1.5613 -2.0938
 2772TIP3    H229732   5.580   0.243  16.049  0.5025 -2.2110 -0.1124
 2773TIP3   OH229733   5.305   4.606  16.468 -0.0502 -0.2106 -0.2478
 2773TIP3    H129734   5.288   4.565  16.383 -1.3754  0.5787 -0.3949
 2773TIP3    H229735   5.231   4.664  16.481  1.7842  2.2598 -0.1220
 2774TIP3   OH229736   2.620   0.440   0.929 -0.0020  0.4767 -0.4116
 2774TIP3    H129737   2.690   0.377   0.944 -0.3403 -0.3814 -2.1859
 2774TIP3    H229738   2.553   0.417   0.994 -0.2387 -1.2357 -1.2056
 2775TIP3   OH229739   4.095   1.875   5.322  0.1243 -0.3059 -0.2283
 2775TIP3    H129740   4.067   1.892   5.412 -0.9583  1.1753 -0.7982
 2775TIP3    H229741   4.112   1.962   5.286  1.8726 -0.9493 -1.0742
 2776TIP3   OH229742   3.873   6.568  15.755 -0.4832  0.3913  0.1451
 2776TIP3    H129743   3.903   6.634  15.817 -1.3510 -0.7084  1.7973
 2776TIP3    H229744   3.800   6.524  15.799 -1.6151  0.0458 -1.9550
 2777TIP3   OH229745   6.152   3.985  15.567 -0.0286 -0.3618 -0.1854
 2777TIP3    H129746   6.077   4.029  15.607 -0.2445  0.1811 -1.1660
 2777TIP3    H229747   6.114   3.913  15.517  0.0257  0.2975 -1.2069
 2778TIP3   OH229748   5.194   6.380  14.791  0.2169  0.0321  0.0923
 2778TIP3    H129749   5.288   6.396  14.785  0.3713 -0.7508  0.3061
 2778TIP3    H229750   5.174   6.326  14.714 -0.3035  1.2658 -0.6589
 2779TIP3   OH229751   5.298   3.025  11.990  0.0698 -0.3628  0.3372
 2779TIP3    H129752   5.265   2.944  11.950  0.6679 -1.1781  1.4537
 2779TIP3    H229753   5.365   3.056  11.929  0.5051 -1.2248  0.3662
 2780TIP3   OH229754   2.027   3.835   0.176 -0.0759  0.7891 -0.7124
 2780TIP3    H129755   2.013   3.923   0.142 -1.2106  0.0377 -2.3365
 2780TIP3    H229756   1.980   3.778   0.115  0.6600 -0.9514  0.2646
 2781TIP3   OH229757   4.104   1.602   0.028 -0.2248  0.4735 -0.4522
 2781TIP3    H129758   4.067   1.563   0.107 -0.4538  1.4410 -0.0632
 2781TIP3    H229759   4.036   1.591  -0.039  0.6694 -1.9534 -1.0341
 2782TIP3   OH229760   1.848   3.857  11.029  0.5644 -0.0826  0.8327
 2782TIP3    H129761   1.935   3.896  11.025  0.0226  1.1558  0.8215
 2782TIP3    H229762   1.854   3.781  10.970  1.0148  1.2911 -0.9996
 2783TIP3   OH229763   1.527   4.542  11.734 -0.5398  0.4345 -0.2014
 2783TIP3    H129764   1.445   4.498  11.757 -0.5885  1.1529  1.1044
 2783TIP3    H229765   1.526   4.623  11.784  1.7457 -0.3202  1.2635
 2784TIP3   OH229766   1.795   1.384   5.564  0.3606  0.0179  0.8160
 2784TIP3    H129767   1.859   1.352   5.627  2.0742  1.1835 -0.2416
 2784TIP3    H229768   1.713   1.341   5.588  0.9441  0.3985  3.7801
 2785TIP3   OH229769   5.885   5.098  17.088 -1.2368  0.5213 -0.2982
 2785TIP3    H129770   5.884   5.191  17.111 -0.2141  0.9055 -1.6940
 2785TIP3    H229771   5.896   5.097  16.993  0.1525 -1.0253 -0.1685
 2786TIP3   OH229772   2.451   1.577   4.080 -0.3689 -0.0805 -0.4536
 2786TIP3    H129773   2.494   1.516   4.020 -1.2302 -0.0153 -1.1439
 2786TIP3    H229774   2.465   1.539   4.167  0.8335 -0.2040 -0.6820
 2787TIP3   OH229775   0.910   4.974   5.272 -0.0302  0.0634 -0.1232
 2787TIP3    H129776   0.964   5.045   5.304 -2.2832  1.6783  0.3295
 2787TIP3    H229777   0.857   4.948   5.347 -1.2704 -0.0837 -1.0108
 2788TIP3   OH229778   6.648   0.677  16.982  0.0619 -0.0900 -0.3660
 2788TIP3    H129779   6.631   0.657  17.074  1.3350 -1.2540 -0.3554
 2788TIP3    H229780   6.735   0.641  16.965 -0.7522 -1.2434 -2.4242
 2789TIP3   OH229781   4.930   2.412  14.605 -0.5414 -0.6214 -0.5006
 2789TIP3    H129782   4.953   2.504  14.618 -2.2973 -0.2316  0.1597
 2789TIP3    H229783   4.835   2.411  14.601 -0.5105 -2.2393 -2.0745
 2790TIP3   OH229784   5.132   4.171  15.364 -0.0822  0.0873  0.3581
 2790TIP3    H129785   5.136   4.122  15.447 -1.3558 -1.8377 -0.6325
 2790TIP3    H229786   5.039   4.189  15.352  0.1769  1.0369 -0.2906
 2791TIP3   OH229787   1.594   1.721   1.518 -0.2751  0.0918 -0.0730
 2791TIP3    H129788   1.618   1.810   1.492  1.2175 -0.8156 -2.0703
 2791TIP3    H229789   1.499   1.717   1.505 -0.4536  1.5465  0.6226
 2792TIP3   OH229790   0.910   1.883   5.521  0.2337 -0.1003 -0.4776
 2792TIP3    H129791   0.988   1.915   5.475  0.1690 -0.2514 -0.6954
 2792TIP3    H229792   0.837   1.926   5.476  0.2110  0.2891 -0.0675
 2793TIP3   OH229793   4.882   2.211  16.806 -0.8066 -0.1357 -0.4988
 2793TIP3    H129794   4.953   2.241  16.749 -0.6805 -1.1961 -0.9236
 2793TIP3    H229795   4.874   2.280  16.872  0.9640 -0.2125 -0.1443
 2794TIP3   OH229796   0.010   2.472   5.843 -0.1293 -0.1390  0.4937
 2794TIP3    H129797   0.035   2.535   5.775  0.4545 -0.4241  0.4390
 2794TIP3    H229798  -0.086   2.471   5.840 -0.1352  0.5676  0.3351
 2795TIP3   OH229799   3.364   3.567   6.495 -0.3286  0.0345 -0.2319
 2795TIP3    H129800   3.385   3.474   6.489 -2.0505 -0.4894  0.8693
 2795TIP3    H229801   3.269   3.571   6.479 -0.7855  1.2292  2.2478
 2796TIP3   OH229802   1.214   2.718  15.048 -0.2952  0.1231  0.5478
 2796TIP3    H129803   1.124   2.686  15.040  0.5119 -2.5174  0.9305
 2796TIP3    H229804   1.255   2.697  14.964  0.3397 -0.0176  0.8861
 2797TIP3   OH229805   6.063   3.491  11.286  0.3570 -0.0927  0.9790
 2797TIP3    H129806   5.977   3.487  11.327  0.0660  0.5928  0.4487
 2797TIP3    H229807   6.123   3.510  11.359  0.0542 -0.4599  1.3303
 2798TIP3   OH229808   2.955   4.822  15.741  0.0238  0.0190 -0.2740
 2798TIP3    H129809   3.036   4.820  15.793 -0.1953 -0.5796  0.0530
 2798TIP3    H229810   2.928   4.730  15.736  0.4215 -0.0336 -2.0685
 2799TIP3   OH229811   5.510   2.192   2.636 -0.4150 -0.0200  0.1339
 2799TIP3    H129812   5.506   2.110   2.587 -1.7836  0.3328 -0.3905
 2799TIP3    H229813   5.604   2.210   2.644  0.0290 -2.5816  1.9355
 2800TIP3   OH229814   6.316   4.564  12.002 -0.4879  0.0980 -0.1438
 2800TIP3    H129815   6.291   4.492  12.059  0.3265  0.9880  1.4065
 2800TIP3    H229816   6.264   4.638  12.032 -0.0166  0.5896 -0.5243
 2801TIP3   OH229817   6.092   1.922  13.127 -0.0180 -0.0312  0.1525
 2801TIP3    H129818   6.072   1.936  13.219  0.8570 -0.3376  0.4000
 2801TIP3    H229819   6.162   1.856  13.127 -1.5585 -1.7435 -0.8292
 2802TIP3   OH229820   0.032   5.111   2.321 -0.1354  0.4577 -0.2362
 2802TIP3    H129821   0.008   5.077   2.407 -1.1780 -0.0848 -0.7310
 2802TIP3    H229822   0.087   5.043   2.283 -0.4799  0.2653 -0.3885
 2803TIP3   OH229823   0.711   6.240  15.263 -0.3841 -0.5425 -0.1639
 2803TIP3    H129824   0.752   6.218  15.179  1.9465 -0.4590  0.8568
 2803TIP3    H229825   0.675   6.158  15.295  0.2385 -0.9495 -0.4875
 2804TIP3   OH229826   5.963   6.466  14.943 -0.2530  0.2758  0.4519
 2804TIP3    H129827   5.987   6.375  14.964 -0.6143 -0.0346 -0.4339
 2804TIP3    H229828   5.891   6.486  15.003 -0.9311 -0.4214 -0.1085
 2805TIP3   OH229829   2.270   5.979  15.082  0.2874 -0.4498 -0.4708
 2805TIP3    H129830   2.196   6.002  15.025 -0.1841 -0.5227  0.1102
 2805TIP3    H229831   2.310   6.062  15.104 -1.0577 -0.1689  1.1388
 2806TIP3   OH229832   4.725   4.191  17.228 -0.4613 -0.7353  0.3798
 2806TIP3    H129833   4.814   4.214  17.253  0.3236 -1.5717 -1.5232
 2806TIP3    H229834   4.685   4.274  17.202  0.3793 -0.6319 -0.5919
 2807TIP3   OH229835   1.441   4.825  12.430 -0.4489  0.1401 -0.5342
 2807TIP3    H129836   1.469   4.892  12.367  2.5082 -1.0123 -0.6274
 2807TIP3    H229837   1.390   4.763  12.379  0.1665  0.2931 -1.3594
 2808TIP3   OH229838   2.607   1.571  16.009 -0.0313  0.2810 -0.1874
 2808TIP3    H129839   2.545   1.644  16.008 -1.0551 -0.5089  1.3025
 2808TIP3    H229840   2.593   1.527  15.925  0.1138  1.3900 -0.8092
 2809TIP3   OH229841   1.681   5.612  16.685  0.0147 -0.4913  0.1702
 2809TIP3    H129842   1.629   5.564  16.620 -0.2473  1.3553 -1.0408
 2809TIP3    H229843   1.741   5.665  16.633  1.1379 -0.4140  1.5081
 2810TIP3   OH229844   6.311   4.737   5.180 -0.8224 -0.0375  0.7569
 2810TIP3    H129845   6.364   4.794   5.235 -0.0155 -0.5568  0.5324
 2810TIP3    H229846   6.316   4.652   5.222 -4.3465  0.5444  2.7340
 2811TIP3   OH229847   5.243   3.687   5.188 -0.1698 -0.4675  0.5827
 2811TIP3    H129848   5.213   3.627   5.119 -0.8921  0.4704  0.0668
 2811TIP3    H229849   5.272   3.629   5.259 -1.2891 -1.4209  0.2879
 2812TIP3   OH229850   4.013   3.519   3.064  0.4664 -0.6815  0.2079
 2812TIP3    H129851   4.034   3.460   3.136  1.1866  0.5339  1.0320
 2812TIP3    H229852   4.021   3.607   3.101 -0.7536 -0.0472 -0.9279
 2813TIP3   OH229853   0.219   6.005   3.120  0.5671  0.5054  0.0852
 2813TIP3    H129854   0.277   5.946   3.169  0.6357  0.3158 -0.2196
 2813TIP3    H229855   0.241   5.989   3.028 -0.0280  0.3782 -0.0356
 2814TIP3   OH229856   1.098   1.422   4.680  0.9200  0.3740  0.2810
 2814TIP3    H129857   1.178   1.459   4.642  0.5413  1.8641  0.8440
 2814TIP3    H229858   1.124   1.395   4.768  0.6296  1.7558  0.8269
 2815TIP3   OH229859   2.128   1.955   0.092 -0.2094  0.3267 -0.3826
 2815TIP3    H129860   2.115   2.022   0.160 -2.2272 -0.6766  0.2934
 2815TIP3    H229861   2.168   2.003   0.019 -2.1941  2.4683 -0.1923
 2816TIP3   OH229862   1.684   6.396   5.254  0.2909  0.0083 -0.0695
 2816TIP3    H129863   1.736   6.468   5.290 -0.6672  0.2522  0.8734
 2816TIP3    H229864   1.626   6.438   5.191  0.2227 -0.0363 -0.0368
 2817TIP3   OH229865   1.266   3.956  15.475  0.1495  0.3886  0.0672
 2817TIP3    H129866   1.360   3.938  15.472 -0.0223 -0.4137 -2.2650
 2817TIP3    H229867   1.237   3.914  15.556  1.1126 -3.3279 -1.3192
 2818TIP3   OH229868   3.465   6.678   1.237 -0.1777  0.1855 -0.1118
 2818TIP3    H129869   3.421   6.656   1.154 -3.0235  0.4686  1.1870
 2818TIP3    H229870   3.539   6.618   1.241 -0.4920 -0.4776 -2.4133
 2819TIP3   OH229871   0.475   6.090  17.244  0.5521  0.1286 -0.5407
 2819TIP3    H129872   0.482   6.044  17.328 -0.5831  0.3409 -0.3056
 2819TIP3    H229873   0.474   6.182  17.267 -2.6605  0.1932 -0.4364
 2820TIP3   OH229874   2.370   2.915  16.545  0.0146  0.4654 -0.2414
 2820TIP3    H129875   2.432   2.845  16.525  0.3237  0.8096 -0.5133
 2820TIP3    H229876   2.325   2.930  16.462 -0.8815 -0.2088  0.1058
 2821TIP3   OH229877   6.646   0.177   4.715 -0.1267  0.0894  0.3203
 2821TIP3    H129878   6.559   0.198   4.749  0.3552  1.4013  0.8255
 2821TIP3    H229879   6.632   0.164   4.621 -1.5456 -3.9767  0.9174
 2822TIP3   OH229880   4.955   5.023   5.421  0.3332 -0.4480 -0.0580
 2822TIP3    H129881   4.955   4.927   5.417  0.4824 -0.4267 -0.6080
 2822TIP3    H229882   5.047   5.047   5.416  0.5059 -0.3404  2.2377
 2823TIP3   OH229883   2.182   6.058   6.367 -0.1726  0.1196 -0.0894
 2823TIP3    H129884   2.250   5.991   6.364 -0.2531  0.0253  0.1939
 2823TIP3    H229885   2.189   6.103   6.283 -1.0574 -1.1685 -0.8952
 2824TIP3   OH229886   3.996   5.575   2.145  0.0430  0.1642 -0.2804
 2824TIP3    H129887   4.083   5.564   2.185 -0.1490  0.8486  0.3432
 2824TIP3    H229888   3.952   5.492   2.163  1.4618 -1.3405 -3.0023
 2825TIP3   OH229889   3.627   0.510   3.066 -0.7261  0.1648 -0.4328
 2825TIP3    H129890   3.542   0.476   3.037 -0.9030 -0.4770  0.7849
 2825TIP3    H229891   3.659   0.446   3.129 -0.4773  1.6177  0.9891
 2826TIP3   OH229892   5.677   5.937  16.830 -0.3682 -0.5454  0.1234
 2826TIP3    H129893   5.705   5.954  16.740 -0.0711 -0.2934  0.2599
 2826TIP3    H229894   5.618   6.010  16.850  0.5236  0.0883  0.5408
 2827TIP3   OH229895   3.761   0.559   2.757  0.4962  0.3899  0.2453
 2827TIP3    H129896   3.760   0.505   2.836 -0.1370  0.7461  0.4852
 2827TIP3    H229897   3.845   0.538   2.715  0.3126 -0.6865  0.3888
 2828TIP3   OH229898   5.463   5.623  14.327 -0.0037 -0.6656  0.0348
 2828TIP3    H129899   5.475   5.615  14.422 -0.3597 -0.4704  0.0954
 2828TIP3    H229900   5.553   5.625  14.292  0.1255 -1.1573  0.3297
 2829TIP3   OH229901   0.413   3.650   3.072  0.0657 -0.2759  0.0066
 2829TIP3    H129902   0.410   3.601   3.154 -1.2878 -0.2236  0.0027
 2829TIP3    H229903   0.404   3.741   3.098 -0.3874 -0.2605 -0.2011
 2830TIP3   OH229904   1.011   6.031  14.255  0.1390  0.3414 -0.1109
 2830TIP3    H129905   0.973   6.095  14.195  2.9946  1.5834 -0.7738
 2830TIP3    H229906   1.010   6.074  14.341  1.4118  1.0598 -0.4275
 2831TIP3   OH229907   4.221   5.597   0.344 -0.3066  0.2788 -0.0077
 2831TIP3    H129908   4.261   5.650   0.275  1.3716 -0.0244  0.6838
 2831TIP3    H229909   4.223   5.653   0.421 -0.1980 -0.1455  0.2992
 2832TIP3   OH229910   5.950   0.461   3.496  0.3831  0.0922 -0.7334
 2832TIP3    H129911   5.899   0.542   3.504  0.9245  0.3617  0.1544
 2832TIP3    H229912   5.885   0.391   3.501 -0.0156  0.4576 -0.7354
 2833TIP3   OH229913   4.868   0.425  14.714 -0.3705 -0.1514  0.3699
 2833TIP3    H129914   4.859   0.487  14.787  0.5800 -1.6004  1.8169
 2833TIP3    H229915   4.779   0.415  14.680 -0.3770  3.0415 -0.9262
 2834TIP3   OH229916   4.430   6.661  14.332 -0.0854 -0.3558 -0.3894
 2834TIP3    H129917   4.453   6.720  14.260  0.1034  0.1128  0.0426
 2834TIP3    H229918   4.428   6.718  14.409 -1.6283 -0.5758 -0.2313
 2835TIP3   OH229919   2.861   0.367   0.483 -0.0190 -0.6173  0.4729
 2835TIP3    H129920   2.774   0.328   0.493 -0.4281  0.1466 -0.0549
 2835TIP3    H229921   2.921   0.296   0.507 -0.6782 -2.1699 -2.0005
 2836TIP3   OH229922   0.272   0.314   3.538 -0.0994 -0.4012  0.4322
 2836TIP3    H129923   0.364   0.339   3.553 -0.0074 -0.3555 -0.2153
 2836TIP3    H229924   0.243   0.281   3.623 -0.2279  1.9035  1.3594
 2837TIP3   OH229925   0.633   0.720  13.248  0.0321 -0.3480 -0.3210
 2837TIP3    H129926   0.659   0.657  13.181  1.3540  2.2087 -2.4512
 2837TIP3    H229927   0.716   0.749  13.287 -0.5660 -0.1821  0.8813
 2838TIP3   OH229928   5.707   2.278   3.874 -0.6079 -0.1357  0.5747
 2838TIP3    H129929   5.684   2.272   3.966 -1.7526 -0.3224  0.2977
 2838TIP3    H229930   5.784   2.335   3.871 -1.5883  1.2749  1.4922
 2839TIP3   OH229931   1.809   1.303  13.761  0.3736  0.4030 -0.3020
 2839TIP3    H129932   1.792   1.209  13.770 -0.3028  0.6794  2.0565
 2839TIP3    H229933   1.725   1.340  13.735 -0.4663  0.7023  2.4449
 2840TIP3   OH229934   5.709   5.661  14.273 -0.2581 -0.0503 -0.1743
 2840TIP3    H129935   5.791   5.612  14.261 -0.0864 -0.0253  0.8611
 2840TIP3    H229936   5.727   5.747  14.234  0.0106 -0.2307 -0.4579
 2841TIP3   OH229937   6.334   5.584  12.672 -0.1473  0.0132 -0.4386
 2841TIP3    H129938   6.245   5.587  12.706  0.3590  1.4928  0.9075
 2841TIP3    H229939   6.328   5.620  12.584 -0.9827 -0.5407 -0.6087
 2842TIP3   OH229940   0.117   6.284   3.257  0.2472  0.1302 -0.8530
 2842TIP3    H129941   0.161   6.203   3.232  1.0748  0.6191 -1.0130
 2842TIP3    H229942   0.113   6.336   3.176  0.5289  0.6114 -0.5663
 2843TIP3   OH229943   3.756   6.714  16.675 -0.3469  0.1159 -0.4283
 2843TIP3    H129944   3.823   6.735  16.610  0.1624 -2.7287 -0.9818
 2843TIP3    H229945   3.804   6.674  16.747 -1.3076 -0.7792 -0.2655
 2844TIP3   OH229946   4.874   1.725   1.540 -0.6558  0.2264 -0.2995
 2844TIP3    H129947   4.786   1.745   1.571 -0.3211  1.7247 -0.2451
 2844TIP3    H229948   4.922   1.700   1.619 -1.2679 -1.6381 -0.4690
 2845TIP3   OH229949   0.099   5.141   4.363  0.7050 -0.1542  0.0187
 2845TIP3    H129950   0.017   5.091   4.362  0.8230 -0.3437 -0.1759
 2845TIP3    H229951   0.161   5.084   4.408  0.0695  1.0392  2.6202
 2846TIP3   OH229952   0.802   2.241   5.795 -0.6403  0.3161  0.0789
 2846TIP3    H129953   0.846   2.312   5.843 -0.0981 -0.4016  0.6667
 2846TIP3    H229954   0.870   2.175   5.782 -1.6145 -0.9974  1.3357
 2847TIP3   OH229955   5.009   5.752  14.995  0.2739 -0.4078  0.5083
 2847TIP3    H129956   4.999   5.813  14.922 -0.1336 -0.0382  0.8730
 2847TIP3    H229957   4.948   5.681  14.974  2.3887 -1.8761 -1.1023
 2848TIP3   OH229958   2.451   5.424   3.286 -0.3629 -0.1694  0.1550
 2848TIP3    H129959   2.531   5.400   3.332  0.0328 -0.4643 -0.6770
 2848TIP3    H229960   2.464   5.516   3.262 -0.5116 -0.0557  0.4988
 2849TIP3   OH229961   6.029   4.195   1.239  0.1169  0.2018 -0.1196
 2849TIP3    H129962   5.974   4.207   1.317  0.7314  0.2542  0.3196
 2849TIP3    H229963   6.049   4.101   1.238 -1.9705 -0.2831 -1.6741
 2850TIP3   OH229964   2.521   5.985   5.497 -0.1657 -0.1435  0.0466
 2850TIP3    H129965   2.507   5.891   5.507 -0.4236 -0.2232 -0.9607
 2850TIP3    H229966   2.560   5.994   5.410  0.1784  0.6541  0.2768
 2851TIP3   OH229967   1.313   5.908  11.982 -0.7495 -0.3977 -0.2141
 2851TIP3    H129968   1.267   5.933  12.062  0.0736  1.1858 -0.1926
 2851TIP3    H229969   1.332   5.815  11.994 -0.1454 -0.0780  1.7050
 2852TIP3   OH229970   1.190   4.097  15.868  0.3551 -0.3215  0.4135
 2852TIP3    H129971   1.239   4.180  15.865 -0.2742  0.0592  0.3885
 2852TIP3    H229972   1.164   4.088  15.960 -1.0969  0.4326  0.1037
 2853TIP3   OH229973   4.456   4.804  13.224 -0.3044 -0.2376  0.6159
 2853TIP3    H129974   4.488   4.835  13.309 -0.3532 -0.2149  0.6263
 2853TIP3    H229975   4.532   4.808  13.166 -0.1445 -0.7436  0.7907
 2854TIP3   OH229976   3.855   3.572   5.407 -0.3412  0.1889  0.3444
 2854TIP3    H129977   3.878   3.480   5.395  0.1142  0.2319  0.8010
 2854TIP3    H229978   3.865   3.587   5.502  1.2724  1.1240  0.0808
 2855TIP3   OH229979   0.971   0.088  17.115  0.2779  0.0704 -0.4395
 2855TIP3    H129980   1.047   0.109  17.062  0.7937  0.0059  0.2596
 2855TIP3    H229981   0.989   0.128  17.200 -0.4073 -0.0648 -0.2236
 2856TIP3   OH229982   3.034   3.924   6.850 -0.1417  0.0340 -0.0939
 2856TIP3    H129983   3.065   4.006   6.810 -2.0223  0.2989 -1.1431
 2856TIP3    H229984   2.966   3.953   6.912  0.1503 -0.6459  0.5470
 2857TIP3   OH229985   4.752   6.073   5.619 -0.1002 -0.5321  0.2013
 2857TIP3    H129986   4.765   5.996   5.563  0.0393 -0.1614 -0.2841
 2857TIP3    H229987   4.717   6.140   5.561  2.1286  0.5837  0.0025
 2858TIP3   OH229988   3.408   3.082   5.245  0.3804 -0.3313 -0.1876
 2858TIP3    H129989   3.459   3.143   5.297  0.8546 -0.4342 -0.5218
 2858TIP3    H229990   3.364   3.136   5.180  0.2569 -0.2702 -0.0536
 2859TIP3   OH229991   4.806   4.507   2.807 -0.9227 -0.4188  0.0924
 2859TIP3    H129992   4.768   4.419   2.816  0.0845 -0.7907  0.9029
 2859TIP3    H229993   4.895   4.492   2.777 -0.4008  0.2547  1.2415
 2860TIP3   OH229994   6.257   2.805  13.624 -0.1257  0.4218 -0.4081
 2860TIP3    H129995   6.351   2.826  13.620  0.3252 -0.5595  2.5288
 2860TIP3    H229996   6.216   2.882  13.662 -0.4442  0.5758 -1.0367
 2861TIP3   OH229997   6.538   1.754  12.369 -0.2806 -0.1193  1.0999
 2861TIP3    H129998   6.477   1.811  12.323 -0.5889 -1.4414 -0.1801
 2861TIP3    H229999   6.495   1.736  12.453 -1.7341 -1.1405  0.1723
 2862TIP3   OH230000   4.840   3.881  15.622 -0.0842 -0.4783 -0.1058
 2862TIP3    H130001   4.866   3.956  15.569  0.9477  0.1010  1.1765
 2862TIP3    H230002   4.903   3.879  15.694 -0.7441 -1.9383  0.4767
 2863TIP3   OH230003   6.276   3.846  14.398 -0.3049 -0.0695  0.3146
 2863TIP3    H130004   6.369   3.868  14.405 -0.9535  2.4679  3.2359
 2863TIP3    H230005   6.243   3.904  14.329 -0.4457  2.6236  2.4529
 2864TIP3   OH230006   3.281   6.629  13.079 -0.2385  0.8586 -0.4853
 2864TIP3    H130007   3.212   6.567  13.055 -0.9076  0.8220  1.3510
 2864TIP3    H230008   3.289   6.688  13.004 -1.5306  0.2265 -1.1424
 2865TIP3   OH230009   4.006   0.602  13.171 -0.4055  0.5365  0.0798
 2865TIP3    H130010   3.962   0.666  13.116  0.0533 -1.4647 -2.8572
 2865TIP3    H230011   3.936   0.543  13.200 -0.6006  1.4140  1.4901
 2866TIP3   OH230012   1.192   1.664   2.903 -0.5265 -0.1918 -0.2837
 2866TIP3    H130013   1.232   1.737   2.856  1.1818 -1.7648 -1.4301
 2866TIP3    H230014   1.099   1.668   2.879 -0.4049  1.3423 -0.6177
 2867TIP3   OH230015   1.508   2.416  10.827  0.0556  0.3714 -0.7818
 2867TIP3    H130016   1.549   2.459  10.751  0.5469  1.9800  0.3399
 2867TIP3    H230017   1.575   2.355  10.858  0.1216  0.2061 -1.2388
 2868TIP3   OH230018   5.570   3.700   0.015 -0.4434  0.0430 -0.2600
 2868TIP3    H130019   5.537   3.683  -0.074 -0.9881  0.6228 -0.1695
 2868TIP3    H230020   5.496   3.682   0.072 -0.0945 -0.3176  0.0907
 2869TIP3   OH230021   5.614   1.910   4.850  0.6217  0.2320 -0.4045
 2869TIP3    H130022   5.521   1.884   4.844  0.7705 -0.4094 -0.0732
 2869TIP3    H230023   5.650   1.886   4.765  0.0931  2.1652 -1.2152
 2870TIP3   OH230024   4.016   4.786  14.379  0.2559 -0.2044  0.1169
 2870TIP3    H130025   3.936   4.735  14.365  0.0322 -0.0473  0.8160
 2870TIP3    H230026   4.028   4.834  14.296 -1.3471  1.1196  0.5808
 2871TIP3   OH230027   1.114   6.209  12.194 -0.0332  0.2193 -0.1142
 2871TIP3    H130028   1.041   6.245  12.143  1.2191 -1.1108 -3.1033
 2871TIP3    H230029   1.110   6.115  12.179  2.0599  0.0699 -0.1001
 2872TIP3   OH230030   6.483   3.289   0.857  0.1363 -0.1109  0.0297
 2872TIP3    H130031   6.403   3.255   0.818 -0.1393  0.0054  0.4800
 2872TIP3    H230032   6.526   3.338   0.787  0.3970 -1.1376 -0.5467
 2873TIP3   OH230033   2.315   2.723  13.683  0.1033 -0.5876 -0.2886
 2873TIP3    H130034   2.233   2.735  13.732 -0.0794  3.4502 -1.2334
 2873TIP3    H230035   2.324   2.628  13.676 -4.1093 -1.2856  0.4948
 2874TIP3   OH230036   6.509   3.699  10.452 -0.2852  0.0753 -0.0698
 2874TIP3    H130037   6.432   3.736  10.494  0.1183  0.5615  0.2549
 2874TIP3    H230038   6.562   3.775  10.427  0.2933 -0.2584  0.1143
 2875TIP3   OH230039   2.840   2.378  15.672 -0.3767  0.0241  0.4047
 2875TIP3    H130040   2.786   2.446  15.712  0.5975  0.1618  1.5551
 2875TIP3    H230041   2.921   2.379  15.724 -0.6927 -2.6485  1.0677
 2876TIP3   OH230042   4.919   1.296  12.431 -0.7979 -0.3171 -0.6732
 2876TIP3    H130043   4.853   1.249  12.483 -0.1451 -1.4391 -0.8199
 2876TIP3    H230044   4.966   1.350  12.494 -0.3793 -1.2446 -0.1713
 2877TIP3   OH230045   6.178   4.348   1.029  0.3872  0.3026  0.4256
 2877TIP3    H130046   6.122   4.292   1.083  2.9435 -1.2953  1.5833
 2877TIP3    H230047   6.135   4.433   1.032 -2.6740 -1.0894  0.1089
 2878TIP3   OH230048   6.126   5.392   0.824  0.0859 -0.1289  0.1783
 2878TIP3    H130049   6.172   5.409   0.906  0.2115  0.8683 -0.0891
 2878TIP3    H230050   6.179   5.435   0.757  0.0006 -0.9586 -0.4429
 2879TIP3   OH230051   5.451   1.124   4.343  0.3603 -0.2992  0.4244
 2879TIP3    H130052   5.361   1.105   4.368 -0.4273  1.6918 -0.6446
 2879TIP3    H230053   5.468   1.211   4.379  0.5272  0.9619 -2.4327
 2880TIP3   OH230054   1.176   6.124  10.611 -0.8912 -0.1164  0.2214
 2880TIP3    H130055   1.167   6.176  10.691 -1.4832  1.9958 -1.1506
 2880TIP3    H230056   1.228   6.048  10.638  0.4388  1.3982  2.2255
 2881TIP3   OH230057   4.683   4.515  15.700 -0.2381 -0.4147  0.1505
 2881TIP3    H130058   4.720   4.588  15.748  1.0108 -0.8669 -0.0832
 2881TIP3    H230059   4.599   4.548  15.667 -1.0321 -0.0234  2.3914
 2882TIP3   OH230060   3.860   4.333   4.751  0.1891 -0.5996 -0.0334
 2882TIP3    H130061   3.890   4.422   4.734 -0.8257 -0.3500 -0.5813
 2882TIP3    H230062   3.774   4.344   4.792 -0.1503 -1.3360 -0.5319
 2883TIP3   OH230063   3.303   1.519   4.456  0.1992 -0.3726 -0.1072
 2883TIP3    H130064   3.387   1.473   4.466  0.0608 -0.7576 -0.6287
 2883TIP3    H230065   3.320   1.585   4.389  0.2365 -0.0753  0.1988
 2884TIP3   OH230066   6.046   2.524  14.892 -0.0840 -0.9824  0.5618
 2884TIP3    H130067   6.002   2.502  14.974  0.0352 -0.0662  0.8828
 2884TIP3    H230068   6.128   2.565  14.919 -0.6813  0.6451  0.0404
 2885TIP3   OH230069   4.631   4.491   4.144  0.5515 -0.1236  0.6426
 2885TIP3    H130070   4.605   4.432   4.073  0.6687  1.3957 -0.7296
 2885TIP3    H230071   4.705   4.448   4.185  1.7606 -0.1869 -1.4551
 2886TIP3   OH230072   6.466   4.541  13.822  0.2051  0.1630  0.2401
 2886TIP3    H130073   6.493   4.488  13.747 -0.5776  0.7057 -0.4415
 2886TIP3    H230074   6.389   4.495  13.856  0.4793 -0.0079  0.6449
 2887TIP3   OH230075   2.111   2.895   1.094 -0.2526  0.1094 -0.1147
 2887TIP3    H130076   2.201   2.922   1.112  0.5567 -3.1360  1.4514
 2887TIP3    H230077   2.116   2.853   1.008 -0.0992 -0.5840  0.2231
 2888TIP3   OH230078   3.513   1.420  13.443 -0.3559 -0.0776  0.0050
 2888TIP3    H130079   3.443   1.454  13.387 -0.1039  1.0659  0.3499
 2888TIP3    H230080   3.518   1.483  13.514  0.7391 -0.3863  0.2065
 2889TIP3   OH230081   2.908   2.400  16.228  0.4321 -0.4667  0.5872
 2889TIP3    H130082   2.968   2.455  16.178 -0.9861  2.1681  1.5546
 2889TIP3    H230083   2.932   2.310  16.205  3.2980  0.5003 -0.6321
 2890TIP3   OH230084   2.444   0.253  12.905 -0.5803 -0.2587  0.0634
 2890TIP3    H130085   2.494   0.207  12.837  0.0321  0.9847 -0.3700
 2890TIP3    H230086   2.509   0.274  12.972 -0.8538 -0.0823  0.2729
 2891TIP3   OH230087   3.245   4.024  14.522  0.0475  0.1636  0.3483
 2891TIP3    H130088   3.306   4.097  14.516 -0.4564  0.5381 -0.4364
 2891TIP3    H230089   3.237   3.991  14.432  0.9907 -1.4818  0.8404
 2892TIP3   OH230090   2.049   5.110  15.018 -0.2146 -0.1038  0.2576
 2892TIP3    H130091   1.992   5.101  15.094  0.1362  0.3513  0.5807
 2892TIP3    H230092   2.136   5.086  15.050  0.2010  1.4577  0.3912
 2893TIP3   OH230093   6.311   3.192  15.291 -0.0500  0.8299  0.0553
 2893TIP3    H130094   6.400   3.184  15.324  0.9742  1.5527 -2.3384
 2893TIP3    H230095   6.298   3.287  15.279 -0.1247  0.6115 -2.0250
 2894TIP3   OH230096   0.222   1.568   1.939 -0.2809 -0.0265  0.1570
 2894TIP3    H130097   0.246   1.603   2.025  1.3986  0.3538 -0.4399
 2894TIP3    H230098   0.254   1.478   1.940 -1.7351 -0.5784  0.4987
 2895TIP3   OH230099   3.929   4.495  15.172 -0.6022  0.1753 -0.1966
 2895TIP3    H130100   3.999   4.437  15.142 -0.1071  1.3549 -1.4498
 2895TIP3    H230101   3.950   4.512  15.264 -0.9342 -1.8228  0.2970
 2896TIP3   OH230102   0.233   0.236  14.432  0.4499 -0.5228  0.7875
 2896TIP3    H130103   0.247   0.161  14.490  0.8940 -1.0095  0.0648
 2896TIP3    H230104   0.311   0.239  14.378 -0.2564 -0.4911 -0.2470
 2897TIP3   OH230105   3.766   1.183   2.310  0.6225  0.0195 -0.3156
 2897TIP3    H130106   3.846   1.208   2.262 -0.9744  1.7785 -2.2760
 2897TIP3    H230107   3.724   1.118   2.253 -0.3565  0.6662 -0.3425
 2898TIP3   OH230108   3.176   3.844   0.002 -0.0123 -0.7113 -0.8686
 2898TIP3    H130109   3.256   3.893  -0.016  0.3445 -0.5091  1.0322
 2898TIP3    H230110   3.108   3.891  -0.046  0.7231  0.1886 -1.0534
 2899TIP3   OH230111   1.294   6.412   3.692  0.9718 -0.1473 -0.3005
 2899TIP3    H130112   1.337   6.353   3.754  2.3167  0.1116 -0.9384
 2899TIP3    H230113   1.293   6.497   3.736 -0.3602 -0.4816  0.3510
 2900TIP3   OH230114   2.569   1.873   2.750 -0.6020 -0.1150  0.3023
 2900TIP3    H130115   2.603   1.820   2.822  1.3247  0.8777  0.1754
 2900TIP3    H230116   2.476   1.883   2.770 -0.7542 -2.4416  0.9873
 2901TIP3   OH230117   0.871   0.984  16.507  0.4758 -0.3163  0.1248
 2901TIP3    H130118   0.832   0.925  16.443  1.2843 -2.0390  1.1085
 2901TIP3    H230119   0.800   1.006  16.567 -0.0299  0.4116 -0.7380
 2902TIP3   OH230120   1.180   6.780   5.859 -0.1062 -0.2625 -0.2660
 2902TIP3    H130121   1.160   6.872   5.877  0.7809 -0.1583  0.2987
 2902TIP3    H230122   1.127   6.731   5.921  0.8023 -0.0270  0.7357
 2903TIP3   OH230123   4.756   5.809   4.269  0.1086  0.1905 -0.0096
 2903TIP3    H130124   4.796   5.731   4.308 -1.0697 -0.2752  0.2892
 2903TIP3    H230125   4.769   5.878   4.335 -0.3679 -0.1787  0.4791
 2904TIP3   OH230126   5.381   4.199  16.894 -0.1729  0.5227 -0.1027
 2904TIP3    H130127   5.368   4.118  16.844 -0.1018  1.1110 -1.0994
 2904TIP3    H230128   5.293   4.234  16.907 -0.1483  0.6677 -0.3249
 2905TIP3   OH230129   0.546   6.526  14.168 -0.3250  0.0618 -0.0108
 2905TIP3    H130130   0.559   6.560  14.257 -0.2676 -1.5070  0.6165
 2905TIP3    H230131   0.493   6.593  14.125  0.4517  1.3087  0.8925
 2906TIP3   OH230132   2.545   2.195   2.032  0.7693  0.7676 -0.0729
 2906TIP3    H130133   2.495   2.234   1.961  0.6429  0.5588 -0.0959
 2906TIP3    H230134   2.481   2.144   2.081  0.8469  0.9433  0.2148
 2907TIP3   OH230135   2.323   5.932   4.707  0.1636  0.1705  0.3014
 2907TIP3    H130136   2.244   5.905   4.754 -0.2881  0.0793 -0.5026
 2907TIP3    H230137   2.393   5.928   4.773 -0.7832  1.8820  1.4795
 2908TIP3   OH230138   2.421   1.155   4.747 -0.1839  0.6151  0.3147
 2908TIP3    H130139   2.342   1.176   4.696  0.3632 -1.1352 -1.3868
 2908TIP3    H230140   2.395   1.080   4.801  0.3379 -0.0866 -0.3889
 2909TIP3   OH230141   5.811   4.999   2.333  0.1011 -0.6213  0.3095
 2909TIP3    H130142   5.764   5.008   2.250  0.9457  0.1120 -0.1090
 2909TIP3    H230143   5.744   4.974   2.396 -0.7948  0.0668 -0.3364
 2910TIP3   OH230144   3.895   5.753  11.706 -0.8909  0.5263 -0.4416
 2910TIP3    H130145   3.981   5.722  11.732  0.0214  2.4106 -1.0335
 2910TIP3    H230146   3.906   5.784  11.616 -2.8629 -1.6343 -1.5211
 2911TIP3   OH230147   6.150   0.098   0.856 -0.5775  0.9132 -0.1110
 2911TIP3    H130148   6.097   0.066   0.929  0.9034 -2.5644 -0.3774
 2911TIP3    H230149   6.089   0.149   0.803 -2.6442  0.3266  1.5711
 2912TIP3   OH230150   0.846   0.275   0.984  0.8747 -0.1837 -0.4746
 2912TIP3    H130151   0.824   0.364   0.958  1.1025 -0.7370 -2.7537
 2912TIP3    H230152   0.898   0.241   0.911  2.1848 -1.6600  1.0583
 2913TIP3   OH230153   5.188   0.568   3.269 -0.0290  0.3618  0.1033
 2913TIP3    H130154   5.210   0.628   3.197 -1.5984  0.5228 -0.2619
 2913TIP3    H230155   5.266   0.514   3.278  0.2420  0.3778 -1.6929
 2914TIP3   OH230156   5.959   5.419  11.327 -0.4438 -0.1131  0.6212
 2914TIP3    H130157   6.041   5.429  11.375 -0.3893  2.9410  0.0876
 2914TIP3    H230158   5.896   5.472  11.376 -1.5754 -0.7000 -0.1436
 2915TIP3   OH230159   3.139   5.172  14.923 -0.5888 -0.3089 -0.3115
 2915TIP3    H130160   3.195   5.174  14.845 -2.1766  0.8742 -1.4874
 2915TIP3    H230161   3.057   5.133  14.892 -1.0635 -0.2992  0.9009
 2916TIP3   OH230162   5.930   6.172   1.353 -0.8657 -0.5764 -0.7789
 2916TIP3    H130163   6.005   6.113   1.347 -0.5408 -0.4028  1.1769
 2916TIP3    H230164   5.948   6.240   1.288  1.3444  0.1552  0.5013
 2917TIP3   OH230165   1.280   1.666   5.008  0.2567 -0.5114 -0.3225
 2917TIP3    H130166   1.185   1.659   5.010  0.0339  1.3575  2.6161
 2917TIP3    H230167   1.311   1.598   5.068  0.6971 -0.4170 -0.4358
 2918TIP3   OH230168   5.718   6.502   5.398 -0.0355  0.2757  0.0401
 2918TIP3    H130169   5.676   6.439   5.340  0.2612  0.2863 -0.1927
 2918TIP3    H230170   5.713   6.462   5.485  2.2057 -1.2067 -0.4184
 2919TIP3   OH230171   1.340   6.214   5.371  0.2371 -0.0909  0.8254
 2919TIP3    H130172   1.373   6.130   5.403  2.7889  0.6732  0.4495
 2919TIP3    H230173   1.392   6.280   5.418 -1.7388  1.3251  1.1652
 2920TIP3   OH230174   0.853   2.268  13.573  0.1957  0.2971 -0.7465
 2920TIP3    H130175   0.820   2.276  13.483  2.5236  0.1452 -1.7120
 2920TIP3    H230176   0.893   2.181  13.576 -1.2031 -0.3331  0.9821
 2921TIP3   OH230177   5.358   3.476  16.347  0.1080  0.0614  0.5634
 2921TIP3    H130178   5.329   3.522  16.426  1.2647  0.9243  0.5233
 2921TIP3    H230179   5.448   3.450  16.366  0.1356 -0.4146 -0.1774
 2922TIP3   OH230180   4.109   5.549  12.004  0.2499 -0.1076 -0.0019
 2922TIP3    H130181   4.058   5.629  12.009 -0.3093 -0.5278  1.6356
 2922TIP3    H230182   4.200   5.578  11.998 -0.0301  0.6299 -0.8983
 2923TIP3   OH230183   2.637   1.587  16.956  0.3213  0.2653  0.5417
 2923TIP3    H130184   2.633   1.682  16.962  0.0238  0.4167 -1.5257
 2923TIP3    H230185   2.728   1.565  16.977  1.2351  1.3137 -1.9799
 2924TIP3   OH230186   5.223   2.782   3.222 -0.2776  0.6368 -0.5672
 2924TIP3    H130187   5.315   2.783   3.193  0.7051 -0.8331  2.0991
 2924TIP3    H230188   5.182   2.716   3.166  1.1571 -1.0280  0.2255
 2925TIP3   OH230189   4.862   0.267   3.760 -0.3712  0.1129 -0.4870
 2925TIP3    H130190   4.823   0.193   3.806 -0.7486  0.2737 -0.5415
 2925TIP3    H230191   4.954   0.267   3.787 -0.7470  0.6769  0.8823
 2926TIP3   OH230192   4.957   6.080   1.216  0.0450 -0.0943  0.2894
 2926TIP3    H130193   4.905   6.075   1.135  1.8430  0.1807 -0.9289
 2926TIP3    H230194   5.011   6.157   1.205 -0.9578  1.0297  2.6243
 2927TIP3   OH230195   0.283   6.543   1.831  0.3777 -0.3035 -0.5260
 2927TIP3    H130196   0.345   6.480   1.868  1.6350  0.8291 -0.6300
 2927TIP3    H230197   0.270   6.514   1.741  0.3667 -0.8263 -0.3591
 2928TIP3   OH230198   5.062   3.264   0.454 -0.5106  0.5887  0.3386
 2928TIP3    H130199   5.058   3.173   0.484  2.4377  0.8370  1.8233
 2928TIP3    H230200   5.022   3.262   0.367 -0.9730 -2.0136  0.5323
 2929TIP3   OH230201   2.043   4.733   3.778  0.6918 -0.1908 -0.2573
 2929TIP3    H130202   1.969   4.733   3.839 -0.2830 -3.4098 -1.2764
 2929TIP3    H230203   2.098   4.806   3.808 -2.4212  1.8422  1.0418
 2930TIP3   OH230204   3.419   5.904  14.962 -0.3488 -0.4024  0.3835
 2930TIP3    H130205   3.439   5.990  14.999  1.1676 -0.2738 -0.6352
 2930TIP3    H230206   3.403   5.848  15.038 -1.4225  0.7689  1.0619
 2931TIP3   OH230207   3.357   1.950  12.791 -0.2983  0.2340 -0.0599
 2931TIP3    H130208   3.304   1.924  12.716 -1.5374 -1.5754  1.3683
 2931TIP3    H230209   3.445   1.962  12.756 -1.0338  0.3632 -1.9441
 2932TIP3   OH230210   3.659   6.586  14.471 -0.3234 -0.3077  0.3471
 2932TIP3    H130211   3.614   6.663  14.436 -0.4093 -0.7798 -0.5995
 2932TIP3    H230212   3.611   6.511  14.436  0.4566 -0.8072  0.3215
 2933TIP3   OH230213   1.225   5.216   3.384 -0.1479  0.2580 -0.4363
 2933TIP3    H130214   1.211   5.125   3.411 -1.9566  0.6037 -0.0321
 2933TIP3    H230215   1.302   5.213   3.328  1.5157 -1.0834  1.7510
 2934TIP3   OH230216   6.459   0.914   5.575 -0.0210 -0.0260 -0.3910
 2934TIP3    H130217   6.376   0.948   5.607 -0.0796 -1.5480  1.1702
 2934TIP3    H230218   6.445   0.899   5.482 -1.8523 -1.2362  0.0430
 2935TIP3   OH230219   1.720   1.977  15.079  0.1491 -0.0100 -0.2266
 2935TIP3    H130220   1.739   2.068  15.059  0.8671 -0.0530  0.2392
 2935TIP3    H230221   1.658   1.981  15.152  1.6830  0.1189  1.1313
 2936TIP3   OH230222   4.158   2.388   1.300 -0.1951 -0.1848 -0.0416
 2936TIP3    H130223   4.173   2.294   1.295  1.5908  0.0348  0.4297
 2936TIP3    H230224   4.140   2.415   1.210  0.3379 -0.8158 -0.3383
 2937TIP3   OH230225   3.843   6.411  14.813 -0.0661  0.1964  0.1205
 2937TIP3    H130226   3.894   6.477  14.859  1.7635 -1.6626  0.9023
 2937TIP3    H230227   3.901   6.382  14.742 -0.9392 -0.3952 -0.3619
 2938TIP3   OH230228   3.101   6.661   5.919 -0.0096 -0.3081 -0.7417
 2938TIP3    H130229   3.030   6.722   5.896 -0.1784 -0.7150 -1.3017
 2938TIP3    H230230   3.181   6.710   5.900 -0.0368  1.1481  2.3084
 2939TIP3   OH230231   4.254   5.164  11.913  0.0339  0.1210 -0.2670
 2939TIP3    H130232   4.178   5.222  11.904 -0.7358 -0.8915 -0.4792
 2939TIP3    H230233   4.327   5.214  11.877  0.0736  2.2104  2.3459
 2940TIP3   OH230234   3.650   5.172   3.522 -0.8249 -0.0198 -0.8380
 2940TIP3    H130235   3.609   5.204   3.602  0.0390  1.8148 -1.0717
 2940TIP3    H230236   3.620   5.232   3.454  2.3431  1.6515 -0.9652
 2941TIP3   OH230237   5.255   4.905   4.063  0.0384 -0.8357  0.1307
 2941TIP3    H130238   5.344   4.880   4.086  0.5516 -0.3838 -1.2570
 2941TIP3    H230239   5.252   4.897   3.967 -1.3287 -0.5854  0.1366
 2942TIP3   OH230240   3.982   5.300   4.168  0.1483 -0.0664 -0.2347
 2942TIP3    H130241   3.907   5.273   4.221  0.0813 -1.2203 -0.8963
 2942TIP3    H230242   4.002   5.225   4.113 -0.9566  1.6375 -3.2293
 2943TIP3   OH230243   3.533   3.942  15.059 -0.5295 -0.2116  0.0810
 2943TIP3    H130244   3.530   3.864  15.004  0.9046 -0.4174  0.2494
 2943TIP3    H230245   3.480   3.921  15.135  0.2296 -1.2101  0.3459
 2944TIP3   OH230246   4.176   0.619  14.789 -0.2052 -0.4512  0.3679
 2944TIP3    H130247   4.190   0.578  14.703  1.3221 -3.2367  1.8255
 2944TIP3    H230248   4.253   0.675  14.801 -0.4717  0.0264 -0.0988
 2945TIP3   OH230249   0.114   0.116   3.718 -0.5080 -0.0687 -0.3764
 2945TIP3    H130250   0.134   0.043   3.777 -0.4245  0.8465  0.7610
 2945TIP3    H230251   0.030   0.150   3.749 -0.6677  0.1629 -1.0548
 2946TIP3   OH230252   0.362   1.924   6.050  0.1132  0.3199  0.0428
 2946TIP3    H130253   0.326   1.836   6.047 -0.8439  0.5680  2.2815
 2946TIP3    H230254   0.286   1.982   6.041  0.4783  0.8923  0.5587
 2947TIP3   OH230255   1.946   6.046  14.332  0.6154 -0.4901  0.1482
 2947TIP3    H130256   2.027   6.006  14.300  2.0705  1.8329  0.6583
 2947TIP3    H230257   1.953   6.043  14.427  0.0307 -0.4167  0.1960
 2948TIP3   OH230258   4.116   4.251  14.863  0.0453  0.9935  0.0487
 2948TIP3    H130259   4.045   4.315  14.848 -0.3523  0.6267  0.3412
 2948TIP3    H230260   4.116   4.237  14.957 -0.0945  0.3120 -0.0461
 2949TIP3   OH230261   2.346   1.355  11.711 -0.3556  0.0130  0.2119
 2949TIP3    H130262   2.341   1.262  11.690 -0.0146  0.0183  0.0989
 2949TIP3    H230263   2.417   1.388  11.655  0.1091  0.1618  0.8782
 2950TIP3   OH230264   0.592   2.298  15.309 -0.5890  0.0863 -0.1049
 2950TIP3    H130265   0.555   2.227  15.362  0.0569 -0.2657 -0.1137
 2950TIP3    H230266   0.527   2.313  15.240 -1.9496  1.2528  1.3446
 2951TIP3   OH230267   3.079   0.611   0.322  0.0979  0.1720  0.2830
 2951TIP3    H130268   2.993   0.575   0.298 -0.2461  1.2927 -0.2519
 2951TIP3    H230269   3.140   0.538   0.310 -0.6473 -0.3909 -0.2208
 2952TIP3   OH230270   4.419   6.507   3.885 -0.0484 -0.3299  0.2324
 2952TIP3    H130271   4.431   6.418   3.853  1.4198 -0.5456  1.2649
 2952TIP3    H230272   4.478   6.513   3.960  0.1194  1.6055 -0.0081
 2953TIP3   OH230273   5.263   2.336  15.515  0.2994 -0.6381  0.5528
 2953TIP3    H130274   5.229   2.266  15.571 -0.9028  0.4074  1.1867
 2953TIP3    H230275   5.266   2.412  15.573 -0.1792  0.2685 -0.5970
 2954TIP3   OH230276   0.962   4.081  11.154 -0.2020  0.2515  0.4215
 2954TIP3    H130277   1.016   4.131  11.093  0.4818 -0.4138  0.4636
 2954TIP3    H230278   0.901   4.034  11.097  0.0225  0.1171  0.2880
 2955TIP3   OH230279   1.519   3.785  12.576  0.5149  0.6878  0.0985
 2955TIP3    H130280   1.446   3.744  12.622  1.0886 -0.1472  0.2799
 2955TIP3    H230281   1.513   3.878  12.600 -0.4422  0.6220  0.1563
 2956TIP3   OH230282   2.756   5.070  17.218  0.1354  0.3142 -0.1934
 2956TIP3    H130283   2.783   5.056  17.308  0.8148  0.9571 -0.2902
 2956TIP3    H230284   2.665   5.039  17.215  0.5181 -0.9002  0.3866
 2957TIP3   OH230285   4.864   1.727  15.650 -0.1903 -0.2809  0.1027
 2957TIP3    H130286   4.856   1.711  15.556  0.0631  1.8349 -0.3141
 2957TIP3    H230287   4.774   1.742  15.680 -0.0564  1.7546 -0.3727
 2958TIP3   OH230288   4.169   4.105   5.071 -0.1418 -0.3670 -0.0497
 2958TIP3    H130289   4.085   4.140   5.098  0.1703  0.8056 -0.5558
 2958TIP3    H230290   4.187   4.034   5.133  0.1129  1.5868  2.2609
 2959TIP3   OH230291   3.863   6.302   3.106  0.2481 -0.1967  0.0958
 2959TIP3    H130292   3.844   6.311   3.200  1.0536 -0.4199  0.2880
 2959TIP3    H230293   3.780   6.324   3.063 -0.0527  0.1852  0.8465
 2960TIP3   OH230294   0.032   0.212   3.157 -0.3381 -0.5915 -0.1871
 2960TIP3    H130295   0.027   0.148   3.227  2.1027 -1.2829 -0.5341
 2960TIP3    H230296   0.102   0.272   3.184  0.1882 -0.4713 -1.6859
 2961TIP3   OH230297   2.310   5.310  11.858 -0.0259 -0.1529 -0.2964
 2961TIP3    H130298   2.260   5.365  11.918  4.3528  0.1486  3.6835
 2961TIP3    H230299   2.336   5.369  11.788  0.0015  1.3993  0.9608
 2962TIP3   OH230300   3.370   1.941   3.219 -0.0490 -0.1025  0.8740
 2962TIP3    H130301   3.421   1.992   3.282  0.5242  0.7629 -0.2468
 2962TIP3    H230302   3.394   1.850   3.235 -0.8774 -0.0394  2.7367
 2963TIP3   OH230303   2.833   2.565   2.594  0.2184  0.2439  0.5475
 2963TIP3    H130304   2.777   2.610   2.657  0.4235  0.2348  0.7367
 2963TIP3    H230305   2.798   2.475   2.591 -0.9606  0.6918 -0.7274
 2964TIP3   OH230306   4.686   5.779   4.019 -0.1039  0.0201  0.5090
 2964TIP3    H130307   4.666   5.688   4.040  0.6617 -0.2141  0.2340
 2964TIP3    H230308   4.710   5.818   4.103  0.4794 -0.2695  0.4774
 2965TIP3   OH230309   1.575   2.872   0.287 -0.2171 -0.1029  0.3523
 2965TIP3    H130310   1.598   2.848   0.377  0.1461  0.2530  0.3550
 2965TIP3    H230311   1.505   2.810   0.263  0.1325 -0.6164  0.6459
 2966TIP3   OH230312   0.835   2.614  13.369  0.0977  0.1972  0.2747
 2966TIP3    H130313   0.842   2.679  13.439  0.5746  0.6879 -0.2177
 2966TIP3    H230314   0.777   2.654  13.304 -3.5491 -1.7876  2.0192
 2967TIP3   OH230315   6.112   0.319  11.242  0.0351  0.0975 -0.4643
 2967TIP3    H130316   6.120   0.224  11.229  1.7117 -0.1316  1.6902
 2967TIP3    H230317   6.040   0.329  11.305 -0.8844  0.3749 -1.5305
 2968TIP3   OH230318   4.343   3.424   4.372 -0.4083  0.6688 -0.1703
 2968TIP3    H130319   4.261   3.429   4.422 -0.5960  0.1365 -0.4139
 2968TIP3    H230320   4.318   3.382   4.290  0.0653  0.7332 -0.3488
 2969TIP3   OH230321   4.081   5.933   5.515 -0.4923  0.3776  0.5154
 2969TIP3    H130322   4.067   6.027   5.529  0.2162  0.8569 -1.5583
 2969TIP3    H230323   4.067   5.921   5.421  1.5405 -1.1929  0.3511
 2970TIP3   OH230324   4.015   3.214  16.337  0.4536  0.1601  0.3856
 2970TIP3    H130325   4.092   3.158  16.334 -0.0787 -0.5781 -0.1515
 2970TIP3    H230326   3.961   3.183  16.264  0.2957  1.6116 -0.1356
 2971TIP3   OH230327   4.629   4.919  10.439  0.5752  0.5804 -0.1755
 2971TIP3    H130328   4.545   4.914  10.392  0.1826  0.7117  0.5072
 2971TIP3    H230329   4.646   5.013  10.447 -0.1432  0.6095  1.3042
 2972TIP3   OH230330   2.032   6.589   5.606 -0.4182 -0.6871  0.5550
 2972TIP3    H130331   2.028   6.570   5.699  2.5628  0.0959  0.9433
 2972TIP3    H230332   1.991   6.513   5.564 -1.5701 -1.1771  2.4503
 2973TIP3   OH230333   4.537   0.146   0.756  0.0393 -0.2129 -0.4850
 2973TIP3    H130334   4.476   0.126   0.828 -1.2872  2.4049 -0.7510
 2973TIP3    H230335   4.495   0.219   0.709  2.6881  0.7062 -1.5918
 2974TIP3   OH230336   1.169   2.117   2.143 -0.6539 -0.7655 -0.3071
 2974TIP3    H130337   1.182   2.160   2.228  0.0372 -0.3827 -0.5993
 2974TIP3    H230338   1.217   2.035   2.151  1.6516  0.4027 -1.1921
 2975TIP3   OH230339   6.178   4.239  11.146 -0.0540 -0.1966  0.1365
 2975TIP3    H130340   6.102   4.184  11.132  0.1394 -0.3228 -0.4175
 2975TIP3    H230341   6.159   4.286  11.228  1.0210 -3.1831  2.2545
 2976TIP3   OH230342   4.894   1.552   0.487  0.3377 -0.2762 -0.3039
 2976TIP3    H130343   4.899   1.642   0.519  0.9626 -0.0148 -1.1025
 2976TIP3    H230344   4.892   1.499   0.567  0.7334  0.4109  0.1818
 2977TIP3   OH230345   0.399   1.979  14.051  0.1340 -0.2350 -0.1605
 2977TIP3    H130346   0.468   1.924  14.089  0.0940  0.7064  1.3653
 2977TIP3    H230347   0.323   1.963  14.107  0.6293  2.7325  1.5822
 2978TIP3   OH230348   3.308   0.696   5.065  0.0311  0.0394  0.0101
 2978TIP3    H130349   3.328   0.756   4.994  0.2194 -0.8780 -0.7446
 2978TIP3    H230350   3.359   0.728   5.140 -1.6337  2.1273  0.3424
 2979TIP3   OH230351   4.059   1.301  17.027 -0.0914  0.0526  0.3635
 2979TIP3    H130352   4.056   1.396  17.029 -1.9010  0.1856 -2.9993
 2979TIP3    H230353   4.148   1.280  16.998 -0.1518  0.7712 -0.3497
 2980TIP3   OH230354   2.508   6.211   3.936 -0.2769  0.5634 -0.0166
 2980TIP3    H130355   2.423   6.185   3.972 -0.3160  1.1243  0.3118
 2980TIP3    H230356   2.491   6.226   3.843 -0.7282  1.4674  0.2031
 2981TIP3   OH230357   2.961   1.727   1.109 -0.6020 -0.0610  0.0692
 2981TIP3    H130358   2.950   1.643   1.155 -1.6659  0.1130  0.1683
 2981TIP3    H230359   2.972   1.791   1.179 -0.6419 -0.0096  0.0286
 2982TIP3   OH230360   0.254   0.332   2.674 -0.0943 -0.3982  0.0092
 2982TIP3    H130361   0.299   0.415   2.694 -0.0666 -0.3761 -0.1420
 2982TIP3    H230362   0.188   0.356   2.609  0.4225 -0.6259 -0.6092
 2983TIP3   OH230363   3.978   3.388   3.312 -0.2893 -0.2525 -0.0321
 2983TIP3    H130364   3.905   3.449   3.309  0.3520  0.8027  2.7495
 2983TIP3    H230365   3.990   3.368   3.405  2.9211 -0.4122 -0.3438
 2984TIP3   OH230366   2.967   1.361  15.864 -0.4340  0.2874  0.0974
 2984TIP3    H130367   3.005   1.433  15.814 -1.0537 -0.4469 -1.4652
 2984TIP3    H230368   2.917   1.404  15.933  2.1901  1.3089  1.5276
 2985TIP3   OH230369   2.517   3.828  11.580 -0.0463  0.5591  0.5820
 2985TIP3    H130370   2.530   3.733  11.575 -1.0925  0.3289  1.7817
 2985TIP3    H230371   2.448   3.845  11.515 -0.6042  0.3284  1.1037
 2986TIP3   OH230372   3.354   6.217  14.741 -0.9670 -0.2366 -0.4597
 2986TIP3    H130373   3.378   6.219  14.834  0.0332  2.1501 -0.7067
 2986TIP3    H230374   3.324   6.127  14.727 -1.8308 -0.4986  2.3137
 2987TIP3   OH230375   6.409   3.436   0.426 -0.4669 -0.1340 -0.2207
 2987TIP3    H130376   6.445   3.434   0.515 -0.6524 -0.4198 -0.1509
 2987TIP3    H230377   6.350   3.361   0.423 -0.4566 -0.1257 -0.5895
 2988TIP3   OH230378   1.009   3.968  11.443 -0.2827 -0.0186  0.9704
 2988TIP3    H130379   0.953   4.028  11.394 -1.5923 -0.9883  1.2012
 2988TIP3    H230380   1.022   3.894  11.384  0.2103 -0.0921  1.1713
 2989TIP3   OH230381   5.964   4.668  15.145  0.2029 -0.3865 -0.3517
 2989TIP3    H130382   6.013   4.587  15.155 -0.6680 -0.7524  1.4848
 2989TIP3    H230383   6.027   4.730  15.109  2.3002 -0.6396  2.5380
 2990TIP3   OH230384   1.523   2.559   5.974  0.6522 -0.0483 -0.4841
 2990TIP3    H130385   1.573   2.480   5.993  0.7068 -0.0540 -0.6565
 2990TIP3    H230386   1.436   2.527   5.949  0.0998  0.0038  1.2284
 2991TIP3   OH230387   6.542   6.159   0.103  0.0606  0.4262  0.0090
 2991TIP3    H130388   6.540   6.124   0.192  1.6239 -0.6875 -0.3650
 2991TIP3    H230389   6.618   6.118   0.061  0.8194  2.7290 -1.1044
 2992TIP3   OH230390   3.127   3.244  12.633  0.2677 -0.4835  0.2149
 2992TIP3    H130391   3.063   3.175  12.651 -1.3941  1.2455  1.3131
 2992TIP3    H230392   3.084   3.301  12.570  0.5532  0.9175  1.2466
 2993TIP3   OH230393   1.130   1.913   5.362  0.0393  0.2436  0.2721
 2993TIP3    H130394   1.162   1.823   5.353  0.1768  0.4069 -1.0715
 2993TIP3    H230395   1.166   1.959   5.286 -0.1949  1.3924  0.8306
 2994TIP3   OH230396   4.398   4.336  11.705  0.3524 -0.2136  0.0418
 2994TIP3    H130397   4.333   4.374  11.765  0.8371 -1.3642  1.3766
 2994TIP3    H230398   4.358   4.343  11.619 -0.8829  0.4943  0.6365
 2995TIP3   OH230399   3.460   1.027   4.308 -0.1202  0.1477  0.1715
 2995TIP3    H130400   3.516   0.986   4.374  0.1174 -0.4106 -0.3680
 2995TIP3    H230401   3.381   0.974   4.306 -0.7561  1.0370  1.0546
 2996TIP3   OH230402   3.782   5.012   0.776  0.1139 -0.1540 -0.3676
 2996TIP3    H130403   3.687   5.005   0.779  0.1788 -1.4694 -0.8247
 2996TIP3    H230404   3.799   5.079   0.710 -0.4924  0.7891  0.4002
 2997TIP3   OH230405   0.847   6.065   0.890  0.5536 -0.2780 -0.0349
 2997TIP3    H130406   0.896   6.107   0.820  0.5468  0.3708  0.3393
 2997TIP3    H230407   0.834   5.975   0.860 -0.7560  0.3640 -1.5668
 2998TIP3   OH230408   6.099   4.369   4.774 -0.4251  0.1840 -0.1759
 2998TIP3    H130409   6.142   4.392   4.857 -0.4244 -0.2466 -0.0529
 2998TIP3    H230410   6.170   4.339   4.718 -0.6176 -0.9978  0.1939
 2999TIP3   OH230411   6.333   1.259  11.226 -0.0072  0.8857  0.2258
 2999TIP3    H130412   6.262   1.302  11.179  0.4357  1.3697 -0.0072
 2999TIP3    H230413   6.356   1.322  11.295  0.0799  0.6529  0.4072
 3000TIP3   OH230414   6.722   1.830   2.882  0.4119  0.1121 -0.8006
 3000TIP3    H130415   6.655   1.884   2.840 -0.5507 -0.3534  0.0714
 3000TIP3    H230416   6.674   1.782   2.950  1.4793 -0.8643 -0.7064
 3001TIP3   OH230417   0.175   5.544   1.967 -0.6145  0.4845 -0.0020
 3001TIP3    H130418   0.157   5.623   2.018  0.7441  0.8660 -0.0611
 3001TIP3    H230419   0.241   5.572   1.903 -0.6038 -0.5453 -0.4539
 3002TIP3   OH230420   4.199   0.730  13.324 -0.1719 -0.8156 -0.4747
 3002TIP3    H130421   4.270   0.751  13.264  0.4396 -2.0758 -0.2270
 3002TIP3    H230422   4.127   0.703  13.267 -1.5217  3.0796 -0.9129
 3003TIP3   OH230423   5.308   3.315  12.740  0.2512 -0.4239  0.2444
 3003TIP3    H130424   5.341   3.326  12.651  1.5536  1.3304  0.9043
 3003TIP3    H230425   5.385   3.293  12.792 -0.0053  1.1279  1.3511
 3004TIP3   OH230426   0.363   1.530  14.988  0.4583  0.1051  0.3427
 3004TIP3    H130427   0.307   1.595  15.029  0.7503 -1.0940  2.8405
 3004TIP3    H230428   0.436   1.580  14.951 -0.2403  1.3325  0.5962
 3005TIP3   OH230429   6.444   5.022  16.728  0.6792  0.7387  0.1206
 3005TIP3    H130430   6.518   4.990  16.676 -0.3816 -0.2657 -0.8080
 3005TIP3    H230431   6.461   5.115  16.738  2.7440  0.3284  1.0529
 3006TIP3   OH230432   2.512   2.926  12.435  0.2986 -0.0614  0.5612
 3006TIP3    H130433   2.549   2.871  12.366  0.7243  0.1674  0.5990
 3006TIP3    H230434   2.564   3.007  12.431  1.2101 -0.5360  2.0032
 3007TIP3   OH230435   2.145   5.711  13.830 -0.3743 -0.1213 -0.4971
 3007TIP3    H130436   2.221   5.660  13.858 -0.4529 -0.1293 -0.2956
 3007TIP3    H230437   2.158   5.797  13.869 -0.8503 -0.3463  0.1738
 3008TIP3   OH230438   2.311   2.274  12.469 -1.0522 -0.3605  0.0007
 3008TIP3    H130439   2.223   2.244  12.448 -1.0775  1.2483 -2.6390
 3008TIP3    H230440   2.368   2.199  12.451 -1.2789  0.3232 -4.7884
 3009TIP3   OH230441   6.564   4.334  11.081 -0.6219 -0.0103  0.3661
 3009TIP3    H130442   6.539   4.378  11.000  0.8739 -0.8472 -0.5797
 3009TIP3    H230443   6.563   4.241  11.059 -0.7088 -0.2892  1.4735
 3010TIP3   OH230444   1.107   3.800  16.243 -0.3207  0.0054  0.2694
 3010TIP3    H130445   1.161   3.727  16.214 -1.2068 -1.2387  1.6021
 3010TIP3    H230446   1.017   3.773  16.224 -0.7474  0.2079  1.8186
 3011TIP3   OH230447   1.068   0.395   2.162  0.0810  0.4069 -0.4018
 3011TIP3    H130448   1.057   0.314   2.112  0.4319  0.4414 -0.5370
 3011TIP3    H230449   1.090   0.366   2.250 -0.9933  0.3386 -0.1512
 3012TIP3   OH230450   4.345   4.107  16.564 -0.5132  0.0903  0.1004
 3012TIP3    H130451   4.368   4.027  16.518 -0.6399 -0.1395  0.4349
 3012TIP3    H230452   4.257   4.092  16.597 -1.0999  0.9090 -1.0328
 3013TIP3   OH230453   6.146   2.623   3.817 -0.2454 -0.3269 -0.3011
 3013TIP3    H130454   6.134   2.686   3.745 -0.2078 -0.4109 -0.3817
 3013TIP3    H230455   6.060   2.581   3.825 -0.3720 -0.0167 -0.0094
 3014TIP3   OH230456   0.479   0.999   1.681  0.0061  0.1190 -0.2612
 3014TIP3    H130457   0.532   0.925   1.653  0.5913  0.8828 -1.2629
 3014TIP3    H230458   0.543   1.069   1.697 -0.5171  0.3719  0.8440
 3015TIP3   OH230459   4.766   1.829   2.539  0.5227  0.3495  0.3063
 3015TIP3    H130460   4.747   1.904   2.596 -0.2902  0.1389  0.3266
 3015TIP3    H230461   4.809   1.868   2.462 -1.7642  1.1413 -0.6589
 3016TIP3   OH230462   4.453   5.171  12.774  0.5994  0.3286  0.6139
 3016TIP3    H130463   4.475   5.264  12.768  2.2590  0.0546  1.7896
 3016TIP3    H230464   4.498   5.131  12.700 -0.5310  0.4929 -0.1929
 3017TIP3   OH230465   3.412   2.020   2.470 -0.4344  0.1838  0.4564
 3017TIP3    H130466   3.325   2.050   2.497 -1.0553 -0.2469 -0.9346
 3017TIP3    H230467   3.437   2.079   2.398 -0.9764 -1.5236 -1.2277
 3018TIP3   OH230468   0.369   4.330   1.708  0.4440  0.2404 -0.1596
 3018TIP3    H130469   0.447   4.377   1.736  0.7809 -0.8326  0.8042
 3018TIP3    H230470   0.356   4.357   1.618  1.3370  1.2152 -0.0185
 3019TIP3   OH230471   5.287   6.034   5.397  0.0301 -0.6304  0.2966
 3019TIP3    H130472   5.217   5.977   5.365 -0.3443 -0.1340  0.2179
 3019TIP3    H230473   5.249   6.079   5.472 -0.2261  0.6668 -0.5582
 3020TIP3   OH230474   2.384   5.199   3.409  0.5627  0.4282  0.4720
 3020TIP3    H130475   2.398   5.269   3.345 -0.9925 -0.4574 -0.9210
 3020TIP3    H230476   2.443   5.129   3.381 -0.0532  0.0737  0.0434
 3021TIP3   OH230477   0.212   0.201  15.334 -0.2830 -0.0448 -0.3338
 3021TIP3    H130478   0.118   0.201  15.351  0.0527  0.7661  1.7368
 3021TIP3    H230479   0.225   0.128  15.273 -1.8631 -2.1667  1.7089
 3022TIP3   OH230480   3.042   5.904   2.614 -0.1821 -0.0526  0.7347
 3022TIP3    H130481   3.072   5.905   2.705  0.8647 -1.0958  0.4199
 3022TIP3    H230482   2.983   5.979   2.608  0.9661  0.9824  1.8459
 3023TIP3   OH230483   1.939   1.119   0.929  0.0856  0.0830  0.0394
 3023TIP3    H130484   1.906   1.030   0.922 -1.0096  0.5514 -1.2333
 3023TIP3    H230485   1.864   1.171   0.959  0.5431  0.6799  0.1827
 3024TIP3   OH230486   1.155   0.960  11.449 -0.0535 -0.4206  0.1917
 3024TIP3    H130487   1.077   0.911  11.476  0.7541 -0.7215  2.1062
 3024TIP3    H230488   1.159   0.946  11.354 -0.5194 -3.1175  0.4755
 3025TIP3   OH230489   0.810   2.449   0.632  0.1563 -0.2480 -0.5867
 3025TIP3    H130490   0.787   2.380   0.694 -1.4041  1.0484  0.3468
 3025TIP3    H230491   0.763   2.427   0.552 -1.2642  0.3066  0.0728
 3026TIP3   OH230492   3.923   5.899  12.782 -0.0626  0.7536 -0.0759
 3026TIP3    H130493   4.004   5.925  12.826 -0.7596  0.6575  1.3087
 3026TIP3    H230494   3.944   5.905  12.688  1.2645  1.5941  0.2460
 3027TIP3   OH230495   5.736   0.154  11.516  0.3464 -0.1797  0.0749
 3027TIP3    H130496   5.733   0.058  11.516 -0.5117 -0.1882  1.9411
 3027TIP3    H230497   5.767   0.176  11.428  1.8509 -2.1888  0.0244
 3028TIP3   OH230498   1.572   3.336  12.699  0.2467 -0.4499  0.0049
 3028TIP3    H130499   1.652   3.325  12.751 -1.1076 -0.0326  2.3025
 3028TIP3    H230500   1.565   3.430  12.683  0.2813 -0.5057 -0.3708
 3029TIP3   OH230501   5.987   6.702  11.516 -0.3354 -0.2927 -0.4595
 3029TIP3    H130502   5.946   6.681  11.600 -0.8328  2.6148  0.1056
 3029TIP3    H230503   6.064   6.753  11.539 -0.7276  0.9365 -1.7611
 3030TIP3   OH230504   4.269   2.654  15.639  0.4056  0.2076  0.3788
 3030TIP3    H130505   4.188   2.676  15.684 -0.2714 -2.3567  0.5869
 3030TIP3    H230506   4.319   2.601  15.702  2.0515  1.3303  0.0866
 3031TIP3   OH230507   3.265   1.377   3.799 -0.3445  0.0070  0.1087
 3031TIP3    H130508   3.192   1.317   3.783 -0.4700  0.7993 -2.8149
 3031TIP3    H230509   3.344   1.324   3.783 -0.3326 -0.1773  0.7356
 3032TIP3   OH230510   0.247   5.442   5.545 -0.4016  0.0503  0.8169
 3032TIP3    H130511   0.295   5.362   5.527 -0.4080  0.2875 -0.2940
 3032TIP3    H230512   0.155   5.416   5.539 -0.4232  0.4804 -1.2650
 3033TIP3   OH230513   6.462   1.253   0.653 -0.4943 -0.7531  0.4943
 3033TIP3    H130514   6.516   1.252   0.574 -0.4448 -0.7868  0.5296
 3033TIP3    H230515   6.373   1.272   0.620 -0.1339  1.5112  0.6216
 3034TIP3   OH230516   4.783   0.667   3.175  0.4142  0.3256 -0.2028
 3034TIP3    H130517   4.850   0.606   3.143  0.4258 -0.2629  0.9090
 3034TIP3    H230518   4.825   0.713   3.248  0.1027  1.0426 -0.4600
 3035TIP3   OH230519   3.671   3.119   2.329  0.1612 -0.1025  0.6430
 3035TIP3    H130520   3.765   3.113   2.348  0.9584  1.4258 -2.2293
 3035TIP3    H230521   3.657   3.211   2.307 -1.2902 -0.8700 -2.0680
 3036TIP3   OH230522   3.882   2.460  11.930 -0.6257  0.5749  0.0853
 3036TIP3    H130523   3.860   2.476  11.839 -2.4135 -2.5007 -0.1780
 3036TIP3    H230524   3.973   2.431  11.928 -0.9594 -0.4827 -0.9225
 3037TIP3   OH230525   0.462   3.114   3.659 -0.3651  0.1631  0.5042
 3037TIP3    H130526   0.470   3.051   3.730 -1.4605 -1.3092 -0.6181
 3037TIP3    H230527   0.368   3.117   3.640 -0.1768  1.1273 -0.3634
 3038TIP3   OH230528   6.527   0.423  11.461 -0.4156  0.1463 -0.0500
 3038TIP3    H130529   6.617   0.422  11.430 -0.6162 -1.0858 -0.6646
 3038TIP3    H230530   6.475   0.446  11.384 -0.6059  1.4187  0.4307
 3039TIP3   OH230531   2.572   5.787  11.173  0.5448  0.6105  0.9374
 3039TIP3    H130532   2.638   5.741  11.121  0.4620 -0.3699  1.6671
 3039TIP3    H230533   2.564   5.735  11.253 -3.9406 -1.6856 -0.6514
 3040TIP3   OH230534   1.163   1.630   2.107  0.1832 -0.7631  0.5062
 3040TIP3    H130535   1.187   1.586   2.025 -0.3435 -0.5672  0.2417
 3040TIP3    H230536   1.137   1.559   2.166 -0.4560 -0.8388  0.1502
 3041TIP3   OH230537   1.899   5.496  12.265  0.0295  0.2965  0.4568
 3041TIP3    H130538   1.965   5.563  12.279  0.4123  0.0559 -0.1672
 3041TIP3    H230539   1.819   5.544  12.244 -0.4113  0.6536  2.7369
 3042TIP3   OH230540   4.377   3.778   5.749 -0.3478  0.0490 -0.0870
 3042TIP3    H130541   4.428   3.859   5.742  0.2975 -0.2291  1.3113
 3042TIP3    H230542   4.293   3.807   5.786  0.3200 -0.0623  1.5843
 3043TIP3   OH230543   5.297   5.199  10.659  0.1333 -0.4784 -0.7885
 3043TIP3    H130544   5.207   5.232  10.655  0.4801  0.4314 -3.3143
 3043TIP3    H230545   5.342   5.244  10.587  2.9189 -0.1212  1.0053
 3044TIP3   OH230546   0.111   2.602  11.653  0.1535  0.3284  0.2726
 3044TIP3    H130547   0.027   2.583  11.609  0.2076 -0.5272  0.5136
 3044TIP3    H230548   0.105   2.555  11.736  0.4340  1.1723  0.7765
 3045TIP3   OH230549   0.470   1.374   3.251 -0.3728  0.2407 -0.1903
 3045TIP3    H130550   0.542   1.359   3.311 -0.7177 -0.8904 -0.0251
 3045TIP3    H230551   0.422   1.291   3.250 -1.2390  0.7273 -0.8650
 3046TIP3   OH230552   4.839   5.138   5.650  0.1911 -0.0622  0.1991
 3046TIP3    H130553   4.774   5.084   5.694  0.3380 -0.8551 -0.5286
 3046TIP3    H230554   4.867   5.086   5.575 -0.3726  1.4443 -1.0992
 3047TIP3   OH230555   6.663   1.477   3.171 -0.5620  0.2827  0.5583
 3047TIP3    H130556   6.613   1.429   3.237  1.3268 -1.3060  0.9256
 3047TIP3    H230557   6.753   1.444   3.180  0.3008  2.0133 -0.9798
 3048TIP3   OH230558   1.387   2.218   2.001 -0.4360  0.6460 -0.1269
 3048TIP3    H130559   1.389   2.293   1.941 -0.9036  0.2446 -0.6472
 3048TIP3    H230560   1.299   2.220   2.039 -0.6188  0.0726 -0.5111
 3049TIP3   OH230561   4.507   4.472  16.330 -0.1702  0.0823 -0.1983
 3049TIP3    H130562   4.470   4.386  16.345  2.4995 -0.7528  2.7031
 3049TIP3    H230563   4.592   4.456  16.289 -0.0729  1.3883 -0.5739
 3050TIP3   OH230564   5.346   0.573   4.294  0.2399 -0.1429 -0.3828
 3050TIP3    H130565   5.307   0.489   4.319 -1.5629  0.2878 -1.5655
 3050TIP3    H230566   5.311   0.636   4.357  1.8543 -0.2867  0.7112
 3051TIP3   OH230567   4.165   3.576   4.547  0.0504 -0.0220 -0.4040
 3051TIP3    H130568   4.213   3.638   4.602  0.6874 -0.0542 -0.9111
 3051TIP3    H230569   4.169   3.614   4.459  0.6968 -0.9117 -0.7768
 3052TIP3   OH230570   1.371   2.951  14.103  0.5620  0.6515 -0.9691
 3052TIP3    H130571   1.311   2.878  14.119  0.2450  0.7209 -1.7878
 3052TIP3    H230572   1.442   2.914  14.052 -0.8785  1.3946 -3.6792
 3053TIP3   OH230573   6.226   3.419   2.098  0.2773  0.4453 -0.5020
 3053TIP3    H130574   6.317   3.421   2.127  0.3205  2.0175 -0.6265
 3053TIP3    H230575   6.228   3.459   2.011 -0.3748 -0.6842 -1.0645
 3054TIP3   OH230576   1.561   6.035   1.774  0.7844  0.7384 -0.0005
 3054TIP3    H130577   1.524   5.951   1.747 -1.8412  1.9275 -0.3567
 3054TIP3    H230578   1.614   6.063   1.699  0.6329 -0.0004 -0.3910
 3055TIP3   OH230579   0.157   1.260  11.564  0.3297  0.0221  0.3116
 3055TIP3    H130580   0.087   1.325  11.553  0.5446  0.5865  1.9198
 3055TIP3    H230581   0.111   1.180  11.589  0.2082  0.2227  0.7410
 3056TIP3   OH230582   1.119   3.454   2.404 -0.1876  0.3893  0.4876
 3056TIP3    H130583   1.174   3.529   2.426  0.3618  0.0316  0.3640
 3056TIP3    H230584   1.111   3.405   2.485  0.1490  0.1488  0.3821
 3057TIP3   OH230585   1.442   5.677  15.472  0.2092  0.5627  0.1642
 3057TIP3    H130586   1.354   5.644  15.453  1.4333 -1.5207 -2.4404
 3057TIP3    H230587   1.450   5.757  15.419 -0.2364  1.0620  0.8215
 3058TIP3   OH230588   4.158   5.191   0.642 -0.1679 -0.5418  0.0490
 3058TIP3    H130589   4.096   5.253   0.681 -1.3936 -0.9212 -1.2040
 3058TIP3    H230590   4.154   5.114   0.698 -1.9580 -1.1058 -0.7839
 3059TIP3   OH230591   1.648   2.284  15.299 -0.1583  0.3016 -0.5658
 3059TIP3    H130592   1.628   2.191  15.309  0.3709  0.0976 -1.3107
 3059TIP3    H230593   1.562   2.327  15.302 -0.4101 -0.2171 -0.2633
 3060TIP3   OH230594   6.429   6.481  14.544 -0.0672 -0.8272 -0.0119
 3060TIP3    H130595   6.403   6.540  14.473 -2.7397 -2.0809 -0.2087
 3060TIP3    H230596   6.473   6.409  14.500 -0.1266 -0.7428 -0.2124
 3061TIP3   OH230597   3.525   1.195  13.079 -0.0241 -0.6990  0.8317
 3061TIP3    H130598   3.610   1.240  13.082  0.1555 -1.0431  0.9813
 3061TIP3    H230599   3.542   1.114  13.031 -0.6425 -0.0047 -0.5875
 3062TIP3   OH230600   4.580   5.401   3.626 -0.0834 -0.0304 -0.6705
 3062TIP3    H130601   4.592   5.485   3.581 -0.7881 -0.8177 -2.3853
 3062TIP3    H230602   4.520   5.422   3.698  0.1509  1.0244 -0.7562
 3063TIP3   OH230603   2.189   2.256  13.018 -0.9524 -0.0495 -0.3773
 3063TIP3    H130604   2.094   2.244  13.024 -0.8545 -0.7284 -0.0782
 3063TIP3    H230605   2.206   2.259  12.924 -1.0775 -1.7679 -0.4945
 3064TIP3   OH230606   5.340   4.962  11.142  0.1778  0.1421 -0.0266
 3064TIP3    H130607   5.328   4.884  11.197  2.5015  0.0686  0.4693
 3064TIP3    H230608   5.372   5.029  11.201  0.9981  0.6064 -0.9616
 3065TIP3   OH230609   1.112   2.180  13.386 -0.0647 -0.7326 -0.2338
 3065TIP3    H130610   1.183   2.140  13.335  0.2512 -0.4355 -0.0252
 3065TIP3    H230611   1.076   2.247  13.328 -1.1438 -1.8416 -0.9187
 3066TIP3   OH230612   3.414   2.644   4.702 -0.4011 -0.0336 -0.1221
 3066TIP3    H130613   3.338   2.587   4.701 -1.4411  1.3132 -0.6243
 3066TIP3    H230614   3.422   2.675   4.612 -0.1768  1.0006  0.2427
 3067TIP3   OH230615   5.893   5.226  11.758  0.5760 -0.3398 -0.4220
 3067TIP3    H130616   5.908   5.134  11.740  0.5452 -0.1779 -1.2929
 3067TIP3    H230617   5.971   5.270  11.723  0.9106 -0.0862  0.5844
 3068TIP3   OH230618   1.717   4.404  17.072 -0.4479 -0.1592  0.0830
 3068TIP3    H130619   1.669   4.476  17.113 -0.6637  0.1073 -0.6212
 3068TIP3    H230620   1.689   4.326  17.119  1.0481  0.3947  1.9847
 3069TIP3   OH230621   6.128   3.429   5.058  0.1870 -0.2047 -0.1592
 3069TIP3    H130622   6.127   3.477   4.975 -0.9701  0.7660  0.3909
 3069TIP3    H230623   6.038   3.400   5.070 -0.0759  1.2213  1.6228
 3070TIP3   OH230624   3.246   5.573  14.285  0.5352 -1.1933  0.3218
 3070TIP3    H130625   3.279   5.484  14.298 -0.5097 -1.5576  0.5701
 3070TIP3    H230626   3.307   5.629  14.332  2.0919 -1.6152 -1.1079
 3071TIP3   OH230627   1.374   1.209  16.340 -0.0629 -0.1956 -0.1112
 3071TIP3    H130628   1.460   1.239  16.312 -1.0385  2.0407 -0.9283
 3071TIP3    H230629   1.363   1.245  16.428 -0.4273  0.1356 -0.2884
 3072TIP3   OH230630   6.635   2.843   4.082  0.0959 -0.4456  0.4185
 3072TIP3    H130631   6.722   2.882   4.081 -0.3811  0.6981  1.1354
 3072TIP3    H230632   6.583   2.902   4.137 -1.0193 -1.3449  0.3678
 3073TIP3   OH230633   2.898   4.134   2.271  0.3037  0.5956  0.2488
 3073TIP3    H130634   2.949   4.063   2.230 -1.3020 -0.6520  0.3167
 3073TIP3    H230635   2.869   4.188   2.197 -1.0048 -0.5778 -0.1349
 3074TIP3   OH230636   1.314   1.287  10.842 -0.2742 -0.2790 -0.3481
 3074TIP3    H130637   1.355   1.363  10.803 -0.6148 -1.0647 -2.3411
 3074TIP3    H230638   1.224   1.287  10.808 -0.0416 -1.9964 -1.1074
 3075TIP3   OH230639   2.967   1.445   3.621  0.1705  0.1407  0.8149
 3075TIP3    H130640   2.905   1.391   3.573 -0.7550  2.1654 -0.3829
 3075TIP3    H230641   3.046   1.445   3.567 -0.1795  0.7797  0.2907
 3076TIP3   OH230642   3.478   5.139  10.764  0.4467 -0.1319  0.3473
 3076TIP3    H130643   3.458   5.047  10.747 -2.1491  0.5653 -0.8867
 3076TIP3    H230644   3.407   5.169  10.820  0.4282  1.4573 -0.4781
 3077TIP3   OH230645   4.077   1.408  14.776 -0.2994 -0.3164  0.1923
 3077TIP3    H130646   3.989   1.403  14.813  0.0013 -1.4628  0.8059
 3077TIP3    H230647   4.115   1.321  14.792  0.8906  0.1063 -0.1923
 3078TIP3   OH230648   3.334   2.460   1.404  0.2773 -0.5457 -0.3837
 3078TIP3    H130649   3.364   2.435   1.491  1.1620 -0.6557 -0.7124
 3078TIP3    H230650   3.317   2.377   1.359 -2.0142 -0.5120  0.2636
 3079TIP3   OH230651   2.199   5.026  11.377  0.4010 -0.9514  0.5203
 3079TIP3    H130652   2.230   5.067  11.458  0.1600 -0.2091  0.2503
 3079TIP3    H230653   2.134   4.962  11.406 -1.2165  0.7355  0.8381
 3080TIP3   OH230654   1.257   5.221   4.084 -0.1309  0.0618  0.1600
 3080TIP3    H130655   1.182   5.267   4.048  0.6174  1.7543  0.6463
 3080TIP3    H230656   1.260   5.248   4.176 -0.4796 -2.1123  0.8766
 3081TIP3   OH230657   0.351   3.401  13.297 -0.1284  0.1014 -0.1296
 3081TIP3    H130658   0.278   3.460  13.278 -0.2932  0.5114  1.6033
 3081TIP3    H230659   0.419   3.459  13.332  0.1896 -0.5699  0.3767
 3082TIP3   OH230660   4.133   4.519   6.359 -0.0272  0.9104 -0.1003
 3082TIP3    H130661   4.156   4.608   6.333  0.9902  0.2079 -1.7713
 3082TIP3    H230662   4.171   4.509   6.447  0.6399  1.8398 -0.2711
 3083TIP3   OH230663   4.571   0.364  15.891 -0.6476 -1.0111  0.9051
 3083TIP3    H130664   4.623   0.396  15.818 -0.3600 -0.0348  1.5235
 3083TIP3    H230665   4.593   0.271  15.897 -0.1196 -0.9380  0.2156
 3084TIP3   OH230666   2.328   5.172  10.496 -0.3864  0.1306 -0.3139
 3084TIP3    H130667   2.355   5.165  10.405  0.8602  0.2850  0.0282
 3084TIP3    H230668   2.389   5.117  10.544 -0.6935  0.4729  0.4883
 3085TIP3   OH230669   5.908   2.123   3.386  1.0116 -0.0525  0.2199
 3085TIP3    H130670   5.922   2.094   3.295 -0.9910 -0.0701 -0.1308
 3085TIP3    H230671   5.966   2.199   3.396  0.2931  0.8031 -1.5531
 3086TIP3   OH230672   1.442   4.399   4.120  0.2507 -0.7008  0.3836
 3086TIP3    H130673   1.521   4.365   4.078  1.8143 -0.1621  2.7083
 3086TIP3    H230674   1.433   4.487   4.084  0.4449 -0.9182 -0.2196
 3087TIP3   OH230675   0.285   5.094   0.583 -0.5790 -0.1036  0.4320
 3087TIP3    H130676   0.304   5.187   0.570  1.9747 -0.4902  0.8253
 3087TIP3    H230677   0.251   5.064   0.499 -0.8094  1.0491  0.0973
 3088TIP3   OH230678   6.127   2.646   0.579  0.1266 -0.2181  0.3558
 3088TIP3    H130679   6.221   2.634   0.592 -0.0291 -1.5148  0.4505
 3088TIP3    H230680   6.117   2.738   0.555  1.5538 -0.3387 -0.8495
 3089TIP3   OH230681   1.623   4.317  11.612 -0.1926  0.2952 -0.2221
 3089TIP3    H130682   1.595   4.325  11.521 -1.2824 -0.1040  0.0608
 3089TIP3    H230683   1.612   4.405  11.648  0.9211  0.6195 -0.6511
 3090TIP3   OH230684   1.268   5.006   5.963 -0.0305 -0.0294 -0.1152
 3090TIP3    H130685   1.328   5.018   5.889 -0.2212  0.4702 -0.1921
 3090TIP3    H230686   1.300   4.927   6.007  1.3987  0.8713  0.5185
 3091TIP3   OH230687   1.221   1.888  10.963 -0.6662  0.0849  0.0490
 3091TIP3    H130688   1.202   1.923  10.876 -0.8692  0.3063  0.1792
 3091TIP3    H230689   1.309   1.852  10.957 -1.1705 -1.1068 -0.6211
 3092TIP3   OH230690   3.973   2.221  11.350  0.0326 -0.0557  0.3856
 3092TIP3    H130691   3.921   2.264  11.282 -1.1480 -0.1523  1.1914
 3092TIP3    H230692   3.908   2.184  11.409  1.0400 -0.4305  1.2829
 3093TIP3   OH230693   5.761   1.908  17.060 -0.7944 -0.4647 -0.2161
 3093TIP3    H130694   5.823   1.981  17.066 -1.8939  0.8096 -2.7171
 3093TIP3    H230695   5.732   1.894  17.150  0.8619  0.9045  0.5941
 3094TIP3   OH230696   0.062   1.759   3.877 -0.1274  0.3112 -0.2456
 3094TIP3    H130697  -0.006   1.706   3.917  0.2566 -0.8538 -1.0790
 3094TIP3    H230698   0.108   1.699   3.818  0.9758  1.3161 -0.4554
 3095TIP3   OH230699   6.004   5.573  11.859 -0.7693 -0.2820 -0.2365
 3095TIP3    H130700   6.016   5.504  11.793 -0.6510 -0.6609  0.1738
 3095TIP3    H230701   6.087   5.621  11.859 -0.2643 -1.1017  0.5536
 3096TIP3   OH230702   3.370   3.031   2.574  0.6637 -0.3604 -0.1045
 3096TIP3    H130703   3.388   2.967   2.643 -0.2602 -1.0797 -0.5017
 3096TIP3    H230704   3.428   3.006   2.502  0.3907 -0.6877 -0.2143
 3097TIP3   OH230705   5.195   5.632  14.338 -0.2599  0.5849 -0.6875
 3097TIP3    H130706   5.290   5.641  14.347  0.1147 -2.4129 -0.5624
 3097TIP3    H230707   5.178   5.647  14.245  0.6404 -0.6458 -1.0734
 3098TIP3   OH230708   2.642   5.233  12.870 -0.4312 -0.1155 -0.7420
 3098TIP3    H130709   2.550   5.219  12.848 -0.9096 -2.2497  1.9971
 3098TIP3    H230710   2.640   5.304  12.935 -0.2952 -0.7417 -0.0360
 3099TIP3   OH230711   1.257   4.228  12.689 -0.9697  0.3226  0.0122
 3099TIP3    H130712   1.172   4.270  12.674 -0.7436  0.4369 -0.9835
 3099TIP3    H230713   1.293   4.215  12.601 -0.1600 -0.1473  0.4081
 3100TIP3   OH230714   1.329   3.292   6.067 -0.1963 -0.5777  0.2761
 3100TIP3    H130715   1.239   3.312   6.040  0.3246  1.2321 -0.3033
 3100TIP3    H230716   1.362   3.376   6.100  1.3108 -1.1985  0.3801
 3101TIP3   OH230717   5.257   4.321  12.372 -0.0414 -0.0496 -0.3127
 3101TIP3    H130718   5.180   4.264  12.373  0.2107 -0.3938  0.4948
 3101TIP3    H230719   5.221   4.409  12.382 -0.5095  0.0694 -2.6100
 3102TIP3   OH230720   2.962   6.465  11.892 -0.0123  0.1303 -0.6650
 3102TIP3    H130721   2.978   6.389  11.836 -1.0674  0.3997 -1.3613
 3102TIP3    H230722   3.047   6.507  11.901  0.2463 -0.1183 -1.7752
 3103TIP3   OH230723   1.108   0.179   2.584  0.2806 -0.7382 -0.2814
 3103TIP3    H130724   1.022   0.206   2.616  0.6970  0.3477 -0.0369
 3103TIP3    H230725   1.090   0.106   2.524 -0.7058 -1.1973  0.5578
 3104TIP3   OH230726   3.385   5.431  15.878  0.1121  0.1575  0.0612
 3104TIP3    H130727   3.456   5.473  15.927  0.6888 -1.7088  0.9223
 3104TIP3    H230728   3.427   5.358  15.833 -1.1613 -0.6224  0.0919
 3105TIP3   OH230729   2.947   3.169  12.895  0.2228 -0.5010 -0.1147
 3105TIP3    H130730   2.931   3.240  12.833 -0.5286 -0.7900 -0.2608
 3105TIP3    H230731   2.880   3.180  12.962  0.2577 -0.9266 -0.0084
 3106TIP3   OH230732   3.018   0.133  17.002  0.4638  0.2182 -0.4528
 3106TIP3    H130733   3.026   0.043  16.970  0.9663  0.4143 -0.8902
 3106TIP3    H230734   3.064   0.186  16.937 -1.5943  1.0578 -1.2987
 3107TIP3   OH230735   2.369   6.457  15.027  0.4416 -0.2889  0.2729
 3107TIP3    H130736   2.457   6.466  14.989 -0.5277 -0.5477 -2.2700
 3107TIP3    H230737   2.368   6.370  15.065  1.1249 -0.5199 -0.2010
 3108TIP3   OH230738   2.643   5.430  10.925 -1.1102  0.3793 -0.6185
 3108TIP3    H130739   2.676   5.387  10.847 -0.6024 -1.3994  0.5089
 3108TIP3    H230740   2.561   5.470  10.898 -1.4379 -1.0203 -1.8342
 3109TIP3   OH230741   2.567   5.821   2.841  0.2566 -0.0383 -0.0805
 3109TIP3    H130742   2.579   5.828   2.746  2.8439  2.2375  0.2856
 3109TIP3    H230743   2.656   5.822   2.876 -0.6594  1.6276  2.4957
 3110TIP3   OH230744   0.058   1.800  15.956  0.2804  0.7402  0.4951
 3110TIP3    H130745  -0.016   1.858  15.974 -0.6309 -0.2293 -0.0075
 3110TIP3    H230746   0.104   1.841  15.882 -0.2014  0.9685  0.3209
 3111TIP3   OH230747   3.260   6.574   2.731  0.0871  0.0929  0.7929
 3111TIP3    H130748   3.216   6.545   2.651  2.0705  0.4160 -0.4971
 3111TIP3    H230749   3.313   6.499   2.757  0.0538  0.2616  1.3644
 3112TIP3   OH230750   4.150   4.197  11.075  0.3524  0.1261  0.1282
 3112TIP3    H130751   4.243   4.217  11.080  1.0367 -2.6312 -0.1281
 3112TIP3    H230752   4.108   4.282  11.056  2.9447  1.1510 -1.5007
 3113TIP3   OH230753   6.255   4.639   6.970  1.0793  0.3293 -0.0843
 3113TIP3    H130754   6.326   4.681   6.921 -0.3696  0.6512 -2.0598
 3113TIP3    H230755   6.253   4.549   6.936  0.8787  0.1667  0.3496
 3114TIP3   OH230756   3.587   2.483   5.890  0.1874 -0.1313 -0.0451
 3114TIP3    H130757   3.584   2.390   5.911  0.8137 -0.1104  0.1591
 3114TIP3    H230758   3.497   2.513   5.901  0.1570 -0.5161  0.8046
 3115TIP3   OH230759   3.963   1.134  13.350 -0.3166  0.4109  0.0146
 3115TIP3    H130760   3.896   1.066  13.358 -0.6243  0.5232 -1.4826
 3115TIP3    H230761   3.918   1.215  13.376 -0.9065  0.5575 -1.4107
 3116TIP3   OH230762   0.602   3.057   1.497  0.2887 -0.2191  0.1333
 3116TIP3    H130763   0.615   3.008   1.578  0.9487 -0.2041  0.0412
 3116TIP3    H230764   0.663   3.130   1.504 -1.0934  0.9522  0.5440
 3117TIP3   OH230765   0.043   3.321  17.119  0.1344 -0.0466  0.1409
 3117TIP3    H130766   0.028   3.395  17.177 -1.3615 -1.5000  1.7389
 3117TIP3    H230767   0.108   3.267  17.164 -1.6934 -1.6444  1.0478
 3118TIP3   OH230768   6.443   6.435   3.632  0.1523 -0.0408  0.2331
 3118TIP3    H130769   6.446   6.433   3.536  0.3285  1.2394  0.1937
 3118TIP3    H230770   6.368   6.380   3.655 -0.8192  0.8235 -0.7188
 3119TIP3   OH230771   4.494   4.485  13.861 -0.2366 -0.0050  0.4748
 3119TIP3    H130772   4.582   4.477  13.898 -0.7018  0.0052  1.5978
 3119TIP3    H230773   4.476   4.399  13.823  0.0226 -0.1894  0.7717
 3120TIP3   OH230774   1.128   3.268   4.631 -0.5889  0.4535  0.3646
 3120TIP3    H130775   1.126   3.320   4.712 -2.1768  1.2164 -0.1206
 3120TIP3    H230776   1.155   3.181   4.660 -1.1524  0.6956  1.7386
 3121TIP3   OH230777   6.628   1.119   5.612  0.2213 -0.0038  0.2177
 3121TIP3    H130778   6.587   1.167   5.685  0.3166  0.3642  0.0315
 3121TIP3    H230779   6.561   1.056   5.586  0.6068 -0.9148  1.3593
 3122TIP3   OH230780   6.182   5.663   5.030 -0.4161  0.0675 -0.1752
 3122TIP3    H130781   6.163   5.590   4.972 -0.3586 -0.6510  0.6950
 3122TIP3    H230782   6.209   5.623   5.112 -0.5098  1.0629  0.3609
 3123TIP3   OH230783   1.292   4.324   3.659 -0.2622 -1.0673 -0.2181
 3123TIP3    H130784   1.199   4.317   3.635 -0.1342 -1.1580 -0.7074
 3123TIP3    H230785   1.308   4.251   3.717 -1.1247  0.3951  1.9875
 3124TIP3   OH230786   3.922   3.778   3.184  0.5268 -0.3918  0.5962
 3124TIP3    H130787   3.997   3.795   3.242 -0.4754  2.8588  1.1366
 3124TIP3    H230788   3.846   3.797   3.238 -0.6086 -1.0409 -0.7360
 3125TIP3   OH230789   2.880   5.168   2.742 -0.0834  0.2042 -0.0230
 3125TIP3    H130790   2.878   5.111   2.665 -0.1662 -1.5658  1.2544
 3125TIP3    H230791   2.960   5.144   2.788  0.9620  2.5550 -0.4468
 3126TIP3   OH230792   6.183   3.881   3.502 -0.7030  0.1973  0.3576
 3126TIP3    H130793   6.273   3.855   3.480 -1.5281 -1.8092 -1.0255
 3126TIP3    H230794   6.129   3.827   3.444 -2.7886  2.0280  0.4952
 3127TIP3   OH230795   0.288   1.463   3.938  0.4755 -0.4503  0.1025
 3127TIP3    H130796   0.207   1.414   3.922  1.4132 -2.0535  0.0949
 3127TIP3    H230797   0.358   1.398   3.931  1.7411  0.7867  0.6694
 3128TIP3   OH230798   3.706   1.980   4.401 -0.3638 -0.1612  0.2805
 3128TIP3    H130799   3.752   1.989   4.485  0.1600 -1.9076  0.2175
 3128TIP3    H230800   3.690   1.886   4.393  0.7199 -0.1988 -2.1518
 3129TIP3   OH230801   2.114   3.968  15.487 -0.3846  0.0161  0.4737
 3129TIP3    H130802   2.050   4.027  15.528 -1.6196 -1.3349  0.5659
 3129TIP3    H230803   2.131   4.008  15.402  1.7679  2.5379  1.9571
 3130TIP3   OH230804   2.933   4.495   3.733  0.2116  0.1334  0.3001
 3130TIP3    H130805   2.899   4.584   3.732 -1.8045 -0.5784 -1.5807
 3130TIP3    H230806   3.019   4.501   3.691  1.0250  1.4305  2.0179
 3131TIP3   OH230807   5.364   4.668  14.597 -0.0506 -0.4050  0.3286
 3131TIP3    H130808   5.327   4.592  14.641  1.6264 -1.2480  0.3885
 3131TIP3    H230809   5.290   4.710  14.555 -1.2691 -1.1700  1.6079
 3132TIP3   OH230810   4.306   5.957  15.490 -0.0103 -0.2614 -0.3089
 3132TIP3    H130811   4.280   6.028  15.431 -0.2651 -2.3165 -2.7934
 3132TIP3    H230812   4.225   5.930  15.532  0.0721  0.7804  0.5834
 3133TIP3   OH230813   1.803   3.964   2.906 -0.5041  0.4599 -0.2521
 3133TIP3    H130814   1.875   4.026   2.915 -1.5694  1.5521  1.2596
 3133TIP3    H230815   1.836   3.884   2.948 -1.1905  1.9236  3.4323
 3134TIP3   OH230816   3.402   0.618  14.296 -0.0796 -0.5597  0.0607
 3134TIP3    H130817   3.444   0.598  14.212  0.0358 -0.4685  0.0967
 3134TIP3    H230818   3.475   0.641  14.354 -0.3298  1.5874 -0.4118
 3135TIP3   OH230819   4.799   5.866  12.441  0.3751 -0.0521  0.5038
 3135TIP3    H130820   4.753   5.894  12.362  1.4301  2.0969  0.6061
 3135TIP3    H230821   4.783   5.935  12.505  1.9370 -0.3164  1.2347
 3136TIP3   OH230822   4.838   3.011   2.628 -0.0205 -0.3892 -0.4783
 3136TIP3    H130823   4.930   3.031   2.641  0.0241 -0.6497 -0.3840
 3136TIP3    H230824   4.792   3.093   2.645  0.0535 -0.6577  1.0872
 3137TIP3   OH230825   0.521   2.899  11.066  0.2964  0.0814 -0.1824
 3137TIP3    H130826   0.490   2.873  10.979 -1.2898 -0.2222  0.4402
 3137TIP3    H230827   0.588   2.834  11.088 -0.9965 -1.3414 -0.2118
 3138TIP3   OH230828   3.719   5.970   0.566  0.5115  0.2475  0.1211
 3138TIP3    H130829   3.644   5.947   0.510 -0.5987  0.1425  1.5820
 3138TIP3    H230830   3.701   6.060   0.594 -1.3481 -1.0878  3.8130
 3139TIP3   OH230831   0.831   0.552  14.143 -0.5828 -0.1871  0.6071
 3139TIP3    H130832   0.851   0.637  14.105 -1.5279 -0.2728 -0.1376
 3139TIP3    H230833   0.888   0.491  14.097 -1.3046 -0.2091 -0.2878
 3140TIP3   OH230834   4.658   3.785  16.572  0.2211 -0.3112 -0.5152
 3140TIP3    H130835   4.656   3.750  16.661 -1.8557 -1.1496 -0.8247
 3140TIP3    H230836   4.684   3.710  16.517 -1.1106 -0.5666 -0.8453
 3141TIP3   OH230837   3.039   6.572   2.243  0.8616  0.4950 -0.0860
 3141TIP3    H130838   2.979   6.591   2.170  1.2946  1.7937 -0.1377
 3141TIP3    H230839   3.113   6.527   2.201  0.3999 -0.1723 -0.1908
 3142TIP3   OH230840   3.916   2.744  13.344 -0.6031  0.1712  0.3304
 3142TIP3    H130841   3.893   2.659  13.383 -1.1052 -0.5678 -1.4569
 3142TIP3    H230842   3.869   2.745  13.260  1.9710  0.7590 -1.2192
 3143TIP3   OH230843   6.573   4.848   0.817  0.5298 -0.1140 -0.6218
 3143TIP3    H130844   6.630   4.824   0.890 -0.7188 -2.6421 -0.3667
 3143TIP3    H230845   6.622   4.915   0.770  1.7815  0.9597  1.9760
 3144TIP3   OH230846   3.826   0.253  16.272  0.4634 -0.3313 -0.2655
 3144TIP3    H130847   3.819   0.296  16.357  0.3100  1.4892 -1.1465
 3144TIP3    H230848   3.736   0.231  16.248  0.1097  1.8786 -1.2294
 3145TIP3   OH230849   4.188   0.167  11.274 -0.0311  0.3485 -0.6016
 3145TIP3    H130850   4.099   0.161  11.310 -1.2943  0.1182 -3.4217
 3145TIP3    H230851   4.237   0.099  11.320 -1.5618 -0.1461  0.3998
 3146TIP3   OH230852   4.940   3.096  16.807 -0.6655  0.2499  0.4172
 3146TIP3    H130853   4.850   3.128  16.799 -1.0810 -0.3875  2.0416
 3146TIP3    H230854   4.933   3.023  16.868  0.9051 -0.0968  0.2137
 3147TIP3   OH230855   1.572   4.323  15.008 -0.9421 -0.0170  0.4609
 3147TIP3    H130856   1.612   4.254  15.061  0.7164  0.5503  0.0199
 3147TIP3    H230857   1.510   4.277  14.952  0.2888 -1.2212  0.0124
 3148TIP3   OH230858   3.497   2.425  15.955 -0.2407  0.1955 -0.5768
 3148TIP3    H130859   3.458   2.343  15.983 -2.0794  1.4157  0.6548
 3148TIP3    H230860   3.505   2.417  15.860  0.5659 -1.7667 -0.3703
 3149TIP3   OH230861   6.548   6.210  12.788 -0.2191  0.8309 -0.2841
 3149TIP3    H130862   6.513   6.194  12.876  0.5941 -1.2265 -0.2654
 3149TIP3    H230863   6.491   6.277  12.751 -1.1034  1.1230  1.4993
 3150TIP3   OH230864   0.126   2.291  12.210  0.3335 -0.1894 -0.1952
 3150TIP3    H130865   0.135   2.228  12.282 -0.7701 -1.2950 -0.9840
 3150TIP3    H230866   0.216   2.316  12.189  0.7490 -0.8697  0.6753
 3151TIP3   OH230867   6.722   1.836   1.647  0.0035 -0.0042  0.5274
 3151TIP3    H130868   6.721   1.744   1.674  0.7392 -0.0297  0.4860
 3151TIP3    H230869   6.688   1.835   1.557 -0.5605 -0.1572  0.7378
 3152TIP3   OH230870   0.944   3.254  13.400  0.2442  0.2345 -0.1352
 3152TIP3    H130871   0.974   3.228  13.487 -0.2877  0.4709  0.1211
 3152TIP3    H230872   0.995   3.332  13.380  0.2568  0.2699  0.0312
 3153TIP3   OH230873   1.742   2.075  16.776  0.3329  0.4394 -0.0010
 3153TIP3    H130874   1.680   2.011  16.812  0.8489 -2.0581 -3.0770
 3153TIP3    H230875   1.707   2.095  16.689  2.9466  0.1924 -1.1997
 3154TIP3   OH230876   1.782   0.890   5.336  0.3314  0.1450  0.0472
 3154TIP3    H130877   1.850   0.860   5.396  0.7614 -0.0530 -0.5199
 3154TIP3    H230878   1.830   0.942   5.270  0.0128 -0.4238 -0.6429
 3155TIP3   OH230879   0.958   4.989   1.611 -0.5903  0.0334 -0.0542
 3155TIP3    H130880   0.903   5.067   1.612 -0.6304  0.0045 -0.0045
 3155TIP3    H230881   1.002   4.989   1.696 -0.2365  0.2541 -0.2355
 3156TIP3   OH230882   1.359   1.432   2.810  0.1095  0.0147  0.8381
 3156TIP3    H130883   1.426   1.459   2.749 -0.6276 -0.2485 -0.1176
 3156TIP3    H230884   1.312   1.512   2.833 -0.2463 -0.0173  0.2556
 3157TIP3   OH230885   4.441   0.701   1.589 -0.0324 -0.1199  0.1211
 3157TIP3    H130886   4.531   0.727   1.569 -1.0701  2.8212 -1.5060
 3157TIP3    H230887   4.448   0.638   1.660  3.2995 -0.2895 -0.2205
 3158TIP3   OH230888   5.864   3.340  12.171 -0.0953 -0.1850  0.1470
 3158TIP3    H130889   5.860   3.349  12.267 -0.0344  2.1194 -0.0262
 3158TIP3    H230890   5.956   3.323  12.153  0.7379  3.3981  0.3101
 3159TIP3   OH230891   3.329   5.823  12.951 -0.3240  0.4817 -0.0627
 3159TIP3    H130892   3.280   5.783  12.879 -1.5462 -0.9361  1.4649
 3159TIP3    H230893   3.269   5.889  12.987 -0.0064  0.6855  0.0985
 3160TIP3   OH230894   2.568   5.956   0.711 -0.2492 -0.6401  0.4599
 3160TIP3    H130895   2.567   5.991   0.622  0.0750 -1.2293  0.2217
 3160TIP3    H230896   2.557   5.861   0.700  1.3385 -0.9127  0.9427
 3161TIP3   OH230897   4.424   4.707   5.627 -0.0019  0.4348  0.3093
 3161TIP3    H130898   4.398   4.650   5.699 -0.1752  1.7531  1.3449
 3161TIP3    H230899   4.467   4.782   5.670  0.1363  1.1280 -0.9735
 3162TIP3   OH230900   4.935   3.102  12.170  0.3111  0.5689  0.0676
 3162TIP3    H130901   4.907   3.109  12.261 -0.0459 -2.0351  0.2449
 3162TIP3    H230902   4.882   3.030  12.135  2.1167 -0.0616 -1.4987
 3163TIP3   OH230903   3.383   0.665   2.583 -0.2808  0.0811  0.1719
 3163TIP3    H130904   3.451   0.691   2.645 -0.4142  1.6818 -0.2991
 3163TIP3    H230905   3.387   0.732   2.514 -1.8468 -0.1951 -0.2258
 3164TIP3   OH230906   3.170   1.289   2.806 -0.0552  0.4023  0.3570
 3164TIP3    H130907   3.216   1.336   2.875  1.0422 -0.4870  0.2524
 3164TIP3    H230908   3.190   1.197   2.821 -0.5905  0.1134 -0.5749
 3165TIP3   OH230909   4.266   1.844  12.943 -0.3907 -0.2546  0.2050
 3165TIP3    H130910   4.313   1.773  12.900 -2.2061 -0.4438 -1.6328
 3165TIP3    H230911   4.212   1.882  12.873 -0.9722  1.6311  1.6071
 3166TIP3   OH230912   1.729   2.602   4.678 -0.3470 -0.2061 -0.3717
 3166TIP3    H130913   1.635   2.614   4.691 -0.0751  0.7200  0.8481
 3166TIP3    H230914   1.737   2.515   4.638 -1.6927 -0.4303 -0.1769
 3167TIP3   OH230915   5.311   4.144   4.877  0.6361 -0.3683 -0.1344
 3167TIP3    H130916   5.235   4.096   4.910  0.5794 -1.1567 -1.3796
 3167TIP3    H230917   5.303   4.140   4.782  1.8274  0.2065 -0.2774
 3168TIP3   OH230918   5.480   6.734   1.764  0.1364 -0.1552  0.0283
 3168TIP3    H130919   5.500   6.753   1.855  0.5033  0.0631 -0.0965
 3168TIP3    H230920   5.412   6.667   1.768  1.1602 -1.2048  0.4676
 3169TIP3   OH230921   3.166   4.079  16.589 -0.7450 -0.3285  0.1640
 3169TIP3    H130922   3.206   4.121  16.514 -0.4574 -0.1359  0.4217
 3169TIP3    H230923   3.073   4.070  16.566 -0.4007 -1.6332 -0.8219
 3170TIP3   OH230924   0.118   2.790   5.615 -0.0343  0.5642 -0.3320
 3170TIP3    H130925   0.177   2.734   5.665  0.8002  0.1496 -1.7272
 3170TIP3    H230926   0.176   2.842   5.560 -0.9713 -0.0853 -1.9804
 3171TIP3   OH230927   4.036   1.210   4.736 -0.6642 -0.1108 -0.1859
 3171TIP3    H130928   4.071   1.264   4.807 -2.9668 -0.6162  1.4316
 3171TIP3    H230929   4.009   1.273   4.669 -0.1222  0.5054  0.1660
 3172TIP3   OH230930   4.763   0.438   0.592  0.7587 -0.2135 -0.0834
 3172TIP3    H130931   4.810   0.512   0.554 -0.6699  1.7756  1.7592
 3172TIP3    H230932   4.687   0.425   0.535  0.6940  0.1245 -0.0708
 3173TIP3   OH230933   6.415   2.677   0.611  0.4187 -0.1643 -0.5853
 3173TIP3    H130934   6.438   2.673   0.518  1.3204  0.5378 -0.4109
 3173TIP3    H230935   6.497   2.700   0.655 -0.1055  0.0139  0.3294
 3174TIP3   OH230936   3.368   1.507  16.057  0.1494  0.6192 -0.0983
 3174TIP3    H130937   3.296   1.540  16.111 -0.7353  0.3911 -1.0954
 3174TIP3    H230938   3.437   1.485  16.119 -0.2726  1.7559  0.8052
 3175TIP3   OH230939   5.827   4.367  17.126  0.1085  0.2853  0.2790
 3175TIP3    H130940   5.738   4.361  17.160  0.6517 -0.1677  1.7270
 3175TIP3    H230941   5.819   4.350  17.033 -1.2887  0.0551  0.4208
 3176TIP3   OH230942   0.892   0.869   1.767 -0.0616  0.3096  0.2554
 3176TIP3    H130943   0.972   0.887   1.815 -0.4039  2.5680  0.0883
 3176TIP3    H230944   0.822   0.896   1.826 -0.6510 -0.4426 -0.0838
 3177TIP3   OH230945   0.564   3.552   4.615  0.1274 -0.0395  0.2997
 3177TIP3    H130946   0.479   3.566   4.573  0.8303 -1.1022 -1.6077
 3177TIP3    H230947   0.624   3.534   4.543  1.4512 -1.9298  1.7598
 3178TIP3   OH230948   1.120   5.870   2.767  0.2281 -0.4867 -0.0606
 3178TIP3    H130949   1.059   5.884   2.695 -0.6774  0.1823  0.8051
 3178TIP3    H230950   1.125   5.955   2.811  1.4973 -0.6296  0.1213
 3179TIP3   OH230951   4.661   3.100   5.306  0.0291 -0.1423 -0.5101
 3179TIP3    H130952   4.730   3.166   5.313 -0.1997 -0.0098  0.6318
 3179TIP3    H230953   4.610   3.126   5.229  1.3693 -0.3673 -1.5257
 3180TIP3   OH230954   6.519   0.094   3.165 -0.1950  0.4306 -1.5307
 3180TIP3    H130955   6.438   0.052   3.192  0.2148  0.3756 -0.3655
 3180TIP3    H230956   6.580   0.022   3.150  0.4106  0.5515  0.1570
 3181TIP3   OH230957   0.492   5.480  12.897  0.0967  0.2796 -0.2969
 3181TIP3    H130958   0.562   5.417  12.915  0.1805  0.6858  0.9423
 3181TIP3    H230959   0.423   5.428  12.855  0.1645 -0.6562  0.6934
 3182TIP3   OH230960   5.857   4.112  15.472  0.2969 -0.0139  0.0434
 3182TIP3    H130961   5.842   4.101  15.566 -0.7520  0.9492  0.0175
 3182TIP3    H230962   5.871   4.023  15.440  0.5679 -0.3720  1.0825
 3183TIP3   OH230963   5.320   3.527  17.135 -0.8677 -0.4213 -0.4580
 3183TIP3    H130964   5.363   3.562  17.057  0.6130 -1.1571 -0.0038
 3183TIP3    H230965   5.334   3.432  17.129 -0.2748 -0.4365  0.9673
 3184TIP3   OH230966   3.252   6.253  16.664  0.9745  0.1071  0.4799
 3184TIP3    H130967   3.232   6.338  16.624  0.4557  1.2910  3.0469
 3184TIP3    H230968   3.176   6.198  16.643  1.3130  0.2442 -1.2017
 3185TIP3   OH230969   4.770   0.410   2.873  0.0459 -0.3141 -0.0143
 3185TIP3    H130970   4.848   0.390   2.926 -0.6750  1.0841  1.6857
 3185TIP3    H230971   4.804   0.459   2.799  0.8400 -0.0814  0.4824
 3186TIP3   OH230972   4.576   0.779   2.555 -0.8135  0.1981 -0.1530
 3186TIP3    H130973   4.633   0.736   2.491  1.9959 -1.3483  3.0479
 3186TIP3    H230974   4.502   0.719   2.565  1.2369 -2.2741  1.5413
 3187TIP3   OH230975   0.142   1.703  16.883  0.3297  0.3839 -0.4066
 3187TIP3    H130976   0.112   1.767  16.818  0.4914 -0.6649 -1.5365
 3187TIP3    H230977   0.163   1.625  16.832 -0.0946 -0.6634  0.9893
 3188TIP3   OH230978   2.051   2.521   3.536  0.3884  0.1027 -0.1632
 3188TIP3    H130979   2.044   2.521   3.441  0.8998  1.5823 -0.2278
 3188TIP3    H230980   2.010   2.603   3.563  0.2436 -0.3040  0.8973
 3189TIP3   OH230981   0.955   0.250  11.631 -0.1133 -0.0109  0.3996
 3189TIP3    H130982   0.969   0.310  11.705 -1.0519  1.5346 -0.6295
 3189TIP3    H230983   0.889   0.293  11.578 -1.5159 -2.4315  0.0743
 3190TIP3   OH230984   0.415   5.893   2.687  0.4774 -0.2515  0.1505
 3190TIP3    H130985   0.430   5.799   2.691  0.9617 -0.1898 -0.0882
 3190TIP3    H230986   0.374   5.908   2.602 -0.2120 -0.3207  0.4622
 3191TIP3   OH230987   1.976   0.418   0.995 -0.2946  0.0201 -0.3440
 3191TIP3    H130988   2.015   0.332   0.982 -0.3100  0.0061 -0.2988
 3191TIP3    H230989   1.985   0.434   1.089 -2.5300 -1.0373  0.1258
 3192TIP3   OH230990   5.125   5.468   3.445 -0.0636  0.3555  0.2091
 3192TIP3    H130991   5.147   5.461   3.352 -0.8391 -0.8232  0.0839
 3192TIP3    H230992   5.040   5.425   3.452  0.7743 -1.1679  1.7464
 3193TIP3   OH230993   2.020   1.432  13.900  0.7261  0.1695  0.1682
 3193TIP3    H130994   1.947   1.389  13.855  1.2579  2.0451 -2.7196
 3193TIP3    H230995   1.978   1.494  13.960  0.0043 -1.8196  1.8241
 3194TIP3   OH230996   6.650   0.767   2.831 -0.0469 -0.2472  0.0495
 3194TIP3    H130997   6.576   0.707   2.822 -1.3437  1.0862  1.2067
 3194TIP3    H230998   6.609   0.854   2.833  1.5485  0.5130  0.8045
 3195TIP3   OH230999   3.412   3.621   5.172 -0.1632 -0.1516 -0.2903
 3195TIP3    H131000   3.392   3.576   5.254 -2.4003  0.0552 -0.6841
 3195TIP3    H231001   3.487   3.676   5.194  0.4068 -1.3978  1.1327
 3196TIP3   OH231002   6.554   6.701  12.943  0.1802 -0.6323 -0.2849
 3196TIP3    H131003   6.500   6.780  12.935 -1.3004 -1.5409  0.2453
 3196TIP3    H231004   6.599   6.695  12.859  0.1881  0.6647 -0.4023
 3197TIP3   OH231005   4.944   5.047  12.523 -0.0359  0.5694 -0.3847
 3197TIP3    H131006   5.031   5.023  12.554  0.1523  0.6893 -0.8070
 3197TIP3    H231007   4.891   4.969  12.536  0.0620  0.5919  0.1501
 3198TIP3   OH231008   6.465   0.345  14.652  0.5057  0.2403 -0.0134
 3198TIP3    H131009   6.429   0.298  14.727  0.9729  0.8888  0.6367
 3198TIP3    H231010   6.483   0.433  14.685  1.2215  0.3829 -0.7385
 3199TIP3   OH231011   1.601   6.530  16.097  0.4415  0.1105  0.3788
 3199TIP3    H131012   1.675   6.580  16.133  1.1025  0.0648 -0.8620
 3199TIP3    H231013   1.598   6.554  16.005 -0.8106 -0.2594  0.3041
 3200TIP3   OH231014   0.217   6.033  15.514 -0.2796  0.1623 -0.1454
 3200TIP3    H131015   0.122   6.032  15.526 -0.2642 -1.7693  0.1629
 3200TIP3    H231016   0.247   6.110  15.563 -1.6310  0.4727  0.2226
 3201TIP3   OH231017   0.536   2.381   1.441  0.2042  0.0065  0.1713
 3201TIP3    H131018   0.589   2.374   1.520  0.6500  1.0514 -0.0123
 3201TIP3    H231019   0.599   2.385   1.369 -0.0930  1.3144 -0.0457
 3202TIP3   OH231020   4.571   2.557   5.286 -0.4000  0.0649  0.1342
 3202TIP3    H131021   4.537   2.488   5.343 -0.9348  0.0203 -0.2324
 3202TIP3    H231022   4.495   2.614   5.269 -0.9847 -1.4036 -2.7218
 3203TIP3   OH231023   1.223   3.048  10.929  0.6378 -0.6711 -0.3097
 3203TIP3    H131024   1.162   3.005  10.870  0.1892 -0.4738  0.0101
 3203TIP3    H231025   1.308   3.042  10.884  0.2720 -0.3570 -1.0596
 3204TIP3   OH231026   5.167   4.930   2.170  0.3918  0.1476 -0.2454
 3204TIP3    H131027   5.152   5.011   2.218  0.3168  0.1191 -0.2204
 3204TIP3    H231028   5.261   4.930   2.151  0.0949  1.2110 -1.9849
 3205TIP3   OH231029   3.119   0.713   4.568  0.5068  0.2999 -0.3482
 3205TIP3    H131030   3.158   0.789   4.526 -1.8232  2.6819  1.4909
 3205TIP3    H231031   3.154   0.714   4.658  0.0871 -0.5336 -0.1625
 3206TIP3   OH231032   4.388   0.859   0.750 -0.0707  0.4748  0.5640
 3206TIP3    H131033   4.447   0.827   0.818 -1.3441  0.5041  1.7413
 3206TIP3    H231034   4.331   0.785   0.731  1.1373  0.0087 -1.5476
 3207TIP3   OH231035   0.529   3.691   3.986 -0.2917 -0.5188 -0.8474
 3207TIP3    H131036   0.573   3.608   4.008  0.4901  0.0554 -0.1705
 3207TIP3    H231037   0.601   3.753   3.975 -0.9333  0.5965  0.8944
 3208TIP3   OH231038   3.311   0.013  12.839  0.4330 -0.4551  0.0089
 3208TIP3    H131039   3.396   0.055  12.826  0.7878 -0.5492  1.8411
 3208TIP3    H231040   3.249   0.085  12.848  1.0699 -0.1777  3.3523
 3209TIP3   OH231041   5.026   5.164   5.062  0.1503  0.2626  0.5448
 3209TIP3    H131042   4.931   5.159   5.071  0.0226  0.7278 -0.4364
 3209TIP3    H231043   5.047   5.256   5.080  0.7530 -0.3481  3.4473
 3210TIP3   OH231044   5.809   1.611   4.477 -0.2451 -0.1458  0.4164
 3210TIP3    H131045   5.790   1.675   4.408  1.4213 -1.1367 -1.0613
 3210TIP3    H231046   5.904   1.601   4.474 -0.2690 -1.1715  2.0317
 3211TIP3   OH231047   2.161   5.945  13.943  0.6695  0.1485  0.1088
 3211TIP3    H131048   2.110   6.024  13.927 -0.8851 -1.3099 -2.8070
 3211TIP3    H231049   2.197   5.957  14.031 -0.4848  3.5160  0.2413
 3212TIP3   OH231050   3.961   5.653   0.183 -0.0618 -0.1151 -0.2273
 3212TIP3    H131051   4.004   5.703   0.252 -0.7892 -0.1405  0.2540
 3212TIP3    H231052   3.975   5.705   0.104  2.2127 -0.8755 -0.4240
 3213TIP3   OH231053   3.617   0.329  14.440  0.4410 -0.1883 -0.0400
 3213TIP3    H131054   3.687   0.305  14.501  0.7756 -0.4377 -0.5212
 3213TIP3    H231055   3.662   0.352  14.359  0.1734  2.1843  0.3951
 3214TIP3   OH231056   3.178   0.725   5.573 -0.1630  0.5269  0.1947
 3214TIP3    H131057   3.092   0.733   5.615  0.0480 -2.5359  1.4495
 3214TIP3    H231058   3.159   0.731   5.480 -1.5031  1.3800  0.4772
 3215TIP3   OH231059   3.117   2.664   1.442  0.6186  0.0320 -0.7944
 3215TIP3    H131060   3.153   2.588   1.396  1.3644 -0.0276 -0.1292
 3215TIP3    H231061   3.194   2.713   1.471  0.1647  0.1566  0.2343
 3216TIP3   OH231062   3.518   6.489  11.900  0.0044 -0.0645  0.1569
 3216TIP3    H131063   3.476   6.569  11.869  0.0792  0.3328  1.0493
 3216TIP3    H231064   3.612   6.505  11.889  0.0237  0.0113  0.4214
 3217TIP3   OH231065   4.577   5.732  15.190 -0.2944 -0.6183 -0.1291
 3217TIP3    H131066   4.591   5.639  15.177 -1.9790 -0.7898 -0.9623
 3217TIP3    H231067   4.651   5.774  15.145  1.2466 -1.5219  1.4287
 3218TIP3   OH231068   1.061   5.351   4.700  0.5535 -0.5953  0.0068
 3218TIP3    H131069   1.051   5.441   4.733 -0.0341 -0.2533 -1.0345
 3218TIP3    H231070   1.018   5.297   4.766 -2.6563  0.2813 -1.1731
 3219TIP3   OH231071   5.015   6.249   4.849  0.1525  0.1962  0.4132
 3219TIP3    H131072   4.978   6.237   4.936  1.2843 -0.7075  0.7942
 3219TIP3    H231073   5.110   6.240   4.861  0.3426  0.2338 -0.8779
 3220TIP3   OH231074   2.749   3.748  16.758  0.0715  0.3888 -0.1286
 3220TIP3    H131075   2.666   3.793  16.775 -0.0852 -0.1113  0.4856
 3220TIP3    H231076   2.777   3.780  16.672 -1.8347 -1.0323 -1.3439
 3221TIP3   OH231077   5.423   4.481  16.139  0.2506  0.1950 -0.5304
 3221TIP3    H131078   5.328   4.488  16.151  0.1702  0.6934 -1.3528
 3221TIP3    H231079   5.440   4.529  16.058  1.3870  1.2038  0.2829
 3222TIP3   OH231080   1.891   1.934   6.256 -0.1972 -0.4980  0.3622
 3222TIP3    H131081   1.896   1.984   6.337  0.7035 -0.9348  0.5889
 3222TIP3    H231082   1.830   1.863   6.276  0.3991 -0.8913  0.8291
 3223TIP3   OH231083   3.536   4.862  13.707 -0.4321 -0.1509 -0.2766
 3223TIP3    H131084   3.540   4.792  13.772 -0.6725  0.2393  0.1607
 3223TIP3    H231085   3.443   4.866  13.682 -0.1622 -1.1014 -1.5371
 3224TIP3   OH231086   5.685   2.211   5.197  0.1793 -0.6515  0.1128
 3224TIP3    H131087   5.729   2.128   5.210 -0.8740 -1.3772 -0.7706
 3224TIP3    H231088   5.681   2.221   5.102 -0.9723 -0.2934  0.1854
 3225TIP3   OH231089   0.954   5.701  12.496 -0.2414  0.5628 -0.5416
 3225TIP3    H131090   1.013   5.678  12.425  1.6911  0.1433  1.1110
 3225TIP3    H231091   0.971   5.636  12.564 -3.0137  0.0958 -0.1500
 3226TIP3   OH231092   5.162   1.400  14.321 -0.0580  0.2103  0.3210
 3226TIP3    H131093   5.186   1.491  14.337  1.5183  0.2068 -1.7313
 3226TIP3    H231094   5.243   1.356  14.297 -1.1809 -1.1283 -1.3218
 3227TIP3   OH231095   0.373   2.992  15.702  0.0072 -0.1454  0.2525
 3227TIP3    H131096   0.363   3.080  15.666  1.6302 -0.1505 -0.2836
 3227TIP3    H231097   0.300   2.942  15.664 -0.4516  0.7534 -0.0747
 3228TIP3   OH231098   2.048   0.828  10.875 -0.2482 -0.6771  0.0839
 3228TIP3    H131099   2.047   0.847  10.781  1.2561  1.3788  0.4250
 3228TIP3    H231100   2.113   0.758  10.884  0.5152 -0.0341 -0.2995
 3229TIP3   OH231101   2.029   6.096  14.586  0.2584 -0.5240 -0.0208
 3229TIP3    H131102   2.100   6.079  14.648 -0.9410 -0.2812  1.4745
 3229TIP3    H231103   2.031   6.191  14.573 -0.5811 -0.3307  1.0689
 3230TIP3   OH231104   5.759   4.669  16.526  0.4771 -1.0126 -0.1024
 3230TIP3    H131105   5.722   4.750  16.491  0.8968 -0.0110  1.6185
 3230TIP3    H231106   5.687   4.606  16.523 -0.1821 -0.2638 -0.4866
 3231TIP3   OH231107   1.579   6.653  10.715  0.4607  0.0053 -0.3519
 3231TIP3    H131108   1.661   6.664  10.668  1.4941 -2.0990  0.8446
 3231TIP3    H231109   1.566   6.558  10.720 -1.4420  0.2578  0.4965
 3232TIP3   OH231110   3.214   3.443  16.440  0.5701  0.2441  0.1092
 3232TIP3    H131111   3.235   3.446  16.533  0.5920 -0.3519  0.1285
 3232TIP3    H231112   3.298   3.433  16.397  0.6387  1.3500 -0.0318
 3233TIP3   OH231113   6.472   3.032   0.333 -0.3595 -0.0689 -0.5466
 3233TIP3    H131114   6.469   2.946   0.290 -0.6123 -0.2073 -0.2488
 3233TIP3    H231115   6.533   3.083   0.279 -0.8412 -0.1743 -1.2051
 3234TIP3   OH231116   1.600   0.420   5.684  0.0325 -0.2589 -0.1974
 3234TIP3    H131117   1.692   0.395   5.687 -0.2194 -1.3092 -0.6461
 3234TIP3    H231118   1.556   0.353   5.737 -0.4147  0.5318  0.4463
 3235TIP3   OH231119   2.900   3.425   0.262 -0.2445  0.3659 -0.1192
 3235TIP3    H131120   2.947   3.342   0.271 -1.8070 -0.4622  1.1060
 3235TIP3    H231121   2.958   3.491   0.299  0.6748 -0.3157 -0.3297
 3236TIP3   OH231122   6.142   4.974  11.734 -0.3129  0.5878 -0.1558
 3236TIP3    H131123   6.168   5.033  11.804  1.7995 -0.8139  0.3176
 3236TIP3    H231124   6.070   4.923  11.771  0.4450  0.2144  0.8515
 3237TIP3   OH231125   5.018   0.657   1.156  0.1048 -0.0057 -0.3597
 3237TIP3    H131126   4.938   0.671   1.105  0.5747 -0.2244 -1.1775
 3237TIP3    H231127   5.065   0.589   1.108  0.2731 -0.6747  0.7139
 3238TIP3   OH231128   1.351   4.245  13.824  0.1061 -0.8215 -0.5998
 3238TIP3    H131129   1.364   4.202  13.909  0.4073 -0.3365 -0.3960
 3238TIP3    H231130   1.437   4.284  13.804 -0.4935  0.7987 -0.1600
 3239TIP3   OH231131   5.262   3.022   2.468  0.0194 -0.0598 -0.0603
 3239TIP3    H131132   5.350   3.042   2.500  1.3713 -0.2917 -3.2104
 3239TIP3    H231133   5.266   3.044   2.375 -3.0158 -0.9439 -0.4844
 3240TIP3   OH231134   6.669   2.323   0.721  0.1994  0.0663 -0.1198
 3240TIP3    H131135   6.628   2.237   0.728  1.2322 -0.3786  0.6895
 3240TIP3    H231136   6.754   2.307   0.681 -0.0482  0.8789 -1.0214
 3241TIP3   OH231137   5.175   0.494  11.554 -0.2137  0.0698 -0.3282
 3241TIP3    H131138   5.153   0.569  11.609 -0.3028  1.0855 -1.7129
 3241TIP3    H231139   5.173   0.527  11.465 -0.9040 -1.7257 -1.0457
 3242TIP3   OH231140   0.082   0.511   1.044  0.1465  0.2924  0.0427
 3242TIP3    H131141   0.065   0.418   1.059 -0.4745 -0.0519 -2.3155
 3242TIP3    H231142  -0.004   0.552   1.046  0.1685  0.4224 -1.0601
 3243TIP3   OH231143   5.324   5.676   1.256 -0.1601 -0.0750  0.3969
 3243TIP3    H131144   5.347   5.646   1.168 -1.2401 -1.9015  0.6776
 3243TIP3    H231145   5.258   5.744   1.242  1.3257  1.2874 -0.2311
 3244TIP3   OH231146   0.161   6.699  15.391  0.0126 -0.0697  0.2650
 3244TIP3    H131147   0.220   6.730  15.460  0.8886 -1.5352  0.2363
 3244TIP3    H231148   0.218   6.652  15.331 -0.5825  1.9500 -2.0081
 3245TIP3   OH231149   6.674   6.150   5.821 -1.0888 -0.2322 -0.3410
 3245TIP3    H131150   6.652   6.120   5.733  0.8970  0.5392 -1.1497
 3245TIP3    H231151   6.732   6.082   5.856 -3.9153 -1.9299  1.5242
 3246TIP3   OH231152   2.809   0.355  11.452  0.5358  0.4018 -0.0227
 3246TIP3    H131153   2.890   0.352  11.504  1.0015  2.5897 -0.5493
 3246TIP3    H231154   2.838   0.345  11.362  0.2723  1.4937 -0.2423
 3247TIP3   OH231155   2.631   6.640   4.795 -0.6371 -0.2784 -0.3304
 3247TIP3    H131156   2.560   6.603   4.846 -1.3693 -0.7142 -1.6078
 3247TIP3    H231157   2.662   6.567   4.741 -0.8730  0.4975 -1.5622
 3248TIP3   OH231158   3.541   6.630   1.594  0.0772 -0.5111  0.4039
 3248TIP3    H131159   3.546   6.621   1.499 -3.1131  1.1477 -0.0509
 3248TIP3    H231160   3.448   6.639   1.612  0.7043  0.8828  3.5511
 3249TIP3   OH231161   2.697   1.037   2.362 -0.2268  0.2105 -0.0580
 3249TIP3    H131162   2.672   1.129   2.364  0.0011  0.2615  0.5058
 3249TIP3    H231163   2.681   1.010   2.271 -0.4312  0.7624 -0.1903
 3250TIP3   OH231164   0.014   0.611   3.181  0.3803  0.1742 -0.0143
 3250TIP3    H131165  -0.013   0.524   3.153 -0.4366  0.1189  0.8697
 3250TIP3    H231166  -0.063   0.645   3.227  0.7713  1.2692 -0.1496
 3251TIP3   OH231167   4.404   0.830  10.719 -0.1443 -0.4366  0.1389
 3251TIP3    H131168   4.493   0.822  10.755 -0.3335  0.2958  0.7844
 3251TIP3    H231169   4.412   0.896  10.651 -0.4463  0.5829  1.0748
 3252TIP3   OH231170   0.534   0.305  11.561 -0.6604 -0.3894  0.1659
 3252TIP3    H131171   0.621   0.327  11.530 -0.5814  0.4532  0.9258
 3252TIP3    H231172   0.476   0.326  11.488 -0.3801  0.5893  0.2152
 3253TIP3   OH231173   1.968   0.401  11.444  0.2606  0.2874 -0.0312
 3253TIP3    H131174   2.017   0.396  11.362 -2.3429 -1.7805 -1.6360
 3253TIP3    H231175   1.976   0.313  11.481 -2.0341 -0.1145 -0.3365
 3254TIP3   OH231176   5.217   1.260  12.363 -0.4872 -0.6053 -0.2787
 3254TIP3    H131177   5.137   1.241  12.315 -0.6849  0.8908 -0.5853
 3254TIP3    H231178   5.287   1.224  12.308 -0.8172 -0.1915 -0.9794
 3255TIP3   OH231179   2.520   3.958   4.481 -0.2877  0.3752 -0.0843
 3255TIP3    H131180   2.447   3.939   4.541  0.1576  1.5676  0.8905
 3255TIP3    H231181   2.549   4.045   4.507  1.6440 -0.1642 -0.2859
 3256TIP3   OH231182   5.863   3.047   0.755 -0.0684  0.2394  0.2807
 3256TIP3    H131183   5.882   2.969   0.808 -1.1268  0.7558  1.4737
 3256TIP3    H231184   5.935   3.052   0.693  1.3779 -0.2566  1.8508
 3257TIP3   OH231185   0.297   4.992   4.783  0.5496  0.2741 -1.0623
 3257TIP3    H131186   0.390   5.001   4.761  1.4698 -0.7584  1.9563
 3257TIP3    H231187   0.275   4.903   4.756  1.2409 -0.4268  0.5170
 3258TIP3   OH231188   5.025   5.048   1.571  0.4989  0.5427  0.1782
 3258TIP3    H131189   5.082   5.123   1.586  0.4191  0.4461  1.0030
 3258TIP3    H231190   4.952   5.083   1.521  0.2311  1.1165  0.9605
 3259TIP3   OH231191   2.205   3.795   1.134  0.1760  0.5899  0.4861
 3259TIP3    H131192   2.213   3.800   1.039 -2.1075  0.3652  0.2196
 3259TIP3    H231193   2.207   3.886   1.163 -1.0762  0.7953 -0.0146
 3260TIP3   OH231194   4.050   1.769   5.561  0.2047 -0.1016  0.0615
 3260TIP3    H131195   3.957   1.744   5.556  0.7412 -2.1093 -0.8491
 3260TIP3    H231196   4.088   1.708   5.624  0.9790  0.5210  0.2148
 3261TIP3   OH231197   6.128   5.634   2.340  0.3756 -0.6887 -0.0095
 3261TIP3    H131198   6.048   5.658   2.388  1.6262  1.1272  1.2832
 3261TIP3    H231199   6.176   5.716   2.331  1.8955 -1.6630 -1.2006
 3262TIP3   OH231200   1.533   3.282   5.357  0.7382 -0.1387 -0.3081
 3262TIP3    H131201   1.562   3.352   5.416  1.5497  0.1233 -0.9869
 3262TIP3    H231202   1.512   3.209   5.414  0.0271  0.6027  0.4081
 3263TIP3   OH231203   1.682   6.631   3.560 -0.6672  0.0723  0.2314
 3263TIP3    H131204   1.755   6.692   3.552 -1.0470  0.4729 -0.2465
 3263TIP3    H231205   1.619   6.677   3.615 -1.0936  0.2587 -0.3975
 3264TIP3   OH231206   1.878   3.198  11.982 -0.0267 -0.0182  0.7476
 3264TIP3    H131207   1.956   3.241  11.949  0.3711 -1.0284  0.3463
 3264TIP3    H231208   1.837   3.263  12.039  1.2288  0.4435  1.1525
 3265TIP3   OH231209   5.653   5.516   3.097 -0.2407 -0.6194  0.0167
 3265TIP3    H131210   5.650   5.455   3.170  0.1457 -0.6777 -0.0144
 3265TIP3    H231211   5.636   5.602   3.136  2.4173 -0.2790  0.6011
 3266TIP3   OH231212   5.471   6.072  13.878 -0.3857 -0.9080  0.1763
 3266TIP3    H131213   5.517   6.142  13.925 -1.6566  0.3302 -0.3419
 3266TIP3    H231214   5.405   6.041  13.940 -1.4247  0.0641 -0.3975
 3267TIP3   OH231215   3.782   4.469  11.183  0.0953 -0.2117  0.0689
 3267TIP3    H131216   3.777   4.496  11.092 -0.5223  0.3130  0.2478
 3267TIP3    H231217   3.757   4.376  11.181  0.5702 -0.3338 -0.3501
 3268TIP3   OH231218   6.367   1.075   6.829  0.3813  0.2140 -0.1524
 3268TIP3    H131219   6.443   1.124   6.798 -1.1765  0.8155 -3.4907
 3268TIP3    H231220   6.295   1.139   6.829 -0.6153 -0.8580  0.6169
 3269TIP3   OH231221   4.659   6.252   1.667 -0.2224 -0.4057 -0.3221
 3269TIP3    H131222   4.597   6.319   1.637 -0.4478 -1.5102 -2.5341
 3269TIP3    H231223   4.610   6.201   1.731 -1.1756 -0.4439 -1.0621
 3270TIP3   OH231224   2.862   2.706  15.987  0.0892 -0.3393 -0.3684
 3270TIP3    H131225   2.823   2.648  15.922 -0.4174  2.0174 -2.3141
 3270TIP3    H231226   2.931   2.654  16.028 -1.4959 -2.8359 -0.7062
 3271TIP3   OH231227   2.412   2.338   1.860  0.1038 -0.2629 -1.0025
 3271TIP3    H131228   2.462   2.419   1.853 -1.7469  0.9361 -1.0185
 3271TIP3    H231229   2.331   2.364   1.903 -0.0288 -2.3670  0.1434
 3272TIP3   OH231230   5.686   1.939   4.039  0.4447 -0.3947 -0.1772
 3272TIP3    H131231   5.641   1.968   3.960  0.9653  1.1804  0.0765
 3272TIP3    H231232   5.778   1.936   4.015  0.5905 -0.0483  0.3193
 3273TIP3   OH231233   4.276   5.444   0.645  0.4007  0.4310 -0.0742
 3273TIP3    H131234   4.323   5.463   0.564  0.1118 -0.4025 -0.4511
 3273TIP3    H231235   4.242   5.355   0.633 -1.4112  1.0713  0.1283
 3274TIP3   OH231236   4.656   6.442   5.253  0.0437  0.1583  0.2089
 3274TIP3    H131237   4.665   6.443   5.157 -0.9617 -0.3705  0.0884
 3274TIP3    H231238   4.572   6.485   5.268  0.1828  0.2013  0.8554
 3275TIP3   OH231239   2.256   5.624  11.047  0.8649 -0.2671 -0.1327
 3275TIP3    H131240   2.292   5.581  10.969 -0.2427  1.2130 -1.5211
 3275TIP3    H231241   2.289   5.713  11.043 -1.4039  0.6279 -0.4627
 3276TIP3   OH231242   5.057   6.690  11.199  0.0546 -0.3179  0.5423
 3276TIP3    H131243   5.108   6.758  11.155  0.9737 -1.2724  0.1116
 3276TIP3    H231244   5.100   6.608  11.176  0.0948 -0.9257  2.5385
 3277TIP3   OH231245   0.109   6.616  12.917 -0.2349 -0.2032  0.0402
 3277TIP3    H131246   0.041   6.612  12.850 -0.1072 -0.6950 -0.0612
 3277TIP3    H231247   0.156   6.534  12.909 -0.2455 -0.2875  0.7627
 3278TIP3   OH231248   3.317   4.763   2.357 -0.0547  0.1733 -0.8246
 3278TIP3    H131249   3.286   4.714   2.281 -0.5509  1.5224 -1.5287
 3278TIP3    H231250   3.359   4.840   2.321  1.2374  0.0074  0.2470
 3279TIP3   OH231251   5.513   2.617  16.614  0.2580  0.0806  0.3273
 3279TIP3    H131252   5.453   2.661  16.674  0.0545  0.8476 -0.4017
 3279TIP3    H231253   5.462   2.608  16.533  0.1409 -1.9661  0.5995
 3280TIP3   OH231254   2.930   0.127   0.672  0.2485 -0.4762  0.2792
 3280TIP3    H131255   2.850   0.095   0.631  0.0722  1.6113 -1.2263
 3280TIP3    H231256   2.985   0.050   0.683 -2.3118 -2.1577  2.3706
 3281TIP3   OH231257   1.421   6.273  14.676 -0.2000 -0.1343  0.1282
 3281TIP3    H131258   1.346   6.259  14.619 -0.5920 -0.7860  0.7927
 3281TIP3    H231259   1.431   6.191  14.725 -1.0005  0.9742  2.2997
 3282TIP3   OH231260   4.758   0.831   2.238  0.1000  0.0656 -0.5028
 3282TIP3    H131261   4.698   0.766   2.201  0.0134  0.0096 -0.2662
 3282TIP3    H231262   4.825   0.778   2.282  0.2926  0.1289 -0.7166
 3283TIP3   OH231263   6.067   1.931   0.794 -0.4869 -0.0501  0.3906
 3283TIP3    H131264   6.014   1.989   0.739 -0.5161 -1.0224 -0.6463
 3283TIP3    H231265   6.136   1.988   0.829  0.0826  0.4418 -1.4177
 3284TIP3   OH231266   2.931   3.883  12.082 -0.0282  0.4892 -0.6922
 3284TIP3    H131267   3.023   3.858  12.070 -0.2942 -0.2275 -1.3088
 3284TIP3    H231268   2.926   3.913  12.173  1.0085  1.4144 -0.9204
 3285TIP3   OH231269   5.954   1.908   4.468 -0.6751 -0.0760 -0.4014
 3285TIP3    H131270   5.887   1.877   4.408 -0.6320  0.4108 -0.6966
 3285TIP3    H231271   6.010   1.831   4.482 -1.2345 -0.4609 -0.2191
 3286TIP3   OH231272   4.704   3.560  14.084  0.0384  0.2018 -1.1107
 3286TIP3    H131273   4.713   3.649  14.051  1.5447  0.7620  0.6118
 3286TIP3    H231274   4.618   3.559  14.127 -0.0469  0.7826 -1.2601
 3287TIP3   OH231275   3.947   4.997   1.647 -0.3163  0.3473 -0.3357
 3287TIP3    H131276   3.945   5.077   1.595  2.0318 -0.1631 -1.3404
 3287TIP3    H231277   3.984   4.931   1.588 -0.6229 -1.0664  0.9914
 3288TIP3   OH231278   3.664   0.127   0.961 -0.2511  0.5852  0.3641
 3288TIP3    H131279   3.587   0.125   1.017  0.2153  2.4384  1.1709
 3288TIP3    H231280   3.712   0.047   0.982 -1.3480 -0.0024  0.7106
 3289TIP3   OH231281   0.031   0.287  16.249 -0.3848 -0.1579  0.3875
 3289TIP3    H131282   0.077   0.365  16.219 -0.3777 -1.1235 -2.4089
 3289TIP3    H231283   0.005   0.242  16.168 -3.0235 -1.5324  1.8500
 3290TIP3   OH231284   3.610   6.453   4.017  0.2403  0.4664 -0.0775
 3290TIP3    H131285   3.665   6.499   3.954  0.3215  0.4156 -0.0429
 3290TIP3    H231286   3.610   6.362   3.987 -1.1416  0.7473 -1.0322
 3291TIP3   OH231287   1.020   5.828  14.077  0.5652 -1.2072  0.5743
 3291TIP3    H131288   1.044   5.877  14.156  1.4979 -2.4015  1.0541
 3291TIP3    H231289   0.935   5.789  14.098 -0.4266  0.5034  0.0163
 3292TIP3   OH231290   0.093   2.835  14.845  0.5286  0.2366 -0.1334
 3292TIP3    H131291   0.148   2.870  14.774 -0.7147 -0.8934 -1.7464
 3292TIP3    H231292   0.016   2.892  14.845  0.7699  0.5695  0.7129
 3293TIP3   OH231293   5.977   6.719   0.381  0.2958  0.0618  0.1469
 3293TIP3    H131294   5.947   6.699   0.293  0.6764 -1.3426  0.3111
 3293TIP3    H231295   6.033   6.796   0.371 -0.1491  0.2758 -0.7383
 3294TIP3   OH231296   2.390   6.490   5.714  0.3058  0.0465  0.1343
 3294TIP3    H131297   2.366   6.428   5.645  0.1722 -1.9306  1.8502
 3294TIP3    H231298   2.308   6.506   5.761  0.3883  1.3981 -0.1570
 3295TIP3   OH231299   1.318   3.313   3.162 -0.5828 -0.0092 -0.0772
 3295TIP3    H131300   1.307   3.377   3.091 -1.1171  0.1692  0.1525
 3295TIP3    H231301   1.333   3.367   3.240  0.3516 -0.2159 -0.1072
 3296TIP3   OH231302   2.458   4.653   3.660 -0.2722 -0.2391  0.2340
 3296TIP3    H131303   2.446   4.724   3.597 -0.7556 -1.3730 -1.0060
 3296TIP3    H231304   2.474   4.697   3.743 -0.2056  1.3122 -0.5610
 3297TIP3   OH231305   1.964   5.342   4.955 -0.3013 -0.7651  0.4833
 3297TIP3    H131306   2.042   5.361   5.006 -1.5767  2.0038  1.6383
 3297TIP3    H231307   1.900   5.312   5.020 -0.7162 -1.3265 -0.1741
 3298TIP3   OH231308   3.706   5.133  13.743  0.2537 -0.5407 -0.1994
 3298TIP3    H131309   3.802   5.137  13.747  0.2061  1.0717  2.5877
 3298TIP3    H231310   3.684   5.162  13.655  2.3373  1.3249 -0.2002
 3299TIP3   OH231311   0.530   1.543   5.187 -0.2497 -0.6179 -0.2258
 3299TIP3    H131312   0.604   1.573   5.134  0.0668  0.3699  0.7259
 3299TIP3    H231313   0.570   1.498   5.261 -0.4156  1.9289  1.5384
 3300TIP3   OH231314   1.979   1.279   3.745 -0.2884 -0.2873 -0.3385
 3300TIP3    H131315   1.949   1.368   3.761  1.2566 -0.1981  2.6908
 3300TIP3    H231316   1.899   1.226   3.748 -0.8721  0.6223  1.4136
 3301TIP3   OH231317   2.498   5.049  14.807 -0.2887  0.1727 -0.2278
 3301TIP3    H131318   2.448   5.041  14.726 -1.0906  1.8381  0.0489
 3301TIP3    H231319   2.548   4.968  14.813 -1.8979 -0.9484 -1.2333
 3302TIP3   OH231320   4.889   1.014  16.157 -0.0140  0.2742 -0.1310
 3302TIP3    H131321   4.820   1.072  16.124 -0.0547  0.1245 -0.3079
 3302TIP3    H231322   4.872   0.930  16.115 -1.9689 -0.8450  2.6076
 3303TIP3   OH231323   2.115   1.807  15.802 -0.6742 -0.3575  0.7512
 3303TIP3    H131324   2.194   1.779  15.756  0.0000  0.4437  1.3828
 3303TIP3    H231325   2.103   1.898  15.775  0.6514  0.6676  3.3011
 3304TIP3   OH231326   6.692   0.544  13.986 -0.0787 -0.3613  0.2448
 3304TIP3    H131327   6.671   0.638  13.992 -1.5337 -0.5666 -0.9640
 3304TIP3    H231328   6.785   0.542  13.960 -0.2384  0.7742 -0.4996
 3305TIP3   OH231329   0.246   2.633   2.166 -0.4386 -0.0532  0.2734
 3305TIP3    H131330   0.217   2.686   2.092 -1.7003  0.3536  1.0438
 3305TIP3    H231331   0.304   2.568   2.127 -1.1909  0.0671 -1.0882
 3306TIP3   OH231332   0.107   0.446   5.304  0.0940  0.1575 -0.1377
 3306TIP3    H131333   0.060   0.416   5.382  0.9482  0.4362  0.4969
 3306TIP3    H231334   0.101   0.542   5.307 -0.1487  0.1636 -0.6024
 3307TIP3   OH231335   4.943   1.987   2.329  0.0330 -0.0558 -0.2480
 3307TIP3    H131336   5.028   1.998   2.286 -0.0401  1.0461 -0.1432
 3307TIP3    H231337   4.950   2.037   2.410 -0.8372  0.3750 -0.4239
 3308TIP3   OH231338   4.488   3.642   5.501  0.1642 -0.2068 -0.2858
 3308TIP3    H131339   4.487   3.714   5.439 -2.0068  0.1382  0.0476
 3308TIP3    H231340   4.428   3.670   5.571 -0.3141 -2.1009  0.1191
 3309TIP3   OH231341   6.779   5.418   5.253 -0.3863  0.7855  0.1338
 3309TIP3    H131342   6.705   5.456   5.300 -1.7835  1.5214 -2.4587
 3309TIP3    H231343   6.846   5.486   5.254  0.3189  0.1519  2.4095
 3310TIP3   OH231344   3.747   6.486  13.564 -0.0427  0.3986 -0.0027
 3310TIP3    H131345   3.830   6.451  13.595  0.0751  0.3177 -0.4105
 3310TIP3    H231346   3.702   6.515  13.644 -0.0121 -0.3853  0.3089
 3311TIP3   OH231347   3.201   2.986  14.083  0.2992  0.2184 -0.5565
 3311TIP3    H131348   3.151   2.925  14.028 -0.4583  0.6067 -0.3196
 3311TIP3    H231349   3.154   3.069  14.075  0.5055  0.4182  0.2313
 3312TIP3   OH231350   4.334   2.054   1.387  0.1409  0.6078  0.1566
 3312TIP3    H131351   4.377   1.974   1.419 -2.2441 -1.5151 -1.4633
 3312TIP3    H231352   4.403   2.104   1.346  1.3324 -2.2076 -1.5894
 3313TIP3   OH231353   1.790   6.264  14.888  0.4333  0.4030  0.0963
 3313TIP3    H131354   1.834   6.340  14.850  2.2295 -0.3583  0.5580
 3313TIP3    H231355   1.713   6.301  14.931  0.8278  1.8592 -0.3765
 3314TIP3   OH231356   3.484   5.801   0.682  0.6810 -0.4151  0.2472
 3314TIP3    H131357   3.434   5.728   0.647 -0.3738 -0.1760  1.1942
 3314TIP3    H231358   3.436   5.879   0.654  0.2953 -0.1920  1.4696
 3315TIP3   OH231359   4.823   3.859   4.588 -0.2566  0.0583 -0.0132
 3315TIP3    H131360   4.769   3.814   4.652  0.8449  0.2738  1.1188
 3315TIP3    H231361   4.843   3.793   4.521 -0.0718 -0.6520  0.7305
 3316TIP3   OH231362   6.059   6.414  14.622 -0.8071  0.0309  0.0346
 3316TIP3    H131363   6.090   6.476  14.689 -2.5726 -0.4902  1.4413
 3316TIP3    H231364   6.123   6.343  14.623 -0.0839  0.6712  0.1871
 3317TIP3   OH231365   4.756   0.928  11.065 -0.5642  0.1319  0.1257
 3317TIP3    H131366   4.680   0.901  11.117  0.0871  2.0366  2.2455
 3317TIP3    H231367   4.737   1.019  11.043 -0.2826 -0.2981 -2.1001
 3318TIP3   OH231368   4.097   0.802  14.516  0.0746  0.4903 -0.0652
 3318TIP3    H131369   4.146   0.864  14.569 -1.2465  1.5876 -0.0712
 3318TIP3    H231370   4.161   0.736  14.490  0.9004  0.2398  2.3651
 3319TIP3   OH231371   2.218   3.888  14.680  0.8685  0.3868  0.3587
 3319TIP3    H131372   2.149   3.830  14.646  1.1575  0.0704  0.3036
 3319TIP3    H231373   2.272   3.831  14.735  0.9749  0.6772  0.5592
 3320TIP3   OH231374   2.397   5.980   3.725 -0.0779  0.1152 -0.3790
 3320TIP3    H131375   2.312   5.938   3.736  0.0149  0.4383  2.4901
 3320TIP3    H231376   2.377   6.066   3.688 -0.7522 -0.5920 -1.7091
 3321TIP3   OH231377   5.002   4.903   6.626 -0.1735 -0.4364 -0.5384
 3321TIP3    H131378   5.019   4.993   6.653  1.5443 -1.7621  3.4733
 3321TIP3    H231379   4.908   4.892   6.635 -0.3977  0.8759 -1.0457
 3322TIP3   OH231380   4.627   4.399   5.932  0.0214 -0.1188 -0.3688
 3322TIP3    H131381   4.700   4.338   5.918  2.4248  2.7101 -1.1893
 3322TIP3    H231382   4.621   4.408   6.027  1.2790  0.1407 -0.2964
 3323TIP3   OH231383   2.654   4.366  14.900  0.0218  0.1526 -0.2572
 3323TIP3    H131384   2.610   4.282  14.913 -0.3042  0.2884 -0.4846
 3323TIP3    H231385   2.588   4.431  14.925  0.4737  0.3305  0.5191
 3324TIP3   OH231386   4.271   5.358  14.031 -0.1089 -0.1244 -0.1209
 3324TIP3    H131387   4.251   5.415  13.956 -1.5426 -2.6451 -1.8285
 3324TIP3    H231388   4.200   5.374  14.093 -0.8148 -0.4359 -0.8346
 3325TIP3   OH231389   1.017   1.909   2.958  0.1269 -0.5011 -0.5144
 3325TIP3    H131390   0.922   1.910   2.972  0.3415  0.4818  1.1047
 3325TIP3    H231391   1.027   1.921   2.863 -1.3653  2.1412 -0.4555
 3326TIP3   OH231392   2.777   2.213  17.115  0.3255 -0.0693 -0.8069
 3326TIP3    H131393   2.719   2.137  17.105 -0.5263  0.2544  1.2161
 3326TIP3    H231394   2.731   2.283  17.068  0.2006 -0.3573 -1.1226
 3327TIP3   OH231395   6.585   5.766   1.278  0.1243 -1.1361 -0.0120
 3327TIP3    H131396   6.644   5.831   1.238  0.2784  0.4034  2.5037
 3327TIP3    H231397   6.511   5.762   1.218 -0.5100  2.4245  0.2913
 3328TIP3   OH231398   5.395   2.764  16.050  0.0459 -0.0045 -0.1840
 3328TIP3    H131399   5.303   2.743  16.035  0.0612  0.8228 -1.6189
 3328TIP3    H231400   5.393   2.828  16.121 -0.3388 -1.1887  0.9111
 3329TIP3   OH231401   3.787   5.812   4.782 -0.5563  0.5337 -0.9300
 3329TIP3    H131402   3.833   5.895   4.780 -2.6565  2.1146  3.1689
 3329TIP3    H231403   3.694   5.835   4.770 -1.1900 -1.1519  0.2724
 3330TIP3   OH231404   6.506   1.730  11.911  0.2795 -0.0504 -0.2048
 3330TIP3    H131405   6.483   1.803  11.969  0.2300 -1.1973  1.2853
 3330TIP3    H231406   6.423   1.684  11.897  0.2970  0.1967 -1.1960
 3331TIP3   OH231407   4.953   6.161  11.927 -0.5617 -0.5088 -0.0854
 3331TIP3    H131408   5.016   6.089  11.936  1.6877  1.3070 -0.6487
 3331TIP3    H231409   4.911   6.166  12.013  0.4156 -1.4407  0.4690
 3332TIP3   OH231410   4.887   1.059   3.088  0.5881 -0.1211 -0.2752
 3332TIP3    H131411   4.915   1.015   3.008  1.2803  0.6912 -0.4994
 3332TIP3    H231412   4.966   1.104   3.119 -0.2127  1.4745 -0.4237
 3333TIP3   OH231413   5.788   3.992   5.206  0.4377 -0.4411  0.3142
 3333TIP3    H131414   5.881   4.011   5.219 -0.1693  1.6013  2.4364
 3333TIP3    H231415   5.784   3.897   5.195  2.9413 -0.3905 -2.3464
 3334TIP3   OH231416   1.960   5.244  15.963 -0.0114 -0.6343  0.4010
 3334TIP3    H131417   1.982   5.177  15.898 -0.6671 -1.1448  0.6993
 3334TIP3    H231418   1.873   5.220  15.994 -1.4148  1.7618 -1.3324
 3335TIP3   OH231419   4.676   1.829  12.404  0.0842 -0.5814  0.0128
 3335TIP3    H131420   4.712   1.853  12.489 -1.7325 -0.4447  0.8029
 3335TIP3    H231421   4.752   1.816  12.348  1.2929  0.7678  1.2538
 3336TIP3   OH231422   1.963   4.168  15.896  0.1194 -0.1840  0.4365
 3336TIP3    H131423   1.953   4.147  15.989  1.0480  0.5074  0.7091
 3336TIP3    H231424   2.007   4.253  15.895  1.7970 -0.9995 -0.6221
 3337TIP3   OH231425   5.889   6.123  13.879 -0.3394  0.1053  0.5752
 3337TIP3    H131426   5.856   6.199  13.927 -0.5714  0.9345 -0.8282
 3337TIP3    H231427   5.932   6.161  13.802  1.1862 -1.1059  0.7789
 3338TIP3   OH231428   4.689   5.791   1.533 -0.0964 -0.3560  0.6342
 3338TIP3    H131429   4.696   5.878   1.492 -2.9516 -0.4619 -0.3533
 3338TIP3    H231430   4.758   5.740   1.492 -0.1959  0.7112 -0.9655
 3339TIP3   OH231431   0.493   3.352  13.905  0.3497  0.6003  0.0124
 3339TIP3    H131432   0.543   3.298  13.965  1.9924  1.4400 -0.5333
 3339TIP3    H231433   0.450   3.290  13.847 -0.1703 -0.1747  1.2003
 3340TIP3   OH231434   3.552   0.193  12.322 -0.3115  0.0456 -0.4105
 3340TIP3    H131435   3.642   0.171  12.346  0.4328  0.9985 -2.1713
 3340TIP3    H231436   3.507   0.199  12.406  1.0610 -1.1725  0.4871
 3341TIP3   OH231437   2.622   3.375   5.004 -0.3533  0.1759  0.0681
 3341TIP3    H131438   2.548   3.330   4.964  0.7781 -0.4467 -1.4130
 3341TIP3    H231439   2.637   3.451   4.948  0.0385  0.3727  0.4373
 3342TIP3   OH231440   0.036   3.176   4.822  0.3586  0.3294 -0.1493
 3342TIP3    H131441   0.106   3.113   4.807 -0.3795 -1.2189  2.2724
 3342TIP3    H231442  -0.038   3.143   4.772 -0.2132 -1.1964  1.5942
 3343TIP3   OH231443   0.229   4.383  11.813 -0.2372  1.1080 -0.1356
 3343TIP3    H131444   0.152   4.425  11.853 -0.2177  3.1933 -2.1029
 3343TIP3    H231445   0.292   4.454  11.801  1.3777 -0.2568 -0.1005
 3344TIP3   OH231446   4.366   2.531   0.447 -0.9105 -0.1892 -0.0157
 3344TIP3    H131447   4.374   2.627   0.449 -0.6614 -0.1704 -1.1672
 3344TIP3    H231448   4.346   2.507   0.537 -0.0630  0.8696  0.4886
 3345TIP3   OH231449   5.253   3.368   2.375  0.5358  0.4886  0.1288
 3345TIP3    H131450   5.237   3.285   2.331  0.0155  1.5054 -1.7245
 3345TIP3    H231451   5.311   3.415   2.315 -0.0447  1.8682  0.6102
 3346TIP3   OH231452   1.414   3.328  11.210 -0.0539 -0.3453  0.3582
 3346TIP3    H131453   1.501   3.349  11.244  0.4632  0.0594 -1.1232
 3346TIP3    H231454   1.430   3.298  11.120 -1.0249 -4.3420  1.2925
 3347TIP3   OH231455   6.021   3.570   2.213 -0.0187  0.4444  0.0597
 3347TIP3    H131456   5.978   3.591   2.130  1.8299 -1.2861 -1.4210
 3347TIP3    H231457   6.080   3.498   2.193 -0.7733 -1.2928  3.2877
 3348TIP3   OH231458   4.167   4.023  15.583  0.9579 -0.2108  0.3710
 3348TIP3    H131459   4.127   3.973  15.655  0.0576  1.2519  0.9350
 3348TIP3    H231460   4.187   3.957  15.516 -1.5360 -1.1707  0.4614
 3349TIP3   OH231461   2.179   1.322  11.247 -0.2525  0.0766 -0.1802
 3349TIP3    H131462   2.123   1.254  11.285  0.7111 -0.0677  1.0583
 3349TIP3    H231463   2.259   1.276  11.221  0.8944  0.8576  1.7417
 3350TIP3   OH231464   0.114   4.193  12.856 -0.4790  0.0516 -0.1849
 3350TIP3    H131465   0.045   4.150  12.906  0.5355 -0.1412  1.0876
 3350TIP3    H231466   0.196   4.159  12.892  0.3005  0.4078 -1.5361
 3351TIP3   OH231467   6.513   4.921  12.681 -0.1390  0.1704  0.1938
 3351TIP3    H131468   6.467   4.890  12.603 -0.2696  0.9174 -0.0313
 3351TIP3    H231469   6.468   5.001  12.705 -1.0591 -0.8275  1.9395
 3352TIP3   OH231470   2.932   6.240   3.693 -0.1494 -0.0922  0.1902
 3352TIP3    H131471   3.005   6.208   3.641 -0.0768  0.3679 -0.0024
 3352TIP3    H231472   2.963   6.324   3.729 -0.4787 -0.0313  0.3376
 3353TIP3   OH231473   2.415   1.524   3.757 -0.2226 -0.4431 -0.2087
 3353TIP3    H131474   2.481   1.550   3.693  0.8076  0.6945  1.2534
 3353TIP3    H231475   2.462   1.467   3.818 -0.7239 -0.0830  0.5243
 3354TIP3   OH231476   1.599   1.365  15.058  0.2065  0.0456  0.5400
 3354TIP3    H131477   1.539   1.295  15.086 -0.1274  0.2466  0.3389
 3354TIP3    H231478   1.586   1.434  15.124 -0.6618  0.5651 -0.1481
 3355TIP3   OH231479   4.067   4.910  11.888  0.1844 -0.2324  0.2543
 3355TIP3    H131480   3.982   4.914  11.931  0.5524 -0.7866  1.0689
 3355TIP3    H231481   4.128   4.886  11.958  1.3410  2.0643  0.1160
 3356TIP3   OH231482   4.523   6.465  15.195  0.0353 -0.6073  0.1972
 3356TIP3    H131483   4.471   6.390  15.165 -1.5730  0.6846 -0.3719
 3356TIP3    H231484   4.480   6.541  15.157  2.6203  0.5390 -0.6964
 3357TIP3   OH231485   0.410   0.058   5.139  0.1247  0.7132  0.7493
 3357TIP3    H131486   0.392  -0.006   5.070  1.8867  0.4005  0.5321
 3357TIP3    H231487   0.328   0.107   5.148 -0.2181  0.6509 -1.4303
 3358TIP3   OH231488   4.989   5.442   2.345  0.2283 -0.2683  0.2473
 3358TIP3    H131489   4.917   5.396   2.302  0.1111 -0.0963  0.2567
 3358TIP3    H231490   5.015   5.510   2.283 -0.8660  0.8873  0.9957
 3359TIP3   OH231491   2.708   1.168   4.959 -0.2972  0.1947 -0.1180
 3359TIP3    H131492   2.722   1.247   5.010  0.4886 -0.1934  0.2695
 3359TIP3    H231493   2.760   1.181   4.880  1.4573 -0.7744  0.8338
 3360TIP3   OH231494   3.672   2.442   1.759  0.1718  0.6713 -0.5636
 3360TIP3    H131495   3.648   2.488   1.840 -0.9639  0.1505 -0.5992
 3360TIP3    H231496   3.710   2.511   1.704 -0.4102  1.3344 -0.1590
 3361TIP3   OH231497   4.364   4.009   4.769  0.0300 -0.0448  0.1849
 3361TIP3    H131498   4.278   4.050   4.767  0.5504  1.0820  0.1050
 3361TIP3    H231499   4.412   4.050   4.698  0.6734 -0.5726  0.3038
 3362TIP3   OH231500   5.853   0.983   2.609 -0.0912  0.2410  0.0969
 3362TIP3    H131501   5.802   0.918   2.560  0.9050 -0.7897  0.3812
 3362TIP3    H231502   5.899   0.932   2.676  1.6795  1.0295 -0.4462
 3363TIP3   OH231503   2.735   3.071   0.374 -0.7960 -0.2917  0.5874
 3363TIP3    H131504   2.696   3.073   0.287  0.4544  1.4716  0.0103
 3363TIP3    H231505   2.807   3.008   0.367 -1.4445 -1.0682  0.7236
 3364TIP3   OH231506   6.271   3.252  11.128  0.7306 -0.0019  0.0124
 3364TIP3    H131507   6.304   3.342  11.130  0.5388  0.1798 -2.2326
 3364TIP3    H231508   6.349   3.198  11.125  0.8521  0.1878 -0.3297
 3365TIP3   OH231509   5.048   0.572  11.284 -0.4013 -0.2965 -0.7063
 3365TIP3    H131510   5.012   0.485  11.273 -0.2334 -0.2213 -2.0327
 3365TIP3    H231511   5.012   0.623  11.212 -1.8291  1.2105  0.9586
 3366TIP3   OH231512   0.668   0.527   3.686 -0.2472  0.0814 -0.1318
 3366TIP3    H131513   0.732   0.477   3.635 -1.0083 -0.8830 -0.1567
 3366TIP3    H231514   0.634   0.465   3.750  0.7120  1.2615  1.6381
 3367TIP3   OH231515   1.259   1.410  15.750  0.2272 -0.4426  0.5985
 3367TIP3    H131516   1.322   1.364  15.695 -0.0493 -0.6757  0.4714
 3367TIP3    H231517   1.270   1.372  15.837  0.7967  0.0595  0.7496
 3368TIP3   OH231518   0.384   3.188   0.824  0.4676  0.3105 -0.0260
 3368TIP3    H131519   0.460   3.247   0.826  0.0400  0.9507 -1.4396
 3368TIP3    H231520   0.334   3.211   0.902  1.5227  0.1404  0.7177
 3369TIP3   OH231521   5.342   1.205   1.179 -0.1170  0.0549 -0.1827
 3369TIP3    H131522   5.348   1.142   1.251  1.3214 -0.2688 -0.5625
 3369TIP3    H231523   5.374   1.287   1.217 -1.2836  0.4035  0.0983
 3370TIP3   OH231524   6.404   0.377  13.443  0.1190  0.7738  0.0420
 3370TIP3    H131525   6.429   0.440  13.375 -0.8438  1.4640  0.3042
 3370TIP3    H231526   6.345   0.316  13.398  2.9985 -1.5857 -0.8936
 3371TIP3   OH231527   6.438   1.692   2.837 -0.5085  0.3539 -0.3183
 3371TIP3    H131528   6.390   1.775   2.832  0.1309  0.8763  1.4155
 3371TIP3    H231529   6.405   1.650   2.917  0.7752 -0.0032  0.0536
 3372TIP3   OH231530   6.447   0.842  17.232  0.2227  0.3933 -0.4112
 3372TIP3    H131531   6.521   0.901  17.244  0.0668  0.6234 -0.5543
 3372TIP3    H231532   6.469   0.764  17.283  1.4138 -0.3194 -1.9334
 3373TIP3   OH231533   1.045   5.229   0.083 -0.5512  0.1186  0.4431
 3373TIP3    H131534   1.015   5.179   0.159 -2.3667  0.5288  0.0415
 3373TIP3    H231535   1.049   5.319   0.114 -1.2685  0.2832  0.0828
 3374TIP3   OH231536   2.261   6.585   3.116 -0.5460  0.2079  0.1581
 3374TIP3    H131537   2.199   6.561   3.047  0.1109  0.5350 -0.5612
 3374TIP3    H231538   2.293   6.501   3.149 -0.4456  0.0472 -0.3317
 3375TIP3   OH231539   5.771   4.481  12.329 -0.3198  0.1402 -0.0077
 3375TIP3    H131540   5.814   4.464  12.245 -0.4286 -2.1367  0.3309
 3375TIP3    H231541   5.793   4.572  12.349  0.7512  0.3547 -1.8874
 3376TIP3   OH231542   4.478   2.163   2.492 -0.2062 -0.8058  0.2434
 3376TIP3    H131543   4.538   2.169   2.417  0.8369 -0.5326  1.0691
 3376TIP3    H231544   4.391   2.170   2.454  0.2951 -0.8744 -0.9653
 3377TIP3   OH231545   1.866   0.335   3.437  0.1839 -0.0930  0.3833
 3377TIP3    H131546   1.887   0.401   3.503  0.4909 -0.4197  0.6136
 3377TIP3    H231547   1.951   0.310   3.400 -0.0895  1.4985 -1.5278
 3378TIP3   OH231548   1.168   4.341  11.624 -0.0257 -0.7246 -0.2255
 3378TIP3    H131549   1.244   4.309  11.672  0.5749 -1.3281 -1.5135
 3378TIP3    H231550   1.104   4.269  11.628 -0.7961  0.0118  1.3625
 3379TIP3   OH231551   6.711   4.896   1.952 -0.4052 -0.3790  0.5633
 3379TIP3    H131552   6.669   4.849   2.024  0.4584  0.5551  1.7110
 3379TIP3    H231553   6.741   4.827   1.893 -0.4952 -1.1996  1.4493
 3380TIP3   OH231554   1.520   0.172   0.257  0.1944  0.3256  0.4439
 3380TIP3    H131555   1.529   0.261   0.291 -1.2754  1.1456 -1.1501
 3380TIP3    H231556   1.439   0.139   0.296  1.2614 -0.7601  1.8510
 3381TIP3   OH231557   3.988   2.284  16.298  0.1320 -0.0460 -0.3072
 3381TIP3    H131558   4.009   2.198  16.333  0.2272 -0.4519 -1.3347
 3381TIP3    H231559   4.071   2.332  16.303 -0.0272  0.1446  0.6779
 3382TIP3   OH231560   4.574   5.845   0.527 -0.2617  0.4991  0.0415
 3382TIP3    H131561   4.594   5.785   0.455  0.5072  1.5808 -0.6919
 3382TIP3    H231562   4.659   5.859   0.570 -0.5419  0.6011  0.5663
 3383TIP3   OH231563   2.808   4.838  15.115  0.1197 -0.4173 -0.0527
 3383TIP3    H131564   2.867   4.903  15.153 -1.9942  0.8907  1.2605
 3383TIP3    H231565   2.831   4.756  15.157  1.6688 -0.1869 -0.3979
 3384TIP3   OH231566   2.045   5.737   3.487  0.0641  0.0431  0.3035
 3384TIP3    H131567   1.950   5.747   3.488 -0.2234 -2.0666  0.0753
 3384TIP3    H231568   2.075   5.791   3.414 -1.5234 -2.7719 -2.6810
 3385TIP3   OH231569   5.507   4.409  14.428  0.4868  0.1002 -0.1039
 3385TIP3    H131570   5.426   4.454  14.402 -0.8492 -0.6257  2.4246
 3385TIP3    H231571   5.477   4.325  14.462  2.4120 -0.4782  0.2918
 3386TIP3   OH231572   4.992   1.938  15.801  0.7224  0.5284  0.1444
 3386TIP3    H131573   4.903   1.951  15.832 -0.4150  1.9915 -3.2604
 3386TIP3    H231574   4.984   1.871  15.733  2.1500  0.9804 -0.5120
 3387TIP3   OH231575   2.617   3.420   2.199  0.1718 -0.3078  0.4265
 3387TIP3    H131576   2.637   3.350   2.260 -1.5768 -2.4437 -1.2848
 3387TIP3    H231577   2.546   3.469   2.241  1.2306  0.3704  1.5112
 3388TIP3   OH231578   0.087   1.084  15.749 -0.0646  0.3616  0.0117
 3388TIP3    H131579   0.105   1.079  15.655 -0.2011 -0.5529  0.0289
 3388TIP3    H231580   0.061   1.175  15.764 -0.6092  0.3647 -0.9328
 3389TIP3   OH231581   4.401   3.933   1.269  0.1971 -0.0055 -0.1669
 3389TIP3    H131582   4.405   3.842   1.298  0.8682  0.2881  0.6904
 3389TIP3    H231583   4.393   3.984   1.349  1.7695  0.8034 -0.4822
 3390TIP3   OH231584   1.338   6.686  11.895 -0.0669  0.2881  0.1347
 3390TIP3    H131585   1.279   6.757  11.869 -0.8978 -0.4479 -0.0236
 3390TIP3    H231586   1.291   6.639  11.964  0.2501 -0.4019 -0.1059
 3391TIP3   OH231587   5.630   0.498  11.440  0.3111  0.3755 -0.0630
 3391TIP3    H131588   5.603   0.565  11.377  0.8298 -0.5950 -1.3321
 3391TIP3    H231589   5.559   0.434  11.439  0.8254 -0.1915 -0.4694
 3392TIP3   OH231590   1.194   5.364  15.383 -0.3782 -0.1727  0.0939
 3392TIP3    H131591   1.124   5.309  15.345  1.7243 -0.9284 -3.0854
 3392TIP3    H231592   1.221   5.317  15.462 -1.5358 -1.3975 -0.1982
 3393TIP3   OH231593   6.299   6.710  10.357 -0.0408  0.6454 -0.0477
 3393TIP3    H131594   6.212   6.707  10.317 -0.2101  1.8434  0.1825
 3393TIP3    H231595   6.353   6.653  10.302 -1.1296 -0.7494  0.2532
 3394TIP3   OH231596   5.409   5.473   3.874 -0.3429 -0.8241 -0.3319
 3394TIP3    H131597   5.359   5.413   3.930  0.9043 -2.0805 -0.5092
 3394TIP3    H231598   5.386   5.447   3.785 -1.8959  0.8082 -0.4660
 3395TIP3   OH231599   1.885   1.655   1.254 -0.6479 -0.5580 -0.2877
 3395TIP3    H131600   1.960   1.599   1.232  0.6240  0.7716  0.5194
 3395TIP3    H231601   1.904   1.687   1.342 -0.5328  2.3469 -1.2636
 3396TIP3   OH231602   6.350   6.732  15.128  0.1244 -0.3192 -0.7771
 3396TIP3    H131603   6.360   6.810  15.074  0.8747  1.7926  2.1433
 3396TIP3    H231604   6.257   6.709  15.121 -0.0245  0.5677 -1.9839
 3397TIP3   OH231605   0.919   6.450   2.551  0.3876 -0.5707  0.4091
 3397TIP3    H131606   0.917   6.483   2.461 -0.1720  1.9337  1.2811
 3397TIP3    H231607   0.832   6.470   2.586  0.8685 -0.7429  1.7699
 3398TIP3   OH231608   0.940   3.433   1.343  0.4185  0.2240 -0.1941
 3398TIP3    H131609   0.855   3.477   1.347 -0.6501 -1.7918  0.7639
 3398TIP3    H231610   0.951   3.410   1.251 -0.7336 -0.6435 -0.1336
 3399TIP3   OH231611   0.239   3.959   4.815  0.4047 -0.4559 -0.4363
 3399TIP3    H131612   0.210   3.883   4.865 -1.0938  0.3643 -0.0110
 3399TIP3    H231613   0.194   4.033   4.855  0.0858  0.3831 -2.2528
 3400TIP3   OH231614   5.307   4.477   1.109  0.0358 -0.2865 -0.3819
 3400TIP3    H131615   5.357   4.405   1.147 -2.4471 -1.3190  1.1581
 3400TIP3    H231616   5.258   4.437   1.037  1.4325  0.7400 -1.9707
 3401TIP3   OH231617   3.800   6.276   6.020 -0.1583  0.0701 -0.3903
 3401TIP3    H131618   3.724   6.276   6.078  0.8823  1.0691  1.0262
 3401TIP3    H231619   3.872   6.245   6.073  0.7193  0.4744 -1.3052
 3402TIP3   OH231620   2.945   0.478   5.841 -0.2996  0.0848  0.3230
 3402TIP3    H131621   2.965   0.559   5.794  1.3946  0.0884  1.0036
 3402TIP3    H231622   2.953   0.502   5.934 -1.4491 -0.4620  0.5775
 3403TIP3   OH231623   6.457   3.333   2.244  0.0036  0.4445 -0.1252
 3403TIP3    H131624   6.541   3.293   2.227  1.3511  2.6490  0.8173
 3403TIP3    H231625   6.408   3.268   2.294  1.7415 -0.3321  0.6189
 3404TIP3   OH231626   3.913   1.997   0.216  0.9099  0.1153 -0.2612
 3404TIP3    H131627   3.980   2.029   0.156  0.7350 -0.5635 -0.8266
 3404TIP3    H231628   3.857   1.941   0.162 -0.1398  0.7008  0.1918
 3405TIP3   OH231629   0.396   4.013  14.897 -0.2441  0.5768  0.5937
 3405TIP3    H131630   0.486   3.997  14.870 -0.1570 -0.2276  1.2973
 3405TIP3    H231631   0.345   4.004  14.817  0.2188  0.2809  0.3275
 3406TIP3   OH231632   6.333   1.931  11.005  0.5237  0.5694 -0.0531
 3406TIP3    H131633   6.333   1.978  11.088 -2.9731  3.1639 -1.2767
 3406TIP3    H231634   6.349   1.839  11.028 -0.0765  1.2330  3.4409
 3407TIP3   OH231635   5.553   4.340  12.349 -0.3832 -0.5891  0.8194
 3407TIP3    H131636   5.476   4.388  12.380  1.3757  0.6856  3.5923
 3407TIP3    H231637   5.624   4.403  12.352  0.9396 -1.8406 -1.2816
 3408TIP3   OH231638   1.209   0.453  13.594 -0.0877 -0.6659  0.6075
 3408TIP3    H131639   1.212   0.433  13.688  2.1638  0.2692  0.7971
 3408TIP3    H231640   1.121   0.486  13.579 -0.0864  0.4299  2.6867
 3409TIP3   OH231641   3.452   4.171  13.074 -0.4654 -0.0128 -0.2174
 3409TIP3    H131642   3.429   4.242  13.134  2.9704  0.6654  0.5140
 3409TIP3    H231643   3.482   4.100  13.131  0.1544 -0.4284 -1.0443
 3410TIP3   OH231644   4.587   1.711  17.199 -0.1208  0.3698  0.2079
 3410TIP3    H131645   4.680   1.700  17.177 -0.4199 -0.4821 -0.7283
 3410TIP3    H231646   4.585   1.711  17.295  0.8276  0.2447  0.2428
 3411TIP3   OH231647   4.296   1.567  14.361  0.3402 -0.3124  0.0728
 3411TIP3    H131648   4.234   1.552  14.432  1.7923 -0.8003  1.2836
 3411TIP3    H231649   4.251   1.536  14.283 -1.9103  1.6389  0.4669
 3412TIP3   OH231650   3.116   2.275  16.690  0.2678 -0.5512 -0.0029
 3412TIP3    H131651   3.201   2.278  16.645  1.1881 -0.9548  1.5963
 3412TIP3    H231652   3.054   2.311  16.627  1.3875 -1.5093 -1.7270
 3413TIP3   OH231653   0.341   4.039   4.173  0.3526 -0.0990 -0.2976
 3413TIP3    H131654   0.282   4.112   4.153  1.1562  0.1206 -2.0270
 3413TIP3    H231655   0.289   3.981   4.229 -1.6121 -0.0055 -1.8936
 3414TIP3   OH231656   6.371   2.578  15.136 -1.1873  0.2097 -0.2861
 3414TIP3    H131657   6.349   2.488  15.160 -1.7784  0.8547  1.7732
 3414TIP3    H231658   6.467   2.580  15.135 -1.1659 -0.5810 -1.0191
 3415TIP3   OH231659   3.115   2.470  15.221 -0.2717  0.3511 -0.4574
 3415TIP3    H131660   3.089   2.396  15.275 -0.4971 -0.0081 -1.0430
 3415TIP3    H231661   3.057   2.541  15.248  0.8876  0.7489  1.1018
 3416TIP3   OH231662   6.099   2.539  10.735 -0.1332  0.1879 -0.0535
 3416TIP3    H131663   6.189   2.515  10.754 -0.3967 -0.4977  0.3462
 3416TIP3    H231664   6.080   2.610  10.796  0.1628  0.4013 -0.2059
 3417TIP3   OH231665   4.624   0.583   0.396  0.2950  0.2070  0.5742
 3417TIP3    H131666   4.678   0.660   0.416 -1.0517  0.9475  1.5630
 3417TIP3    H231667   4.536   0.607   0.426 -0.6951 -0.8079 -1.3110
 3418TIP3   OH231668   5.682   1.458  13.564  0.0437 -0.2442  0.4656
 3418TIP3    H131669   5.693   1.426  13.475 -1.5974  2.5043 -0.8509
 3418TIP3    H231670   5.702   1.551  13.559  2.2015 -0.3678  3.5401
 3419TIP3   OH231671   5.957   3.362   1.999 -0.1556  0.1050 -0.3745
 3419TIP3    H131672   5.908   3.369   1.917  2.0374 -1.7318 -1.9657
 3419TIP3    H231673   6.040   3.407   1.981  1.0934 -1.8861  0.1661
 3420TIP3   OH231674   3.433   3.973   1.287  0.3132  0.0030  0.1312
 3420TIP3    H131675   3.473   3.932   1.210 -0.2103 -1.2200  0.4751
 3420TIP3    H231676   3.339   3.965   1.272  0.1769 -1.5490  1.4950
 3421TIP3   OH231677   4.287   5.443  11.738 -0.0360  0.2006  0.0452
 3421TIP3    H131678   4.260   5.377  11.674  1.4948 -0.7349  0.2968
 3421TIP3    H231679   4.374   5.469  11.709  0.8916 -0.5701  1.9495
 3422TIP3   OH231680   0.179   6.238   4.770 -0.2791 -0.2153  0.0698
 3422TIP3    H131681   0.158   6.310   4.829 -0.1431 -0.4511  0.4108
 3422TIP3    H231682   0.275   6.238   4.766 -0.3161  0.4235 -0.9331
 3423TIP3   OH231683   5.060   3.297   1.012 -0.1754 -0.6614  0.2151
 3423TIP3    H131684   5.121   3.242   0.964 -0.5634  2.0619 -3.9154
 3423TIP3    H231685   5.116   3.361   1.057  0.1002 -1.4765  1.0671
 3424TIP3   OH231686   0.089   5.238   1.570 -1.0830  0.2152  0.4099
 3424TIP3    H131687   0.181   5.257   1.587 -0.8347 -0.2118 -0.4014
 3424TIP3    H231688   0.048   5.238   1.656 -0.2680  0.1216  0.8052
 3425TIP3   OH231689   6.422   6.681  16.911 -0.0745 -0.0891 -0.5482
 3425TIP3    H131690   6.440   6.674  17.005 -0.7751  0.1050 -0.3926
 3425TIP3    H231691   6.464   6.763  16.885  0.0335 -0.0914 -0.3862
 3426TIP3   OH231692   2.388   4.271  14.029 -0.0290 -0.2991  0.0783
 3426TIP3    H131693   2.444   4.337  13.988  0.0178 -0.5870 -0.3251
 3426TIP3    H231694   2.389   4.197  13.969 -2.1742  0.2882 -0.7974
 3427TIP3   OH231695   0.027   3.859  14.207  0.0105 -0.3222  0.2022
 3427TIP3    H131696   0.048   3.940  14.160  0.1744  1.2391  2.7692
 3427TIP3    H231697   0.095   3.798  14.179  3.3245  2.1207  2.1584
 3428TIP3   OH231698   3.649   2.984   1.233 -0.0804 -0.5904  0.0565
 3428TIP3    H131699   3.692   2.937   1.161  0.4642 -0.9241  0.5870
 3428TIP3    H231700   3.693   3.069   1.236 -0.7303 -0.2203 -0.5866
 3429TIP3   OH231701   4.398   3.448   6.671  0.4270  1.2741 -0.1871
 3429TIP3    H131702   4.399   3.468   6.765  0.9302 -0.0805  0.1131
 3429TIP3    H231703   4.309   3.469   6.643  0.5182  2.5039  0.3983
 3430TIP3   OH231704   2.327   1.566  16.155 -0.1688 -0.1394  0.2246
 3430TIP3    H131705   2.369   1.501  16.099 -2.6320 -0.1577 -1.7478
 3430TIP3    H231706   2.314   1.642  16.098 -0.7260  0.7008  1.4272
 3431TIP3   OH231707   3.146   1.993   0.977 -0.6124 -0.2975 -0.0256
 3431TIP3    H131708   3.156   1.995   0.881 -1.8958 -0.7067 -0.1882
 3431TIP3    H231709   3.188   1.911   1.003 -2.1193 -1.2520 -0.5061
 3432TIP3   OH231710   4.970   4.960  13.828 -0.6236 -0.3137 -0.2568
 3432TIP3    H131711   4.959   4.983  13.736  0.7519 -2.0894 -0.9479
 3432TIP3    H231712   5.017   4.876  13.826 -1.4256 -0.8972  2.0603
 3433TIP3   OH231713   2.897   5.331   5.045 -0.6567  0.1129  0.1526
 3433TIP3    H131714   2.944   5.293   5.118 -1.5071 -0.0693  0.6186
 3433TIP3    H231715   2.875   5.257   4.988  2.1196  0.4807 -1.6170
 3434TIP3   OH231716   5.346   3.004  12.305  0.2870 -0.0624 -0.1183
 3434TIP3    H131717   5.314   3.043  12.223 -1.2918 -1.9967 -0.4921
 3434TIP3    H231718   5.275   2.947  12.334  1.8936 -1.5186  1.1739
 3435TIP3   OH231719   3.202   0.968  14.380 -0.3588  0.2324  0.0974
 3435TIP3    H131720   3.237   0.983  14.468 -0.4209 -0.0390  0.1678
 3435TIP3    H231721   3.278   0.978  14.322 -0.1733 -0.3246  0.2481
 3436TIP3   OH231722   4.623   1.780  15.775  0.1360 -0.2416  0.5136
 3436TIP3    H131723   4.571   1.846  15.731  0.3824 -0.2935  0.1376
 3436TIP3    H231724   4.670   1.828  15.844  0.7544  0.0832 -0.1250
 3437TIP3   OH231725   3.657   4.546  11.887 -0.3614 -0.1220  0.4224
 3437TIP3    H131726   3.681   4.558  11.979 -0.6202  1.6223  0.2883
 3437TIP3    H231727   3.711   4.609  11.840  0.5039 -1.6915 -0.7698
 3438TIP3   OH231728   5.124   2.911   4.740  0.7642  0.4359 -0.1991
 3438TIP3    H131729   5.044   2.860   4.758  0.9734 -0.3371 -1.3232
 3438TIP3    H231730   5.116   2.936   4.648  1.7917  0.3960 -0.3087
 3439TIP3   OH231731   1.484   3.967  15.860  0.2303 -0.3472 -0.2331
 3439TIP3    H131732   1.566   4.016  15.864 -0.5143  0.8839  0.7697
 3439TIP3    H231733   1.479   3.937  15.769  2.5600 -1.8655  0.0411
 3440TIP3   OH231734   5.086   1.404   2.951  0.1456  0.1360 -0.5520
 3440TIP3    H131735   5.162   1.429   2.898 -0.2637  1.1904 -0.6720
 3440TIP3    H231736   5.010   1.424   2.896 -0.3481  2.4277  0.8177
 3441TIP3   OH231737   5.415   1.546  10.851  0.4377  0.2357 -0.3593
 3441TIP3    H131738   5.461   1.491  10.915 -0.3965 -0.6223 -0.4721
 3441TIP3    H231739   5.350   1.592  10.903 -1.0713 -1.3828 -0.7198
 3442TIP3   OH231740   1.686   1.970   1.446 -0.0573  0.2685 -0.6322
 3442TIP3    H131741   1.599   2.001   1.420 -1.4419 -1.9304  0.9988
 3442TIP3    H231742   1.731   1.955   1.363 -1.6258  0.4132 -1.5586
 3443TIP3   OH231743   3.445   3.628   5.746 -0.0180  0.1708  0.1141
 3443TIP3    H131744   3.505   3.699   5.770  0.4626 -0.2543  0.1802
 3443TIP3    H231745   3.501   3.551   5.737 -0.6440 -0.3706  0.7852
 3444TIP3   OH231746   0.350   4.378  13.134 -0.6435 -0.5973 -0.4991
 3444TIP3    H131747   0.441   4.402  13.151 -1.0696  0.7531 -0.0067
 3444TIP3    H231748   0.355   4.300  13.079  0.8215  0.3601 -1.7985
 3445TIP3   OH231749   4.164   1.949  15.064  0.1521  0.1165  0.2466
 3445TIP3    H131750   4.257   1.967  15.048  0.4218 -0.7482  0.7709
 3445TIP3    H231751   4.163   1.896  15.144 -0.9140  1.3872  1.1068
 3446TIP3   OH231752   0.261   5.348  13.278  0.2292 -0.0612 -0.2698
 3446TIP3    H131753   0.354   5.341  13.298  0.1929 -0.5841 -0.2799
 3446TIP3    H231754   0.251   5.304  13.194 -0.5051 -2.6479  1.0896
 3447TIP3   OH231755   0.932   3.825   1.820 -0.1757 -0.2329  0.0137
 3447TIP3    H131756   0.887   3.894   1.869 -0.0615  0.1961 -0.4784
 3447TIP3    H231757   0.993   3.872   1.762  0.5094 -0.7809  0.2734
 3448TIP3   OH231758   0.814   3.757  16.995  0.1459 -0.1809  0.3026
 3448TIP3    H131759   0.883   3.698  17.025 -0.5974 -1.4401 -0.3438
 3448TIP3    H231760   0.733   3.719  17.031 -0.3412  0.4622 -0.0972
 3449TIP3   OH231761   1.122   2.920   4.674 -0.1993 -0.1409  0.6297
 3449TIP3    H131762   1.186   2.970   4.725  0.0042  0.7542 -0.4566
 3449TIP3    H231763   1.154   2.830   4.677  2.5121  0.5683 -1.7623
 3450TIP3   OH231764   0.194   3.562  15.143 -0.4500  0.4592  0.1569
 3450TIP3    H131765   0.159   3.646  15.113  0.9965  0.8482 -0.5722
 3450TIP3    H231766   0.244   3.529  15.068 -0.0639 -0.5092  0.8164
 3451TIP3   OH231767   0.454   3.148   3.160 -0.4777  0.0868 -0.3037
 3451TIP3    H131768   0.422   3.183   3.076  0.7451 -0.2242 -0.9198
 3451TIP3    H231769   0.376   3.145   3.215 -0.9954  1.9743 -0.8434
 3452TIP3   OH231770   5.262   1.729  13.248 -0.4025 -0.1618  0.2844
 3452TIP3    H131771   5.186   1.744  13.191 -0.3209 -0.3191  0.1334
 3452TIP3    H231772   5.231   1.752  13.335 -0.8448 -0.8969  0.3355
 3453TIP3   OH231773   0.479   5.232  14.720  0.0507  1.1997 -0.2289
 3453TIP3    H131774   0.557   5.283  14.738  0.7867 -0.2057  0.8083
 3453TIP3    H231775   0.423   5.246  14.796 -0.7035  2.1341 -0.9289
 3454TIP3   OH231776   2.610   0.207   5.583 -0.2589  0.0740  0.2883
 3454TIP3    H131777   2.590   0.115   5.566 -0.0793  0.1765 -0.4931
 3454TIP3    H231778   2.689   0.225   5.532 -0.6635  0.8370 -0.0943
 3455TIP3   OH231779   1.880   1.550  12.005  0.7828 -0.6363 -0.3173
 3455TIP3    H131780   1.942   1.481  11.980 -0.0658 -1.3773 -0.4189
 3455TIP3    H231781   1.878   1.609  11.930  0.7035 -1.0935 -0.6772
 3456TIP3   OH231782   3.095   1.119  15.838  1.2459 -0.2791 -0.2240
 3456TIP3    H131783   3.161   1.128  15.770  1.8539  0.5446  0.4383
 3456TIP3    H231784   3.063   1.209  15.852  1.2936 -0.4000  0.7221
 3457TIP3   OH231785   6.561   0.879  16.672  0.2318 -0.0754  0.5475
 3457TIP3    H131786   6.624   0.890  16.743 -0.7066 -0.9691  1.5602
 3457TIP3    H231787   6.479   0.854  16.716 -0.4723 -0.2801 -0.8196
 3458TIP3   OH231788   0.569   4.613  15.815 -0.4875 -0.1885 -0.2911
 3458TIP3    H131789   0.626   4.548  15.773 -0.0961 -1.1756  1.6648
 3458TIP3    H231790   0.505   4.635  15.747  0.0008 -1.8333 -1.3495
 3459TIP3   OH231791   2.845   5.033  11.315 -0.3961  0.1983  0.3112
 3459TIP3    H131792   2.840   5.030  11.220 -1.0831  1.5563  0.2780
 3459TIP3    H231793   2.939   5.030  11.334 -0.2568 -0.1246 -0.4022
 3460TIP3   OH231794   6.745   2.933   3.419  0.4791 -0.3558 -0.1641
 3460TIP3    H131795   6.740   3.005   3.483  2.1517 -0.2357 -0.1087
 3460TIP3    H231796   6.707   2.858   3.464  2.1607 -0.4186  1.2434
 3461TIP3   OH231797   2.732   4.798   2.297 -0.0891 -0.6477 -0.7054
 3461TIP3    H131798   2.698   4.847   2.371 -2.1564 -1.6345 -0.9487
 3461TIP3    H231799   2.743   4.709   2.329  1.2512 -0.6094 -0.9703
 3462TIP3   OH231800   2.756   3.968   4.032  0.0478  0.1885 -0.1869
 3462TIP3    H131801   2.812   3.905   4.077  1.2987  1.5975  0.3142
 3462TIP3    H231802   2.791   4.054   4.057 -2.3193  1.1457  0.1092
 3463TIP3   OH231803   3.887   1.856   2.731  0.0546 -0.4538 -0.1862
 3463TIP3    H131804   3.815   1.912   2.702  0.6366  0.0113 -0.7941
 3463TIP3    H231805   3.848   1.795   2.792 -0.4491  1.1745  1.1870
 3464TIP3   OH231806   3.804   1.138  16.745 -0.0449  0.5188 -0.4649
 3464TIP3    H131807   3.815   1.058  16.796  0.0670  0.6423 -0.2932
 3464TIP3    H231808   3.793   1.108  16.655 -0.0905  0.3073 -0.3882
 3465TIP3   OH231809   5.052   3.887  12.719 -0.4619  0.1097  0.2214
 3465TIP3    H131810   4.981   3.831  12.751 -0.3841  0.4474  1.0061
 3465TIP3    H231811   5.102   3.909  12.797 -0.0983  0.7289 -0.1791
 3466TIP3   OH231812   0.530   6.736  16.232 -0.3843  0.3935 -0.6616
 3466TIP3    H131813   0.503   6.794  16.304  1.5597  1.7079 -0.8993
 3466TIP3    H231814   0.552   6.654  16.275  1.4246  1.3708  0.4405
 3467TIP3   OH231815   2.745   0.265   4.445 -0.1545 -0.0484 -0.0426
 3467TIP3    H131816   2.801   0.206   4.394  2.4644  1.3217  1.0536
 3467TIP3    H231817   2.773   0.251   4.536 -1.4034  0.9663  0.5348
 3468TIP3   OH231818   5.114   5.279  15.399  0.3900  0.4278  0.1258
 3468TIP3    H131819   5.120   5.250  15.490  1.0312 -0.8687 -0.3050
 3468TIP3    H231820   5.194   5.245  15.358  0.6311  1.9133 -0.6814
 3469TIP3   OH231821   6.178   6.143  16.583 -0.0243 -0.1672 -0.3010
 3469TIP3    H131822   6.229   6.220  16.605 -2.0454  1.5845 -1.3973
 3469TIP3    H231823   6.178   6.141  16.487  0.7438 -2.1107 -0.3116
 3470TIP3   OH231824   4.626   5.477  14.632  0.4021 -0.4449 -0.5290
 3470TIP3    H131825   4.708   5.430  14.617  0.7016  0.0137 -0.3396
 3470TIP3    H231826   4.616   5.533  14.555  1.1918  0.8271  0.2749
 3471TIP3   OH231827   3.641   6.189   3.974 -0.0235  0.9091  0.5566
 3471TIP3    H131828   3.644   6.106   3.927 -0.0719  0.5641  1.1527
 3471TIP3    H231829   3.732   6.209   3.994 -0.0964  0.3973  1.4419
 3472TIP3   OH231830   3.010   5.367  14.719  0.5169 -0.1278  0.2523
 3472TIP3    H131831   2.963   5.284  14.722  1.0121 -0.5215 -1.5645
 3472TIP3    H231832   3.102   5.343  14.712  0.5810  0.4890 -1.6608
 3473TIP3   OH231833   6.024   5.645  12.142  0.6447 -0.2688 -0.4380
 3473TIP3    H131834   5.983   5.603  12.067 -1.4199  2.5754 -1.0734
 3473TIP3    H231835   6.013   5.581  12.214 -2.0966 -0.9768 -1.3563
 3474TIP3   OH231836   3.341   0.971  10.849  0.1544  0.3788  0.5329
 3474TIP3    H131837   3.297   0.888  10.870  0.6072 -0.8079 -2.6317
 3474TIP3    H231838   3.305   1.034  10.911 -0.7452 -2.0158  2.6022
 3475TIP3   OH231839   6.417   6.605   5.367 -0.2243 -0.5010  0.5883
 3475TIP3    H131840   6.460   6.660   5.301 -0.0845 -0.8139  0.4183
 3475TIP3    H231841   6.430   6.653   5.449 -1.6159  0.5896  0.2007
 3476TIP3   OH231842   4.774   6.579   6.527 -0.1515 -0.0434  0.2330
 3476TIP3    H131843   4.688   6.538   6.516  0.0277 -0.0819 -1.2911
 3476TIP3    H231844   4.773   6.614   6.616 -0.4649 -2.9522  1.4616
 3477TIP3   OH231845   4.595   6.755  14.803  0.2637  0.1768 -1.0054
 3477TIP3    H131846   4.574   6.662  14.810  0.7142  0.1724  1.0125
 3477TIP3    H231847   4.689   6.760  14.823  0.2957  1.0580 -1.3059
 3478TIP3   OH231848   2.080   2.116  14.989 -0.6352 -0.0604  0.4857
 3478TIP3    H131849   2.069   2.074  15.075 -0.0023 -0.9114  0.1654
 3478TIP3    H231850   2.094   2.043  14.929 -0.7787  0.5516 -0.2956
 3479TIP3   OH231851   4.797   2.799  11.091  0.6780  0.5132  0.3916
 3479TIP3    H131852   4.867   2.829  11.149  0.9842 -0.8002  0.7326
 3479TIP3    H231853   4.836   2.727  11.042 -0.1296  0.4363 -0.1502
 3480TIP3   OH231854   2.604   1.092   3.548  0.0485 -0.4646 -0.3085
 3480TIP3    H131855   2.577   1.018   3.602  0.5011 -1.0149 -0.8259
 3480TIP3    H231856   2.522   1.133   3.520 -0.1980 -0.6570  0.1359
 3481TIP3   OH231857   2.481   5.448  15.207  0.1112  0.1766 -0.0761
 3481TIP3    H131858   2.573   5.431  15.230  0.0012 -1.2895 -0.6056
 3481TIP3    H231859   2.468   5.399  15.125 -0.8704  1.2080 -0.5592
 3482TIP3   OH231860   1.584   0.983  11.906 -0.1486 -0.2838  0.4179
 3482TIP3    H131861   1.627   1.022  11.983 -1.0619  3.9414 -0.9366
 3482TIP3    H231862   1.509   1.040  11.890 -1.1495 -2.2254 -2.4757
 3483TIP3   OH231863   0.958   5.398  14.019  0.0656  0.5848 -0.3454
 3483TIP3    H131864   0.991   5.370  13.934 -0.4790 -0.1312 -0.3346
 3483TIP3    H231865   0.971   5.323  14.076 -1.9294  0.0793 -0.4519
 3484TIP3   OH231866   1.773   2.776  15.437  0.1000  0.2884  0.2914
 3484TIP3    H131867   1.710   2.770  15.510  0.6689  3.4416  1.2183
 3484TIP3    H231868   1.762   2.694  15.389 -2.9233 -0.3798  1.8371
 3485TIP3   OH231869   4.560   6.498   4.114 -0.5619 -0.2256  0.1726
 3485TIP3    H131870   4.477   6.532   4.148 -0.7479 -1.5846  1.1782
 3485TIP3    H231871   4.623   6.567   4.130 -1.0284 -0.1209  1.6645
 3486TIP3   OH231872   1.667   5.488   4.215  0.2039 -0.0655  0.4371
 3486TIP3    H131873   1.633   5.401   4.197 -0.8324  0.2558  0.7679
 3486TIP3    H231874   1.611   5.547   4.166 -0.0980  0.5197  1.4473
 3487TIP3   OH231875   3.847   3.843   2.426 -0.1694  0.0070 -0.5354
 3487TIP3    H131876   3.854   3.751   2.453 -2.5074  0.4790  2.1333
 3487TIP3    H231877   3.933   3.880   2.445 -0.0333 -1.0286  1.0619
 3488TIP3   OH231878   2.026   6.216   3.373 -0.1508 -0.0873 -0.2873
 3488TIP3    H131879   1.944   6.169   3.385  0.4327 -0.7401  1.7087
 3488TIP3    H231880   2.003   6.309   3.378 -0.7675 -0.2705  0.3925
 3489TIP3   OH231881   5.802   5.917  11.688 -0.3134  0.4727 -0.1360
 3489TIP3    H131882   5.815   6.001  11.732 -1.0556  0.8064 -0.5318
 3489TIP3    H231883   5.786   5.855  11.760 -0.4056  0.7933  0.1226
 3490TIP3   OH231884   4.334   1.638   2.036  0.1839 -0.0103  0.7132
 3490TIP3    H131885   4.273   1.642   2.109 -0.7869 -1.5715  0.0342
 3490TIP3    H231886   4.388   1.717   2.046 -1.5972  1.1741  1.6116
 3491TIP3   OH231887   3.814   4.110   6.019 -0.5237  0.3278  0.5500
 3491TIP3    H131888   3.853   4.149   5.941 -1.8636  1.5050  0.4369
 3491TIP3    H231889   3.888   4.068   6.064  0.3337 -0.0611 -1.1345
 3492TIP3   OH231890   0.366   1.164  15.378  0.1513  0.4620 -0.4884
 3492TIP3    H131891   0.358   1.248  15.423  0.9708  0.1913  0.1880
 3492TIP3    H231892   0.399   1.186  15.291 -0.5622  0.9096 -0.6576
 3493TIP3   OH231893   4.893   4.482  16.066  0.1246  0.1612  0.6960
 3493TIP3    H131894   4.982   4.473  16.032 -0.5737 -0.4343 -1.1015
 3493TIP3    H231895   4.871   4.574  16.053  0.5820  0.3931  1.4805
 3494TIP3   OH231896   5.027   3.552  17.109 -0.3000 -0.1793  0.3929
 3494TIP3    H131897   4.976   3.509  17.178  0.3660  0.0326  1.0297
 3494TIP3    H231898   5.115   3.515  17.119 -0.5595 -1.3655 -1.3880
 3495TIP3   OH231899   5.076   0.841  16.602 -0.3258  0.2650 -0.1000
 3495TIP3    H131900   5.052   0.931  16.626  0.6177  0.6467 -0.5497
 3495TIP3    H231901   5.165   0.830  16.635 -0.6363 -0.7061  0.4494
 3496TIP3   OH231902   4.355   4.934   2.651  0.3317 -0.6721  0.5565
 3496TIP3    H131903   4.273   4.984   2.652  0.3923 -0.4805 -1.1793
 3496TIP3    H231904   4.399   4.960   2.731  0.3892  2.1812 -0.2649
 3497TIP3   OH231905   0.067   4.547  16.427 -0.6006 -0.3007 -0.0608
 3497TIP3    H131906   0.035   4.563  16.338 -0.7534 -3.4289 -0.6898
 3497TIP3    H231907   0.147   4.600  16.434 -1.2040  0.8930 -1.6195
 3498TIP3   OH231908   2.229   0.531   2.904 -0.6541 -0.2166 -0.1102
 3498TIP3    H131909   2.134   0.532   2.896 -0.7188 -1.4616  0.2622
 3498TIP3    H231910   2.247   0.558   2.994 -0.6907 -0.4395 -0.0341
 3499TIP3   OH231911   6.404   2.266  11.213 -0.3371  0.1308 -0.0660
 3499TIP3    H131912   6.362   2.330  11.156  0.9966  0.5373 -0.6432
 3499TIP3    H231913   6.369   2.284  11.300  0.1170  1.7738 -0.1890
 3500TIP3   OH231914   3.475   1.958   6.011  0.3290  0.1631 -1.0558
 3500TIP3    H131915   3.464   1.967   5.916 -1.7532  0.4020 -0.8500
 3500TIP3    H231916   3.498   2.046   6.041  1.2751  0.0240 -1.3617
 3501TIP3   OH231917   2.487   2.100  10.780  0.0282  0.4883 -0.4974
 3501TIP3    H131918   2.566   2.064  10.821 -1.5128 -0.7014  1.6879
 3501TIP3    H231919   2.488   2.193  10.801 -0.7765 -0.0904  2.6815
 3502TIP3   OH231920   2.167   0.771  11.445  0.1174 -0.4473 -0.1225
 3502TIP3    H131921   2.078   0.805  11.445  1.3389  3.1121 -0.2241
 3502TIP3    H231922   2.168   0.706  11.374 -2.0390  0.4612 -1.0726
 3503TIP3   OH231923   6.695   0.108   3.934  0.1231 -0.0843 -0.3802
 3503TIP3    H131924   6.746   0.085   4.011 -1.1156 -0.5756  0.3256
 3503TIP3    H231925   6.604   0.100   3.962 -0.3790 -1.3238 -2.1838
 3504TIP3   OH231926   0.537   4.990  15.922  0.2779  0.0813  0.3257
 3504TIP3    H131927   0.534   5.084  15.943 -0.0859  0.1411  0.0256
 3504TIP3    H231928   0.596   4.984  15.847  3.1782 -0.3609  2.4466
 3505TIP3   OH231929   1.476   2.383   3.941  0.2301 -0.3145 -0.5640
 3505TIP3    H131930   1.544   2.353   4.001 -0.2328  0.7409  0.5421
 3505TIP3    H231931   1.394   2.358   3.984 -0.1831  2.3465  0.3954
 3506TIP3   OH231932   1.147   0.853  15.530  0.6641  0.1891  0.4394
 3506TIP3    H131933   1.068   0.799  15.531  0.5249  0.4104  1.3922
 3506TIP3    H231934   1.132   0.916  15.459  0.6371 -0.7254 -0.3860
 3507TIP3   OH231935   5.103   0.952   1.712  0.2683  0.5338  0.3716
 3507TIP3    H131936   5.029   1.013   1.713  0.2118  0.4896 -0.7159
 3507TIP3    H231937   5.070   0.873   1.755  0.5088  1.4220  2.3243
 3508TIP3   OH231938   5.386   4.358   2.652 -0.0768  0.1589  0.0064
 3508TIP3    H131939   5.314   4.316   2.700  0.7726  0.7539  1.9125
 3508TIP3    H231940   5.376   4.328   2.562 -1.1763 -1.8693  0.7334
 3509TIP3   OH231941   2.913   4.376   0.581 -0.4128 -0.1513 -0.2759
 3509TIP3    H131942   2.982   4.376   0.648 -0.3061 -1.6264 -0.3507
 3509TIP3    H231943   2.937   4.304   0.523 -0.6941  0.8930 -1.7333
 3510TIP3   OH231944   1.739   2.938   3.459  0.2639  0.1041 -0.0160
 3510TIP3    H131945   1.720   2.895   3.376  0.0095 -1.0577  0.6243
 3510TIP3    H231946   1.698   3.024   3.451 -0.4571 -0.2889 -0.7819
 3511TIP3   OH231947   2.216   2.532  12.011 -0.3289 -0.7667 -0.2944
 3511TIP3    H131948   2.262   2.509  12.092  0.8570  1.0505 -0.3828
 3511TIP3    H231949   2.195   2.448  11.970  1.4360 -1.7174  0.6079
 3512TIP3   OH231950   2.446   2.855   2.032  0.4506  0.0411  0.5494
 3512TIP3    H131951   2.364   2.807   2.046  0.6800 -0.2423  0.9433
 3512TIP3    H231952   2.512   2.801   2.075  0.5977  1.1066  1.7177
 3513TIP3   OH231953   3.418   1.970   1.349 -0.0990  0.4339  0.0138
 3513TIP3    H131954   3.423   2.033   1.278 -0.9390  0.1975 -0.2669
 3513TIP3    H231955   3.460   1.892   1.315 -0.3828  0.3645 -0.1877
 3514TIP3   OH231956   1.417   1.136   0.712 -0.3720 -0.5732 -0.1144
 3514TIP3    H131957   1.341   1.120   0.769  0.2892  0.9951  1.3017
 3514TIP3    H231958   1.388   1.107   0.626 -2.9296  0.7046  0.1876
 3515TIP3   OH231959   3.662   3.712   5.250  0.1765  0.3119  0.2646
 3515TIP3    H131960   3.663   3.704   5.154 -1.2042  1.8910  0.0666
 3515TIP3    H231961   3.716   3.640   5.281  1.2164  0.1662 -1.7324
 3516TIP3   OH231962   5.022   0.413  12.472 -0.7293  0.2495  0.2548
 3516TIP3    H131963   5.094   0.399  12.410 -0.4525  1.4833  0.2846
 3516TIP3    H231964   4.950   0.359  12.437 -0.8293  1.4888 -1.5824
 3517TIP3   OH231965   6.476   0.108   4.124 -0.2948  0.6008  0.2837
 3517TIP3    H131966   6.470   0.160   4.204 -1.0967  1.6487 -0.4110
 3517TIP3    H231967   6.425   0.158   4.060  1.7134  0.6939 -1.3625
 3518TIP3   OH231968   3.316   6.569  12.610 -0.1892 -0.3202  0.3397
 3518TIP3    H131969   3.233   6.539  12.572 -1.0430 -0.7885  2.4549
 3518TIP3    H231970   3.290   6.627  12.681  1.3391  0.4300  0.3143
 3519TIP3   OH231971   3.553   4.559  14.339 -0.3278  0.5918  0.2987
 3519TIP3    H131972   3.466   4.578  14.304 -0.5593 -2.4905 -1.1867
 3519TIP3    H231973   3.538   4.541  14.432 -2.3818 -4.4411 -0.6825
 3520TIP3   OH231974   5.787   2.226  16.359 -0.2422 -0.0588  0.2350
 3520TIP3    H131975   5.808   2.167  16.432  1.3841  1.6258  1.1975
 3520TIP3    H231976   5.714   2.279  16.391 -1.7328 -1.4710 -0.6457
 3521TIP3   OH231977   3.501   2.460   6.544  0.0349  0.0248  0.1886
 3521TIP3    H131978   3.543   2.413   6.615  0.2250 -0.1751 -0.0541
 3521TIP3    H231979   3.540   2.548   6.547 -0.3169  0.1676  0.6375
 3522TIP3   OH231980   5.904   0.003   4.124  0.2924  0.2612  0.2815
 3522TIP3    H131981   5.895  -0.054   4.048  0.1634  2.2597 -1.2668
 3522TIP3    H231982   5.887   0.091   4.091  0.4689  1.2308  2.5816
 3523TIP3   OH231983   3.149   4.624   6.068 -0.8636  0.3914  0.7438
 3523TIP3    H131984   3.116   4.704   6.109 -0.1009  0.5149  1.1240
 3523TIP3    H231985   3.227   4.601   6.118 -0.0179  0.4362 -0.5214
 3524TIP3   OH231986   1.035   4.979   0.467  0.7473 -0.2249 -0.2464
 3524TIP3    H131987   1.097   4.931   0.412  1.0312 -1.8503  1.3789
 3524TIP3    H231988   0.950   4.939   0.446  0.7903 -0.5258  0.1442
 3525TIP3   OH231989   0.197   2.572  12.796 -1.1408 -0.2613  0.4406
 3525TIP3    H131990   0.152   2.610  12.871 -0.5840 -0.9989  1.1585
 3525TIP3    H231991   0.258   2.641  12.768 -3.7918  1.4581 -1.6287
 3526TIP3   OH231992   3.083   2.243  13.787  0.5328  0.0441 -0.2725
 3526TIP3    H131993   3.043   2.186  13.722 -2.6355 -0.4847  1.9100
 3526TIP3    H231994   3.082   2.192  13.868  1.7326  1.6486  0.8280
 3527TIP3   OH231995   4.068   5.923  10.438  0.3106  0.4734 -0.7883
 3527TIP3    H131996   4.018   5.853  10.478 -0.0807  0.7382 -0.8044
 3527TIP3    H231997   4.141   5.939  10.498 -0.1278  0.6923 -0.3117
 3528TIP3   OH231998   4.341   3.001  16.600 -0.7590  0.0709  0.0543
 3528TIP3    H131999   4.435   3.000  16.615 -0.7011  0.4944 -0.2563
 3528TIP3    H232000   4.303   2.967  16.681 -0.4044  1.1101  0.6706
 3529TIP3   OH232001   1.840   3.003   5.192 -0.2689 -0.0829  0.0407
 3529TIP3    H132002   1.919   2.953   5.173 -1.3199 -2.0674  0.5790
 3529TIP3    H232003   1.769   2.951   5.155 -1.4135  1.1490  0.4082
 3530TIP3   OH232004   1.840   1.050  16.421 -0.2093 -0.3758  0.6096
 3530TIP3    H132005   1.851   1.122  16.359 -0.4811 -1.0224 -0.1975
 3530TIP3    H232006   1.886   1.080  16.499  0.4998  0.2814 -0.0348
 3531TIP3   OH232007   2.785   2.545  13.097 -0.1393  0.2352 -0.2905
 3531TIP3    H132008   2.764   2.524  13.188 -0.2834  1.9308  0.0999
 3531TIP3    H232009   2.736   2.625  13.079  2.8436  2.1476 -0.6015
 3532TIP3   OH232010   0.928   5.451  16.326 -0.1808 -0.3643 -0.1294
 3532TIP3    H132011   0.890   5.536  16.306 -0.6117 -0.8397 -1.4323
 3532TIP3    H232012   0.952   5.456  16.419  0.9079  1.5730 -0.4727
 3533TIP3   OH232013   3.471   2.873  14.434  0.7273  0.6093  0.0095
 3533TIP3    H132014   3.477   2.875  14.529 -1.5865 -1.1914  0.2565
 3533TIP3    H232015   3.562   2.864  14.405  1.3634 -0.2813  2.1047
 3534TIP3   OH232016   6.480   0.088   0.613  0.1755  0.1974 -0.1705
 3534TIP3    H132017   6.464   0.161   0.673 -1.1492 -0.5038  0.3703
 3534TIP3    H232018   6.396   0.075   0.569  0.5121 -0.7498 -0.5400
 3535TIP3   OH232019   2.204   5.179  16.181  0.3296 -0.0982 -0.2843
 3535TIP3    H132020   2.223   5.232  16.258 -2.2260 -1.3394  1.3362
 3535TIP3    H232021   2.171   5.240  16.116  1.2396  0.7891  0.0678
 3536TIP3   OH232022   0.635   3.149  14.011  0.4041  0.9327 -0.0578
 3536TIP3    H132023   0.661   3.059  13.990 -1.0783  0.5510 -0.4038
 3536TIP3    H232024   0.707   3.184  14.063  0.2876 -1.0271  1.5423
 3537TIP3   OH232025   4.417   4.570   5.900 -0.6631 -0.6336 -0.3107
 3537TIP3    H132026   4.356   4.508   5.862 -0.7519 -2.2557  2.2346
 3537TIP3    H232027   4.484   4.516   5.942  0.7933  1.0493 -0.3181
 3538TIP3   OH232028   0.704   2.751  13.180  0.0032 -0.3341 -0.3628
 3538TIP3    H132029   0.614   2.752  13.146 -0.1762  0.5547  0.0969
 3538TIP3    H232030   0.759   2.759  13.102 -0.3403 -0.3134 -0.6076
 3539TIP3   OH232031   0.392   3.004  10.544  0.2607  0.9622 -0.3530
 3539TIP3    H132032   0.328   3.034  10.480  0.5520  0.3026 -0.9571
 3539TIP3    H232033   0.474   2.996  10.495  0.3225 -0.2381 -0.0695
 3540TIP3   OH232034   4.918   1.722  14.910 -0.1015 -0.6490  0.2925
 3540TIP3    H132035   4.844   1.748  14.965  0.2730  1.1353  0.0298
 3540TIP3    H232036   4.920   1.626  14.916 -1.0331 -0.6075  2.0948
 3541TIP3   OH232037   5.768   3.141  15.936  0.5418 -0.1542  0.4411
 3541TIP3    H132038   5.827   3.215  15.928  1.2068 -0.8335 -1.7924
 3541TIP3    H232039   5.811   3.082  15.999  0.3977  0.9541  1.6125
 3542TIP3   OH232040   5.313   6.203  15.104  0.2470  0.0492  0.1267
 3542TIP3    H132041   5.346   6.251  15.028 -1.4153 -1.4204 -1.6162
 3542TIP3    H232042   5.392   6.180  15.154  1.6298 -0.7661 -2.2793
 3543TIP3   OH232043   4.738   5.487  15.643  0.4394  0.3294  0.4120
 3543TIP3    H132044   4.779   5.416  15.691  0.6374  0.3598  0.2913
 3543TIP3    H232045   4.804   5.557  15.642  0.2983  0.4643  0.4141
 3544TIP3   OH232046   3.397   0.348  13.695  0.0361 -0.2081  0.0924
 3544TIP3    H132047   3.335   0.405  13.741 -1.6158 -2.6809  1.1588
 3544TIP3    H232048   3.400   0.383  13.606 -0.5207  1.7818  0.7986
 3545TIP3   OH232049   1.584   4.286  12.278 -0.6867 -0.0841  0.2027
 3545TIP3    H132050   1.592   4.333  12.195 -1.6639 -0.2153  0.0216
 3545TIP3    H232051   1.659   4.316  12.330  0.7054 -0.9621 -1.1849
 3546TIP3   OH232052   1.805   3.553   4.708  0.1148 -0.7589  0.3599
 3546TIP3    H132053   1.890   3.519   4.681  0.3919 -0.2898  0.6132
 3546TIP3    H232054   1.825   3.637   4.750 -0.6666  0.4354 -1.5168
 3547TIP3   OH232055   5.993   3.728  10.980  0.0230 -0.0274 -0.2782
 3547TIP3    H132056   5.917   3.774  10.944 -0.3290  0.0088  0.4672
 3547TIP3    H232057   5.970   3.635  10.974  0.7501 -0.1329 -1.8206
 3548TIP3   OH232058   4.457   1.447   3.463  0.2361 -0.4135 -0.2462
 3548TIP3    H132059   4.450   1.538   3.434  1.0675 -0.4872 -0.7042
 3548TIP3    H232060   4.397   1.441   3.537 -2.5354 -0.3810 -2.3097
 3549TIP3   OH232061   0.306   4.252   1.107  0.1046  0.5774 -0.0378
 3549TIP3    H132062   0.233   4.277   1.051 -0.0099  2.0988  0.7402
 3549TIP3    H232063   0.334   4.166   1.074 -1.8615  0.0770 -0.5048
 3550TIP3   OH232064   3.630   3.425  11.462 -0.2704 -0.2506  0.3187
 3550TIP3    H132065   3.652   3.432  11.369 -1.4695  1.9941  0.1548
 3550TIP3    H232066   3.678   3.496  11.503 -1.1715 -0.0798  1.1087
 3551TIP3   OH232067   1.463   2.260  12.399  0.0619  0.1811  0.1061
 3551TIP3    H132068   1.494   2.261  12.489  3.1338 -0.0992 -0.8257
 3551TIP3    H232069   1.506   2.334  12.357 -3.4953  2.0904 -0.6218
 3552TIP3   OH232070   5.054   5.442   1.397 -0.4820 -0.4661 -0.0721
 3552TIP3    H132071   5.140   5.447   1.437 -0.8880 -0.0113  0.7789
 3552TIP3    H232072   5.017   5.360   1.430 -0.5606 -0.4146 -0.0295
 3553TIP3   OH232073   6.471   5.574  16.608  0.2232  0.1028  0.3668
 3553TIP3    H132074   6.443   5.639  16.543  0.9215  0.4157  0.3591
 3553TIP3    H232075   6.405   5.580  16.678 -0.7663 -0.5430 -0.4970
 3554TIP3   OH232076   2.561   0.293   1.598 -0.1104  0.7506  0.7047
 3554TIP3    H132077   2.573   0.383   1.569  1.7389  1.1407  2.4262
 3554TIP3    H232078   2.618   0.242   1.541 -0.9009  0.6775 -0.0485
 3555TIP3   OH232079   1.408   2.226   2.403  0.1048 -0.1062  0.4235
 3555TIP3    H132080   1.402   2.152   2.464  0.4577  0.3239  0.9894
 3555TIP3    H232081   1.320   2.261   2.400  0.1925  0.1945  1.1090
 3556TIP3   OH232082   6.529   0.822   2.288  0.1080  0.3083  0.8526
 3556TIP3    H132083   6.566   0.735   2.305  0.9267  0.1363 -1.3703
 3556TIP3    H232084   6.438   0.804   2.261  0.8937 -0.1951 -1.8003
 3557TIP3   OH232085   6.251   2.367   0.518  0.6577  0.8577 -0.7101
 3557TIP3    H132086   6.216   2.295   0.465  1.1720  0.1787 -0.1443
 3557TIP3    H232087   6.299   2.421   0.455 -0.8125  1.4303 -1.3748
 3558TIP3   OH232088   0.896   1.680   4.457  0.1813 -0.5778 -0.4509
 3558TIP3    H132089   0.910   1.643   4.545 -0.2685  0.0425 -0.1116
 3558TIP3    H232090   0.858   1.766   4.473 -0.1475 -0.5623 -1.2680
 3559TIP3   OH232091   4.033   2.510  16.888 -0.0813  0.3327  0.6119
 3559TIP3    H132092   4.075   2.595  16.899 -0.7582  1.0736 -1.8081
 3559TIP3    H232093   4.093   2.462  16.830 -0.9116  0.1511 -0.1169
 3560TIP3   OH232094   3.977   2.538   4.022 -0.2131 -0.2102  0.3193
 3560TIP3    H132095   3.925   2.538   3.942 -0.3781  0.3836  0.4212
 3560TIP3    H232096   3.949   2.617   4.069  0.9720  0.2776  0.2534
 3561TIP3   OH232097   3.806   1.832  15.349  0.2662  0.3485  0.3883
 3561TIP3    H132098   3.862   1.895  15.395  1.3807  1.4750 -2.3366
 3561TIP3    H232099   3.850   1.747  15.361  0.0362  0.4256  2.0616
 3562TIP3   OH232100   3.818   3.608  12.895 -0.4483  0.9943 -0.7978
 3562TIP3    H132101   3.838   3.516  12.911  0.8384  1.3797 -0.0654
 3562TIP3    H232102   3.735   3.607  12.846 -0.0577 -0.5604 -1.4592
 3563TIP3   OH232103   2.374   3.652  13.159  0.4466 -0.2285 -0.0286
 3563TIP3    H132104   2.349   3.717  13.225  1.5387  1.6305 -1.3737
 3563TIP3    H232105   2.435   3.697  13.102  3.2570 -3.1363  0.3529
 3564TIP3   OH232106   2.057   1.482   4.777  0.1596 -0.6666 -0.4757
 3564TIP3    H132107   2.049   1.555   4.716  0.4547 -1.5554 -1.6234
 3564TIP3    H232108   2.036   1.519   4.862  0.1631  0.7146 -1.0517
 3565TIP3   OH232109   4.138   3.040   6.026  0.2384  0.3273  0.0270
 3565TIP3    H132110   4.218   3.089   6.010 -1.1764  2.9200  0.4315
 3565TIP3    H232111   4.140   3.020   6.119  0.2691  0.7070  0.1091
 3566TIP3   OH232112   5.974   1.320   0.490  0.0974 -0.2517  0.3275
 3566TIP3    H132113   6.025   1.315   0.409  0.1139  1.2771  0.2034
 3566TIP3    H232114   5.887   1.291   0.465  0.0548  0.3838 -0.2972
 3567TIP3   OH232115   5.246   0.055  13.746  0.2052 -0.3355  0.1880
 3567TIP3    H132116   5.321   0.028  13.694 -0.2926 -2.0921  0.3219
 3567TIP3    H232117   5.275   0.133  13.793  1.8698 -0.8831  0.1028
 3568TIP3   OH232118   5.444   0.449  15.485  0.2867  0.3887 -0.2957
 3568TIP3    H132119   5.449   0.360  15.521 -0.9160  0.3448 -0.2023
 3568TIP3    H232120   5.434   0.506  15.561  2.3434  0.7686 -0.2467
 3569TIP3   OH232121   1.660   5.748  10.786  0.3893  0.4610  0.0594
 3569TIP3    H132122   1.577   5.791  10.809  0.1001  0.9976 -1.7863
 3569TIP3    H232123   1.633   5.662  10.752  0.8053 -0.3425  1.6594
 3570TIP3   OH232124   6.481   3.344   1.898  0.6496 -0.1547 -0.2676
 3570TIP3    H132125   6.542   3.368   1.967 -0.0606  0.2944  0.2169
 3570TIP3    H232126   6.536   3.303   1.831  1.3506 -0.5770  0.5405
 3571TIP3   OH232127   6.012   2.037   2.785  0.0703  0.4523  0.1608
 3571TIP3    H132128   6.033   2.129   2.799  0.7162  0.5142 -1.0225
 3571TIP3    H232129   5.923   2.037   2.750 -0.5016  0.4976  1.5834
 3572TIP3   OH232130   1.552   2.826   3.970 -0.6554 -0.1698 -0.0753
 3572TIP3    H132131   1.549   2.757   3.904 -0.6424  0.9461 -1.2666
 3572TIP3    H232132   1.642   2.859   3.966 -0.6576 -0.0742  0.4944
 3573TIP3   OH232133   4.878   5.325  14.616 -0.6038  0.1341 -0.0863
 3573TIP3    H132134   4.957   5.271  14.625 -1.7992 -1.4050  2.3625
 3573TIP3    H232135   4.899   5.406  14.662 -0.2137  0.0322 -0.0795
 3574TIP3   OH232136   2.732   3.084   2.072  0.3206 -0.0953  0.6942
 3574TIP3    H132137   2.773   3.001   2.051 -0.2442 -0.1511 -0.2412
 3574TIP3    H232138   2.638   3.066   2.067  0.1957  0.6646  0.1794
 3575TIP3   OH232139   6.620   5.325  12.858  0.4612 -0.4793  0.1667
 3575TIP3    H132140   6.555   5.259  12.883  0.4180 -0.1131  1.0567
 3575TIP3    H232141   6.666   5.286  12.784 -0.1820 -1.1153  0.0917
 3576TIP3   OH232142   5.161   5.747  16.040 -0.3470 -0.4678  0.2111
 3576TIP3    H132143   5.122   5.667  16.003  0.6616 -0.4630 -0.9293
 3576TIP3    H232144   5.204   5.789  15.965  1.4842 -0.2828  1.3054
 3577TIP3   OH232145   3.842   2.458   5.794  0.3321  0.2890 -0.0070
 3577TIP3    H132146   3.834   2.364   5.777 -0.3250  0.3506 -0.0460
 3577TIP3    H232147   3.756   2.484   5.825  0.4038  0.9592 -0.3622
 3578TIP3   OH232148   3.260   5.900   1.904  0.4923  0.4995  0.2913
 3578TIP3    H132149   3.309   5.881   1.824 -1.6169  0.3932 -1.0429
 3578TIP3    H232150   3.201   5.825   1.915  0.0273  0.9998  1.3746
 3579TIP3   OH232151   5.388   0.366  11.647 -0.1670 -0.0006  0.2669
 3579TIP3    H132152   5.308   0.408  11.617  0.0516  1.3693  1.4928
 3579TIP3    H232153   5.428   0.330  11.568 -1.2985  0.4963 -0.5514
 3580TIP3   OH232154   1.361   6.146  16.104  0.0167  0.1597 -0.2350
 3580TIP3    H132155   1.399   6.159  16.191  1.8568 -0.9536 -0.8312
 3580TIP3    H232156   1.365   6.052  16.090 -1.1734  0.2215 -1.1576
 3581TIP3   OH232157   4.524   5.660  13.660 -0.3555  0.0080  0.0942
 3581TIP3    H132158   4.536   5.623  13.748  1.1155  1.1138  0.4132
 3581TIP3    H232159   4.463   5.732  13.672 -0.4033 -0.0442  0.1605
 3582TIP3   OH232160   5.769   1.504  15.216 -0.0415  0.7797 -0.0228
 3582TIP3    H132161   5.761   1.419  15.260  0.3207  0.5430 -0.3981
 3582TIP3    H232162   5.693   1.508  15.158  1.3287 -0.5252 -2.0300
 3583TIP3   OH232163   3.811   4.376   0.820 -0.4883 -0.5570  0.1267
 3583TIP3    H132164   3.876   4.340   0.881 -1.4305 -1.5296  0.5837
 3583TIP3    H232165   3.831   4.470   0.817  1.1958 -0.8892 -0.0860
 3584TIP3   OH232166   2.048   5.694  16.858  0.1031 -0.0509 -0.2951
 3584TIP3    H132167   1.998   5.758  16.808 -0.0712  0.0527  0.0095
 3584TIP3    H232168   2.121   5.744  16.894 -0.9971  0.4121  1.4336
 3585TIP3   OH232169   3.981   3.963  17.266 -0.1785  0.6436  0.8331
 3585TIP3    H132170   3.976   3.976  17.361  1.6575 -1.5766  1.3273
 3585TIP3    H232171   4.069   3.929  17.251 -0.6239  0.3856 -1.6059
 3586TIP3   OH232172   3.826   3.342   1.628 -0.0016 -0.1928  0.5274
 3586TIP3    H132173   3.733   3.352   1.650 -0.3491 -2.3405  0.2305
 3586TIP3    H232174   3.827   3.319   1.535  0.6351 -2.2377  0.9898
 3587TIP3   OH232175   5.612   5.714   1.999 -0.0325  0.1648 -0.2566
 3587TIP3    H132176   5.706   5.701   1.985 -0.2947 -0.2063 -1.9115
 3587TIP3    H232177   5.581   5.752   1.917 -1.2572  0.7567  0.4503
 3588TIP3   OH232178   4.510   1.127  15.032  0.5232 -0.2496  0.6403
 3588TIP3    H132179   4.535   1.037  15.009  0.1621 -0.1001 -0.4137
 3588TIP3    H232180   4.417   1.132  15.009  0.4402  0.2673  1.0883
 3589TIP3   OH232181   6.765   1.596   1.825 -0.1668 -0.4608 -0.3298
 3589TIP3    H132182   6.731   1.656   1.892 -1.2638  0.1055 -1.3551
 3589TIP3    H232183   6.857   1.585   1.848 -1.1849 -3.0603  3.2883
 3590TIP3   OH232184   5.242   1.168  15.337 -0.3785 -0.1298  0.1195
 3590TIP3    H132185   5.200   1.229  15.397  1.1242 -0.1599  1.2555
 3590TIP3    H232186   5.232   1.082  15.377 -0.6844 -0.3698 -0.4497
 3591TIP3   OH232187   1.566   4.206   2.071 -0.4910 -0.3843  0.4476
 3591TIP3    H132188   1.602   4.222   2.158  1.8671  1.2104 -0.7387
 3591TIP3    H232189   1.511   4.128   2.083  0.1392 -0.5259  3.2252
 3592TIP3   OH232190   1.361   5.512   4.601  0.0416 -0.9090 -0.0066
 3592TIP3    H132191   1.309   5.566   4.543 -0.0929 -0.9992  0.0307
 3592TIP3    H232192   1.422   5.573   4.642 -1.9113 -0.2659  2.1367
 3593TIP3   OH232193   6.715   4.431  11.896  0.2458 -0.1815  0.0936
 3593TIP3    H132194   6.649   4.423  11.827 -0.0268 -1.0891  0.4453
 3593TIP3    H232195   6.674   4.392  11.973  0.0733  1.9286  1.1171
 3594TIP3   OH232196   6.596   5.380  16.447  0.3754 -0.2000  0.2177
 3594TIP3    H132197   6.551   5.445  16.502 -0.7340 -0.1814 -0.6765
 3594TIP3    H232198   6.685   5.379  16.481 -0.1015  0.2770  1.5983
 3595TIP3   OH232199   3.964   4.365  14.243 -0.0370 -0.2032 -0.7121
 3595TIP3    H132200   4.021   4.292  14.222 -0.3897 -0.4028 -0.9973
 3595TIP3    H232201   3.975   4.426  14.169 -0.1024 -0.1906 -0.7116
 3596TIP3   OH232202   3.504   1.507  17.005  0.6043  0.0768  0.1707
 3596TIP3    H132203   3.478   1.577  17.064 -0.8800 -1.1499  1.0303
 3596TIP3    H232204   3.565   1.453  17.056 -0.9066 -1.1512  0.7654
 3597TIP3   OH232205   1.657   4.404  13.055  0.1890  0.3933 -0.4297
 3597TIP3    H132206   1.572   4.423  13.015 -0.5183  0.0328  0.8525
 3597TIP3    H232207   1.688   4.489  13.087  0.5138  0.5943 -1.2542
 3598TIP3   OH232208   3.633   3.598  15.206 -0.3877 -0.0597 -0.6496
 3598TIP3    H132209   3.653   3.507  15.185  0.3968  0.0513 -0.4121
 3598TIP3    H232210   3.592   3.632  15.126 -0.4384 -0.5415 -0.8349
 3599TIP3   OH232211   4.853   3.832   1.894  0.6355  0.2640  0.3044
 3599TIP3    H132212   4.867   3.834   1.799 -0.1087  1.2518  0.1920
 3599TIP3    H232213   4.835   3.740   1.914  1.1928 -0.0187 -0.4447
 3600TIP3   OH232214   2.421   1.114  16.746  0.4759  0.8379  0.4414
 3600TIP3    H132215   2.334   1.152  16.734  1.0698  3.3517  3.0825
 3600TIP3    H232216   2.477   1.188  16.766  3.2744 -0.7267 -0.9429
 3601TIP3   OH232217   6.117   4.627  13.132  0.1075  0.2411  0.4993
 3601TIP3    H132218   6.213   4.632  13.124  0.1188  0.5540  0.7917
 3601TIP3    H232219   6.095   4.695  13.196 -0.4090  0.8875 -0.3532
 3602TIP3   OH232220   3.099   6.344   6.745 -0.4014  0.1122  0.0016
 3602TIP3    H132221   3.100   6.409   6.675 -0.8639 -1.3075 -1.3706
 3602TIP3    H232222   3.021   6.365   6.796 -0.2704  0.9346 -0.1178
 3603TIP3   OH232223   3.396   2.209  13.764  0.2154  0.2996  0.2280
 3603TIP3    H132224   3.345   2.185  13.841  0.1007  1.4905  0.5495
 3603TIP3    H232225   3.358   2.292  13.735  1.5895  0.9171  0.1224
 3604TIP3   OH232226   1.965   0.952   0.096  0.1067  0.1652 -0.2661
 3604TIP3    H132227   1.958   0.864   0.059 -0.2231  0.1853 -0.2620
 3604TIP3    H232228   1.916   0.947   0.178  0.8038  0.1338  0.1460
 3605TIP3   OH232229   1.823   0.341  14.753 -0.4558  0.3199  0.0329
 3605TIP3    H132230   1.741   0.365  14.796  1.1734  2.2645  2.3339
 3605TIP3    H232231   1.881   0.416  14.767  2.4320 -1.7901  0.4857
 3606TIP3   OH232232   4.130   3.982  16.648  0.2393  0.3413  0.0399
 3606TIP3    H132233   4.139   3.904  16.703  0.9370 -0.7361 -1.5208
 3606TIP3    H232234   4.142   3.950  16.559 -1.1910  1.9664 -0.7976
 3607TIP3   OH232235   1.616   2.095   2.935  0.3537 -0.6228 -0.0952
 3607TIP3    H132236   1.692   2.147   2.958 -0.4106  0.2732  0.4655
 3607TIP3    H232237   1.541   2.153   2.951 -0.4453 -1.4603 -0.6785
 3608TIP3   OH232238   1.453   0.178   2.964  0.1251  0.1721  0.2351
 3608TIP3    H132239   1.360   0.165   2.947 -0.4521  2.5481  1.1804
 3608TIP3    H232240   1.497   0.144   2.886 -1.4484 -1.4733 -0.0060
 3609TIP3   OH232241   3.590   1.429   0.305 -0.2642 -0.4506 -0.0805
 3609TIP3    H132242   3.536   1.508   0.317  0.9870  0.1825  1.8684
 3609TIP3    H232243   3.530   1.357   0.323 -0.8501  0.1757  0.5584
 3610TIP3   OH232244   1.656   4.587  17.256  0.1169 -0.4010 -0.1050
 3610TIP3    H132245   1.695   4.674  17.262 -0.7730 -0.0862  2.0141
 3610TIP3    H232246   1.563   4.601  17.271 -0.1724 -1.6394 -0.6086
 3611TIP3   OH232247   2.810   3.527  16.212  0.1674  0.5423 -0.5236
 3611TIP3    H132248   2.799   3.435  16.239 -0.7344  0.8330  0.1551
 3611TIP3    H232249   2.802   3.525  16.117 -0.4166 -0.0238 -0.4726
 3612TIP3   OH232250   3.636   5.145   5.937 -0.0800 -0.8802 -0.4466
 3612TIP3    H132251   3.688   5.121   6.014 -0.1112  1.2461  0.3208
 3612TIP3    H232252   3.635   5.066   5.883 -0.4555 -2.6006  1.9241
 3613TIP3   OH232253   6.394   4.534   1.866  0.5359  0.1636  0.4444
 3613TIP3    H132254   6.418   4.536   1.774  0.1835 -0.4706  0.3316
 3613TIP3    H232255   6.474   4.510   1.912 -0.1616 -3.8162 -0.0865
 3614TIP3   OH232256   5.714   1.578   3.363 -0.4689 -0.7127 -0.3807
 3614TIP3    H132257   5.740   1.498   3.317 -1.5526 -1.0890 -0.3691
 3614TIP3    H232258   5.648   1.549   3.426 -2.0917  0.4045 -1.4831
 3615TIP3   OH232259   0.061   3.913  14.483 -0.3974 -0.4166 -0.1065
 3615TIP3    H132260  -0.033   3.925  14.495 -0.7520  0.6962 -3.0432
 3615TIP3    H232261   0.077   3.936  14.391  3.0033  0.9959  0.6581
 3616TIP3   OH232262   6.116   5.905   2.449 -0.3318  0.2485  0.1859
 3616TIP3    H132263   6.136   5.886   2.541  0.7772 -1.9653 -0.4276
 3616TIP3    H232264   6.179   5.972   2.424 -0.7996  1.0384  1.0928
 3617TIP3   OH232265   3.157   5.322  12.750 -0.3405 -0.0258 -0.1697
 3617TIP3    H132266   3.141   5.392  12.813  1.1579 -1.1737  1.5731
 3617TIP3    H232267   3.076   5.271  12.750 -0.4985  0.2201  0.5283
 3618TIP3   OH232268   5.619   0.796   4.819 -0.0632 -0.3109  0.1434
 3618TIP3    H132269   5.545   0.752   4.861  0.0292 -0.2468  0.3723
 3618TIP3    H232270   5.631   0.877   4.869 -0.1872 -0.0598 -0.2344
 3619TIP3   OH232271   3.840   1.809  15.026  0.4422  0.0868  0.1507
 3619TIP3    H132272   3.826   1.773  15.114 -0.6338 -0.6415 -0.2987
 3619TIP3    H232273   3.921   1.859  15.034  1.1571 -1.1570  1.1973
 3620TIP3   OH232274   3.754   0.100  15.467  0.5130 -0.2018 -0.3386
 3620TIP3    H132275   3.823   0.100  15.401  1.4616 -2.3030  0.5575
 3620TIP3    H232276   3.703   0.021  15.448  0.3537 -0.4359  0.9616
 3621TIP3   OH232277   6.505   4.138   5.406  0.2632  0.2738 -0.7328
 3621TIP3    H132278   6.559   4.152   5.328 -0.4432 -0.8745 -1.4656
 3621TIP3    H232279   6.505   4.043   5.418  4.2104  0.4896  3.4890
 3622TIP3   OH232280   2.914   5.629   0.212  0.1629 -0.0821 -0.6754
 3622TIP3    H132281   2.906   5.688   0.137 -0.4637  1.9345  0.8914
 3622TIP3    H232282   2.983   5.667   0.266 -2.4938  1.3341  2.0494
 3623TIP3   OH232283   3.552   3.697   0.294  0.2518 -0.2546 -0.0225
 3623TIP3    H132284   3.550   3.785   0.259  1.3413 -0.7607 -1.4330
 3623TIP3    H232285   3.490   3.699   0.367  0.8934  1.8881  0.5309
 3624TIP3   OH232286   6.359   2.833  13.035  1.0717 -0.0157  0.4228
 3624TIP3    H132287   6.346   2.874  13.121 -1.9978  0.9639 -0.3862
 3624TIP3    H232288   6.313   2.749  13.042  1.7330 -0.4100  0.0569
 3625TIP3   OH232289   6.665   0.643   1.759  0.3773  0.6072 -0.0853
 3625TIP3    H132290   6.740   0.698   1.784  0.5871  0.8462 -1.1932
 3625TIP3    H232291   6.685   0.614   1.671  0.0367 -0.8744  0.2945
 3626TIP3   OH232292   5.880   0.656  15.032 -0.4508  0.9152  0.3118
 3626TIP3    H132293   5.816   0.608  15.084 -0.3786  0.5912  0.1087
 3626TIP3    H232294   5.829   0.697  14.962 -0.4674  0.8361  0.2768
 3627TIP3   OH232295   4.937   2.799   0.768 -0.3131 -0.0765  0.1362
 3627TIP3    H132296   5.011   2.848   0.804 -0.0506 -1.5652  1.7490
 3627TIP3    H232297   4.865   2.818   0.828 -1.1803  1.0315 -1.1875
 3628TIP3   OH232298   4.220   2.191  11.515 -0.1011  0.5235 -0.1893
 3628TIP3    H132299   4.140   2.214  11.467 -0.5190 -0.2092  0.1393
 3628TIP3    H232300   4.189   2.167  11.603  0.4828  0.2289 -0.0600
 3629TIP3   OH232301   5.587   0.034  14.299 -0.4643  0.3610 -0.0677
 3629TIP3    H132302   5.559   0.096  14.232 -2.1067  0.6574  0.8346
 3629TIP3    H232303   5.595   0.087  14.378  2.7992  0.2993 -0.2033
 3630TIP3   OH232304   3.782   1.514   0.723 -0.3504  0.4142 -0.4449
 3630TIP3    H132305   3.869   1.493   0.689 -0.6708 -1.1719 -0.3379
 3630TIP3    H232306   3.764   1.602   0.689  1.5656  1.0756  0.1093
 3631TIP3   OH232307   6.093   0.393   3.204  0.3958  0.4918 -0.4391
 3631TIP3    H132308   6.043   0.398   3.286 -0.3907  1.6410 -0.9560
 3631TIP3    H232309   6.142   0.475   3.201 -0.0235  0.7151 -1.3852
 3632TIP3   OH232310   6.502   6.299  14.352 -0.0801 -0.4735 -0.2012
 3632TIP3    H132311   6.467   6.337  14.271  0.5814 -1.0569 -0.7775
 3632TIP3    H232312   6.586   6.261  14.326  0.6835  0.3039  0.9969
 3633TIP3   OH232313   2.802   2.575   2.339  0.3658 -0.3826  0.3558
 3633TIP3    H132314   2.752   2.496   2.318 -2.2388  0.3498  3.1921
 3633TIP3    H232315   2.814   2.572   2.434  0.0540  2.6606  0.5904
 3634TIP3   OH232316   3.425   1.032  14.248 -0.2723 -0.6936  0.0622
 3634TIP3    H132317   3.419   1.051  14.155 -0.2596  2.9783  0.6494
 3634TIP3    H232318   3.519   1.028  14.266 -0.2693 -0.8561  0.0113
 3635TIP3   OH232319   1.293   1.748  11.792  0.0912 -0.2346  0.2905
 3635TIP3    H132320   1.315   1.665  11.835  0.7870 -0.4740 -0.5020
 3635TIP3    H232321   1.263   1.804  11.863 -2.4939 -1.8256  0.5912
 3636TIP3   OH232322   0.397   4.959   2.280  1.0384  0.2259 -0.3978
 3636TIP3    H132323   0.362   4.975   2.367 -0.1218  0.0622 -0.8130
 3636TIP3    H232324   0.352   5.023   2.224 -1.7022 -2.5183 -1.6399
 3637TIP3   OH232325   0.648   3.832  14.358 -0.3743  0.2183  0.1084
 3637TIP3    H132326   0.643   3.904  14.421 -2.9446 -0.2263  0.4925
 3637TIP3    H232327   0.658   3.875  14.273 -0.6625  0.9819  0.4521
 3638TIP3   OH232328   5.473   5.219  15.002 -0.6545  0.2033  0.3167
 3638TIP3    H132329   5.396   5.213  15.059 -1.1692  0.7560 -0.2977
 3638TIP3    H232330   5.534   5.274  15.051 -0.1436 -1.2003  1.3304
 3639TIP3   OH232331   6.608   4.159   4.252 -0.3519 -0.2184  0.0253
 3639TIP3    H132332   6.692   4.180   4.293 -0.7843  1.8600 -0.0578
 3639TIP3    H232333   6.561   4.110   4.319  0.2770  0.0874  0.7143
 3640TIP3   OH232334   3.084   2.574  16.427 -0.1749  0.2598 -0.0717
 3640TIP3    H132335   3.148   2.505  16.410 -1.0628 -0.8933  1.0682
 3640TIP3    H232336   3.135   2.646  16.465  0.6125 -0.1588 -0.3200
 3641TIP3   OH232337   4.887   6.458  14.444 -0.0199  0.2396  0.0449
 3641TIP3    H132338   4.852   6.530  14.496 -0.8030  0.4744 -0.7885
 3641TIP3    H232339   4.921   6.499  14.364  0.8165 -0.1629  0.1764
 3642TIP3   OH232340   2.336   4.708   2.127  0.9125  0.0117 -0.5956
 3642TIP3    H132341   2.373   4.620   2.125 -1.5288 -1.0864 -1.9299
 3642TIP3    H232342   2.324   4.732   2.035 -0.4531  0.8039 -0.2515
 3643TIP3   OH232343   2.799   1.520   1.026  0.1479 -0.1195 -0.5022
 3643TIP3    H132344   2.709   1.523   0.994 -0.6392 -0.4938  1.5501
 3643TIP3    H232345   2.833   1.608   1.012  0.1348 -0.4514 -3.0020
 3644TIP3   OH232346   1.726   6.030  14.756 -0.2291 -0.2654  0.1189
 3644TIP3    H132347   1.737   6.107  14.812 -2.0580 -1.1502  1.8131
 3644TIP3    H232348   1.812   6.019  14.714  0.5679  1.7100  1.0732
 3645TIP3   OH232349   0.428   2.854  13.379 -0.4079  0.3008  0.2300
 3645TIP3    H132350   0.512   2.897  13.397  0.0912  1.0326 -3.1023
 3645TIP3    H232351   0.433   2.831  13.286 -3.6006 -0.3614  0.1201
 3646TIP3   OH232352   0.870   3.792   3.213  0.4573 -0.7378 -0.4551
 3646TIP3    H132353   0.817   3.755   3.142 -0.4937 -0.7071  0.2265
 3646TIP3    H232354   0.953   3.813   3.171 -0.6649  0.9541 -2.0271
 3647TIP3   OH232355   3.306   6.409   3.920 -0.0354  0.3449  0.2574
 3647TIP3    H132356   3.335   6.350   3.990  0.1541  1.2427  0.9479
 3647TIP3    H232357   3.283   6.490   3.964  0.6477  1.1303 -0.7798
 3648TIP3   OH232358   1.787   3.264   2.773 -0.4299 -0.5364  0.1514
 3648TIP3    H132359   1.759   3.260   2.682  1.2894 -2.1637 -0.3726
 3648TIP3    H232360   1.813   3.355   2.787 -2.8996  0.3051 -0.2176
 3649TIP3   OH232361   0.868   0.481   6.310 -0.3922 -0.2464  0.1889
 3649TIP3    H132362   0.898   0.391   6.294  0.5707 -0.0165  0.6173
 3649TIP3    H232363   0.923   0.512   6.382 -2.8885 -0.3931  2.2936
 3650TIP3   OH232364   4.957   0.993  14.074 -0.3306  0.0874 -0.3033
 3650TIP3    H132365   4.962   1.074  14.024 -0.8236  0.0182 -0.4732
 3650TIP3    H232366   4.874   0.998  14.121  0.0929  0.1128  0.4541
 3651TIP3   OH232367   4.059   2.556   4.514 -0.0421  0.1848 -0.2697
 3651TIP3    H132368   4.012   2.523   4.437  0.8750 -1.4967 -0.1620
 3651TIP3    H232369   4.117   2.623   4.481  0.2134 -0.4018 -1.0253
 3652TIP3   OH232370   5.652   2.598  12.268 -0.0198 -0.3438 -0.3475
 3652TIP3    H132371   5.732   2.632  12.309 -0.4955  0.2231  0.1257
 3652TIP3    H232372   5.657   2.630  12.177 -1.2228  2.4210  0.4759
 3653TIP3   OH232373   5.873   2.966   3.917 -0.1390 -0.0172 -0.2799
 3653TIP3    H132374   5.876   2.992   3.825 -2.4157  0.3216 -0.3004
 3653TIP3    H232375   5.814   3.029   3.958  0.5401 -0.3974  1.3640
 3654TIP3   OH232376   6.447   2.258   3.295 -0.9891 -0.1987 -0.3087
 3654TIP3    H132377   6.398   2.302   3.364  1.7689  2.9400 -0.1283
 3654TIP3    H232378   6.477   2.176   3.335  1.7266  2.1176  2.9697
 3655TIP3   OH232379   3.314   2.579   0.462 -0.3957 -0.4276 -0.2626
 3655TIP3    H132380   3.255   2.590   0.388 -0.2703 -0.2525 -0.3373
 3655TIP3    H232381   3.360   2.662   0.469  0.4991 -0.8508 -0.7884
 3656TIP3   OH232382   0.508   4.041   4.406 -0.2666  0.2934 -0.0507
 3656TIP3    H132383   0.456   4.031   4.486  0.3723  2.9994  0.7892
 3656TIP3    H232384   0.443   4.056   4.337 -0.7117  0.6712  0.4440
 3657TIP3   OH232385   4.775   4.319   3.724 -0.6929  0.1217  0.0679
 3657TIP3    H132386   4.723   4.380   3.671 -2.0330 -0.0567  1.1423
 3657TIP3    H232387   4.730   4.235   3.715  0.4981 -0.4824 -0.4901
 3658TIP3   OH232388   4.791   4.760   1.153  0.6007 -0.3801 -0.0721
 3658TIP3    H132389   4.883   4.747   1.133  0.6120 -2.8660  1.2870
 3658TIP3    H232390   4.748   4.679   1.127 -0.7111 -0.4149  1.9527
 3659TIP3   OH232391   5.811   5.800  15.051 -0.4996  0.0447  0.6963
 3659TIP3    H132392   5.728   5.806  15.097 -0.6596  0.1305  0.3979
 3659TIP3    H232393   5.828   5.706  15.041 -0.5774  0.0287  0.7240
 3660TIP3   OH232394   1.467   5.924  15.342  0.7509 -0.3313  0.2136
 3660TIP3    H132395   1.430   6.000  15.387 -1.3619  0.1633 -2.1481
 3660TIP3    H232396   1.534   5.961  15.284  3.9530 -1.0346  3.1261
 3661TIP3   OH232397   3.566   6.478   4.914 -0.2457  1.0602  0.3311
 3661TIP3    H132398   3.603   6.470   5.002 -1.1967 -3.4207  0.5945
 3661TIP3    H232399   3.634   6.444   4.856 -0.8991  0.5189 -0.1486
 3662TIP3   OH232400   0.040   5.990  12.435  0.4709 -0.0930  0.0105
 3662TIP3    H132401   0.112   5.986  12.498  0.4453 -1.6924 -0.0242
 3662TIP3    H232402   0.009   5.900  12.428 -1.0716  0.4423 -0.5290
 3663TIP3   OH232403   0.726   3.399  12.406  0.0493 -0.0337 -0.0049
 3663TIP3    H132404   0.820   3.417  12.397  0.3389 -1.3271  0.3544
 3663TIP3    H232405   0.702   3.356  12.325 -0.0046 -0.6161  0.3141
 3664TIP3   OH232406   5.548   4.208  11.349  0.0711 -0.1806 -0.2037
 3664TIP3    H132407   5.540   4.267  11.274 -1.1645 -1.0523 -0.7980
 3664TIP3    H232408   5.461   4.210  11.390  0.6194 -0.0170  0.9825
 3665TIP3   OH232409   2.209   4.944  14.264  0.1929  0.1439 -0.2970
 3665TIP3    H132410   2.298   4.973  14.244 -0.3206  0.3780 -2.5790
 3665TIP3    H232411   2.155   5.021  14.246 -0.6409 -0.5852 -1.0051
 3666TIP3   OH232412   5.320   5.435  14.828  0.0245 -0.3932 -0.6610
 3666TIP3    H132413   5.229   5.417  14.854  0.7517 -0.4661  2.2704
 3666TIP3    H232414   5.371   5.373  14.880  1.8321  0.9613 -0.7433
 3667TIP3   OH232415   4.256   4.796  11.375  0.6916 -0.2572 -0.3306
 3667TIP3    H132416   4.255   4.725  11.311  0.9467  0.7357 -1.4777
 3667TIP3    H232417   4.332   4.849  11.350 -1.1775  2.0878 -1.4153
 3668TIP3   OH232418   2.203   6.430   4.919  0.1162 -0.2268 -0.0357
 3668TIP3    H132419   2.296   6.443   4.938  0.2850 -0.9535 -0.3405
 3668TIP3    H232420   2.158   6.471   4.993  0.7300 -1.5336  1.0996
 3669TIP3   OH232421   0.797   1.436  15.308 -0.1249 -0.0460 -0.2166
 3669TIP3    H132422   0.854   1.480  15.370 -0.1234  0.5705 -0.6421
 3669TIP3    H232423   0.716   1.421  15.357  0.4650 -1.1386  0.4607
 3670TIP3   OH232424   3.148   0.709  14.296  0.1704 -0.0707  0.7236
 3670TIP3    H132425   3.177   0.796  14.325 -0.1535  0.9947 -1.8331
 3670TIP3    H232426   3.228   0.655  14.299  1.1849  1.2521 -0.7358
 3671TIP3   OH232427   1.845   4.394   0.064 -0.4363 -0.5748 -0.5803
 3671TIP3    H132428   1.922   4.403   0.008  0.6119  0.4205  0.9333
 3671TIP3    H232429   1.787   4.464   0.037  0.5257  0.5792  0.2135
 3672TIP3   OH232430   1.680   4.075   0.753 -0.4018 -0.0023 -0.0849
 3672TIP3    H132431   1.664   4.017   0.678 -1.1771  0.3752 -0.2216
 3672TIP3    H232432   1.773   4.095   0.749 -0.5403  0.4682 -1.2854
 3673TIP3   OH232433   5.439   1.457  13.689  0.4487 -0.0958 -0.1424
 3673TIP3    H132434   5.524   1.436  13.651 -0.6273 -0.1829 -2.7522
 3673TIP3    H232435   5.420   1.546  13.660  0.3984  0.6430  1.9748
 3674TIP3   OH232436   2.624   0.402  16.726  0.2314 -0.2673 -0.3115
 3674TIP3    H132437   2.712   0.411  16.764  0.0067 -0.4750  0.2677
 3674TIP3    H232438   2.579   0.482  16.753  0.4891  0.2189 -1.2936
 3675TIP3   OH232439   3.695   5.016  14.882 -0.0346 -0.4469  0.2484
 3675TIP3    H132440   3.651   4.949  14.934  2.1561 -1.4784  0.9015
 3675TIP3    H232441   3.773   4.972  14.848 -0.3624  0.7684 -2.3338
 3676TIP3   OH232442   1.794   2.351   3.778 -1.0798 -0.4704  0.6548
 3676TIP3    H132443   1.857   2.316   3.715 -0.3423 -0.3178  1.3011
 3676TIP3    H232444   1.708   2.333   3.739 -0.6618  2.3596 -1.8865
 3677TIP3   OH232445   3.001   3.861  11.254  0.3592  0.1225 -0.2841
 3677TIP3    H132446   3.072   3.879  11.192  0.5288  0.2239 -0.0604
 3677TIP3    H232447   3.003   3.935  11.314  0.4821 -0.1979  0.1078
 3678TIP3   OH232448   3.737   3.743  12.612  0.2501 -0.4002  0.0528
 3678TIP3    H132449   3.657   3.707  12.651  1.1335 -1.2540  1.1418
 3678TIP3    H232450   3.788   3.666  12.586  2.1640 -0.0380  2.3604
 3679TIP3   OH232451   1.303   2.919   1.540  0.5284  0.0924  0.6150
 3679TIP3    H132452   1.320   3.010   1.517  1.7867 -0.5317 -1.1411
 3679TIP3    H232453   1.209   2.908   1.528  0.2233  1.3365  1.6410
 3680TIP3   OH232454   4.977   5.677   0.316  0.8508  0.2737  0.1311
 3680TIP3    H132455   4.953   5.585   0.322  1.4921  0.0015 -1.1005
 3680TIP3    H232456   4.902   5.720   0.276  0.5527  0.2854  0.7030
 3681TIP3   OH232457   4.741   5.138   1.480 -0.5315  0.2269  0.0558
 3681TIP3    H132458   4.740   5.144   1.575 -0.8291  1.1562  0.0034
 3681TIP3    H232459   4.656   5.102   1.457  0.0901 -1.4132  0.2069
 3682TIP3   OH232460   5.756   4.758  12.371 -0.2291  0.1515  0.1726
 3682TIP3    H132461   5.692   4.823  12.340  0.0968  0.0650 -0.6954
 3682TIP3    H232462   5.764   4.776  12.465 -0.1244  1.3965 -0.0524
 3683TIP3   OH232463   5.735   3.330  15.247  0.0484  0.6293 -0.2541
 3683TIP3    H132464   5.702   3.268  15.313  1.2191 -1.1582 -1.2468
 3683TIP3    H232465   5.830   3.320  15.252  0.1648  0.2074 -2.3802
 3684TIP3   OH232466   6.345   6.702  13.789  0.0352 -0.5686 -0.4796
 3684TIP3    H132467   6.394   6.681  13.710 -0.6900 -1.7554 -0.6439
 3684TIP3    H232468   6.297   6.621  13.809 -1.7771  0.5137 -0.2829
 3685TIP3   OH232469   5.363   3.739  12.749  0.0293  0.0799  0.2459
 3685TIP3    H132470   5.296   3.713  12.686 -2.0214 -0.0917  2.3535
 3685TIP3    H232471   5.361   3.670  12.816  3.1984 -0.5506 -0.1656
 3686TIP3   OH232472   5.706   1.588  15.870  0.4034  0.3855 -0.5164
 3686TIP3    H132473   5.714   1.500  15.833  0.8666  0.7768 -1.3913
 3686TIP3    H232474   5.612   1.603  15.876  0.3170 -0.3777  0.1718
 3687TIP3   OH232475   0.938   2.318  13.205  0.3369 -0.3396  0.2906
 3687TIP3    H132476   0.931   2.281  13.116 -2.7343 -1.1720  0.7771
 3687TIP3    H232477   0.890   2.400  13.201 -0.2017 -0.5926  1.2817
 3688TIP3   OH232478   0.667   5.650   5.059 -0.1817 -0.0283  0.1242
 3688TIP3    H132479   0.684   5.603   5.141 -0.3636 -0.5176 -0.1133
 3688TIP3    H232480   0.641   5.738   5.087  1.0264  0.2108  0.5448
 3689TIP3   OH232481   2.421   1.992   5.277 -0.2402  0.4187 -0.4163
 3689TIP3    H132482   2.368   1.987   5.356  0.7002  0.0223  0.2129
 3689TIP3    H232483   2.424   1.901   5.245  0.4667  0.3447 -0.1578
 3690TIP3   OH232484   3.610   0.712  14.440  0.1341  0.3267  0.0832
 3690TIP3    H132485   3.704   0.694  14.429  0.8574  3.7043 -0.5906
 3690TIP3    H232486   3.604   0.758  14.524 -0.6480  1.3713 -0.5136
 3691TIP3   OH232487   5.516   1.967  14.538  0.1712 -0.1193  0.6538
 3691TIP3    H132488   5.592   2.026  14.533  1.1125 -1.3560 -0.3179
 3691TIP3    H232489   5.441   2.026  14.544  1.0249  1.2315 -0.9463
 3692TIP3   OH232490   4.303   0.747   4.259 -0.4139  0.0708 -0.2875
 3692TIP3    H132491   4.304   0.667   4.313  1.0856  1.0451  1.2393
 3692TIP3    H232492   4.301   0.818   4.323 -0.5667  1.2789 -1.5955
 3693TIP3   OH232493   4.225   3.726  11.593  0.1266  0.1495 -0.2263
 3693TIP3    H132494   4.297   3.672  11.625 -0.7248 -1.9115 -1.5382
 3693TIP3    H232495   4.263   3.777  11.521  0.8326  0.9797  0.7187
 3694TIP3   OH232496   4.013   1.699   2.920  0.2153  0.2086 -0.0212
 3694TIP3    H132497   4.032   1.605   2.920 -0.0365  0.1528  0.3283
 3694TIP3    H232498   3.935   1.707   2.975  0.0898  0.5945 -0.2535
 3695TIP3   OH232499   5.444   3.343   2.032  0.2745 -0.6035  0.5813
 3695TIP3    H132500   5.354   3.375   2.030  0.6419  0.4513 -0.3295
 3695TIP3    H232501   5.497   3.422   2.018  1.2865 -1.4010 -0.1854
 3696TIP3   OH232502   6.394   4.405   6.119 -0.0415 -0.0112  0.1221
 3696TIP3    H132503   6.324   4.365   6.170  0.0873  0.6396  0.8123
 3696TIP3    H232504   6.463   4.425   6.183 -1.4139  4.4746  0.5248
 3697TIP3   OH232505   2.239   5.063  16.525 -0.5064  0.7300  0.0797
 3697TIP3    H132506   2.263   5.048  16.617  0.8175  2.8263  0.1453
 3697TIP3    H232507   2.149   5.095  16.529 -0.1147  1.8297  0.8046
 3698TIP3   OH232508   1.213   4.364   1.090  0.4726  0.3356  0.0935
 3698TIP3    H132509   1.149   4.405   1.149 -1.3121  1.1911 -2.2795
 3698TIP3    H232510   1.260   4.438   1.051  0.4995 -0.1297 -0.7525
 3699TIP3   OH232511   4.045   3.183  10.746 -0.2162  0.4998 -0.2939
 3699TIP3    H132512   4.010   3.240  10.678 -0.6519  0.4952 -0.0721
 3699TIP3    H232513   3.973   3.124  10.768  0.4326 -0.6181 -1.0286
 3700TIP3   OH232514   4.654   6.608  13.143 -0.2711 -0.6559  0.9040
 3700TIP3    H132515   4.669   6.575  13.232 -0.5330 -1.4983  0.6488
 3700TIP3    H232516   4.578   6.665  13.151 -0.4508 -0.9320  1.1707
 3701TIP3   OH232517   5.473   0.466  10.653 -0.6689  0.0849 -0.2419
 3701TIP3    H132518   5.514   0.386  10.619  0.9343 -0.3765  2.5043
 3701TIP3    H232519   5.413   0.435  10.721 -0.9598  1.1656  0.0002
 3702TIP3   OH232520   2.875   1.627  12.572  0.1543  0.4003 -0.2655
 3702TIP3    H132521   2.902   1.689  12.641  0.7246 -2.5921  2.4330
 3702TIP3    H232522   2.779   1.627  12.577  0.1278  1.2903 -0.5528
 3703TIP3   OH232523   4.733   2.626  10.842  0.4048 -0.6007 -0.4111
 3703TIP3    H132524   4.817   2.604  10.883  0.1503  1.0757  1.1566
 3703TIP3    H232525   4.747   2.712  10.804 -0.6843 -0.1236  0.2078
 3704TIP3   OH232526   0.445   5.272  12.195  0.8317 -0.2939  0.0216
 3704TIP3    H132527   0.430   5.181  12.219  3.1476 -0.4438  1.2169
 3704TIP3    H232528   0.403   5.322  12.265 -1.7364 -0.3010 -1.3956
 3705TIP3   OH232529   2.751   1.126   1.687 -0.6117 -0.2136  0.7265
 3705TIP3    H132530   2.740   1.065   1.615  0.5376 -0.5861  0.8446
 3705TIP3    H232531   2.663   1.159   1.705 -0.8760  0.1290 -1.0442
 3706TIP3   OH232532   5.555   3.256   2.682  0.4129 -0.5969 -0.1318
 3706TIP3    H132533   5.523   3.169   2.655  2.8155 -1.6045  0.0445
 3706TIP3    H232534   5.546   3.256   2.777  0.7007 -0.7927 -0.1022
 3707TIP3   OH232535   4.064   0.283  14.401 -0.0674  0.2498 -0.0538
 3707TIP3    H132536   3.980   0.309  14.364 -0.6767 -1.8857 -0.2873
 3707TIP3    H232537   4.128   0.306  14.334 -0.6718  0.3452 -0.6084
 3708TIP3   OH232538   3.704   4.957   5.581 -0.1886  0.0307  0.0537
 3708TIP3    H132539   3.769   4.892   5.553 -0.6121 -1.1628  1.6773
 3708TIP3    H232540   3.620   4.917   5.559 -0.4365  1.4072 -1.6991
 3709TIP3   OH232541   1.144   2.304   2.370  0.0262  0.1923  0.1609
 3709TIP3    H132542   1.115   2.367   2.304 -0.4209 -0.6547 -0.4764
 3709TIP3    H232543   1.077   2.306   2.438 -0.4512 -0.2341 -0.2923
 3710TIP3   OH232544   5.535   6.120  15.240 -0.1111  0.4785 -0.0991
 3710TIP3    H132545   5.623   6.124  15.202 -0.4026  1.3101 -0.7166
 3710TIP3    H232546   5.537   6.044  15.298  0.7041 -0.1140 -0.8868
 3711TIP3   OH232547   5.682   0.709   6.475  0.3713  0.3851 -0.1342
 3711TIP3    H132548   5.703   0.762   6.398  1.1199  0.9483  0.4446
 3711TIP3    H232549   5.730   0.750   6.547 -0.6206  0.1026  0.7259
 3712TIP3   OH232550   6.029   0.770  13.783  0.1673  0.7985  0.0207
 3712TIP3    H132551   6.024   0.707  13.711  1.9727  0.9363 -0.2828
 3712TIP3    H232552   6.107   0.743  13.832 -1.3120  0.3628  2.2873
 3713TIP3   OH232553   6.597   2.322  14.457 -0.4251 -0.3119  0.6683
 3713TIP3    H132554   6.692   2.319  14.463 -0.3185  2.1972  1.4894
 3713TIP3    H232555   6.579   2.342  14.364 -0.1031 -0.1006  0.6503
 3714TIP3   OH232556   6.043   1.424  10.805  0.5389 -0.0729  0.1221
 3714TIP3    H132557   6.130   1.385  10.805  0.7185  0.3273  0.0888
 3714TIP3    H232558   6.051   1.502  10.859  0.0292 -0.4143  0.7034
 3715TIP3   OH232559   2.819   0.495   5.451  0.2127  0.4206  0.2243
 3715TIP3    H132560   2.745   0.556   5.453  0.5881  0.9176 -0.5423
 3715TIP3    H232561   2.797   0.433   5.381  1.1646  1.4348 -1.0226
 3716TIP3   OH232562   2.414   1.137   1.458 -0.1784  0.7445  0.5219
 3716TIP3    H132563   2.415   1.195   1.534 -0.1366 -0.0635  1.1552
 3716TIP3    H232564   2.393   1.051   1.494 -1.5108  0.5888 -0.5690
 3717TIP3   OH232565   0.858   0.616   3.424 -0.6104  0.2971 -0.3493
 3717TIP3    H132566   0.877   0.686   3.361 -0.2367 -1.0411 -1.7735
 3717TIP3    H232567   0.897   0.647   3.506 -3.0901  3.1346 -0.0862
 3718TIP3   OH232568   4.421   6.685  13.298  0.2590 -0.0876 -0.3632
 3718TIP3    H132569   4.426   6.619  13.367  0.6599 -0.3727 -0.6571
 3718TIP3    H232570   4.376   6.759  13.339  0.1844 -0.3810  0.0977
 3719TIP3   OH232571   3.135   6.015  11.722 -0.9213  0.1491  0.6027
 3719TIP3    H132572   3.102   5.973  11.642 -2.0339 -0.2108  1.2318
 3719TIP3    H232573   3.218   5.970  11.741  0.2288  1.3389 -1.2275
 3720TIP3   OH232574   0.507   4.437  16.523  0.1364 -0.1286  0.2941
 3720TIP3    H132575   0.571   4.508  16.511 -0.6543  1.1068  2.7635
 3720TIP3    H232576   0.544   4.382  16.592  0.3026 -1.6881 -0.9636
 3721TIP3   OH232577   3.750   5.024  14.054  0.2304 -0.3342  0.3217
 3721TIP3    H132578   3.688   4.976  13.998 -0.5346 -0.0394  0.9043
 3721TIP3    H232579   3.791   4.955  14.107  1.4114 -0.6985 -0.9760
 3722TIP3   OH232580   6.241   4.751  11.526 -0.5559 -0.2250  0.2710
 3722TIP3    H132581   6.239   4.793  11.440 -0.4830  1.7364  1.1640
 3722TIP3    H232582   6.324   4.702  11.527  0.4988  1.4864 -0.0338
 3723TIP3   OH232583   3.092   2.127  17.144  0.2651  0.4061  0.0977
 3723TIP3    H132584   3.042   2.208  17.153 -0.8533 -0.2187 -0.3093
 3723TIP3    H232585   3.026   2.057  17.146  1.2992 -0.6014  1.7211
 3724TIP3   OH232586   2.969   4.302   1.333 -0.5449  0.0101  0.3316
 3724TIP3    H132587   2.890   4.353   1.351 -0.5209  0.0750  0.2582
 3724TIP3    H232588   2.967   4.230   1.395  0.7774  1.5497  2.2950
 3725TIP3   OH232589   2.108   3.738  15.780 -0.3227 -0.1732 -0.4629
 3725TIP3    H132590   2.039   3.681  15.813  1.1285 -0.0275  3.3387
 3725TIP3    H232591   2.091   3.823  15.821  2.1135 -0.1850  0.7442
 3726TIP3   OH232592   4.087   4.964  16.103 -0.8102 -0.1490 -0.1865
 3726TIP3    H132593   4.090   4.936  16.194 -1.5233 -2.3892 -0.7756
 3726TIP3    H232594   4.007   4.925  16.069 -1.2408  1.7212 -1.4786
 3727TIP3   OH232595   4.230   6.481  15.048 -0.3305 -0.2329 -0.3156
 3727TIP3    H132596   4.149   6.464  15.000 -0.3982 -2.7384  0.5630
 3727TIP3    H232597   4.298   6.484  14.980 -1.0046  0.8879 -0.9589
 3728TIP3   OH232598   3.188   2.878   2.397  0.4239  0.1466  0.6383
 3728TIP3    H132599   3.199   2.889   2.302 -0.8673  2.2677  0.6773
 3728TIP3    H232600   3.263   2.922   2.436 -0.9285  2.6708  0.6098
 3729TIP3   OH232601   3.711   5.562   6.909 -0.1921 -0.2133 -0.5673
 3729TIP3    H132602   3.682   5.652   6.899  1.1859  0.5111  1.2912
 3729TIP3    H232603   3.769   5.546   6.835 -0.6610  0.3030 -1.0571
 3730TIP3   OH232604   1.883   6.319  16.954 -0.2132 -0.3763  0.4914
 3730TIP3    H132605   1.976   6.325  16.934 -0.1519 -1.6142  0.2817
 3730TIP3    H232606   1.863   6.226  16.943 -1.7163  0.0465 -0.5639
 3731TIP3   OH232607   5.916   4.339   2.791  0.1348 -0.1871 -0.0743
 3731TIP3    H132608   5.873   4.275   2.849  0.3750 -0.8117 -0.5756
 3731TIP3    H232609   5.854   4.411   2.785  0.8047  0.6988  2.3636
 3732TIP3   OH232610   0.586   3.314  12.610  0.2477 -0.3844  0.0861
 3732TIP3    H132611   0.621   3.367  12.539 -0.0057  0.1465  0.3500
 3732TIP3    H232612   0.512   3.267  12.572 -2.0698  2.4237  0.7463
 3733TIP3   OH232613   2.196   1.781  11.382  0.1593 -0.3068  0.5191
 3733TIP3    H132614   2.113   1.733  11.381  0.1311 -0.2601 -0.7649
 3733TIP3    H232615   2.254   1.728  11.438 -0.3009 -1.0848  0.2721
 3734TIP3   OH232616   5.526   2.446   5.186 -0.6476 -0.1498 -0.2458
 3734TIP3    H132617   5.437   2.440   5.219 -0.5205 -0.6911  0.0013
 3734TIP3    H232618   5.570   2.368   5.219  0.0039  0.2681 -0.1061
 3735TIP3   OH232619   3.439   2.729   5.601  0.3264  0.1183  0.0843
 3735TIP3    H132620   3.375   2.658   5.596 -0.8041  1.0278  1.0149
 3735TIP3    H232621   3.461   2.735   5.694  0.2902  1.0697  0.0478
 3736TIP3   OH232622   4.556   3.305  10.537  0.0096 -0.0775  0.4464
 3736TIP3    H132623   4.607   3.374  10.495  0.2261 -0.3382  0.2766
 3736TIP3    H232624   4.513   3.348  10.611  1.4798 -0.1442  1.3555
 3737TIP3   OH232625   2.673   4.259  12.508 -0.1541 -0.5008 -0.2974
 3737TIP3    H132626   2.723   4.328  12.465 -1.6569 -0.3191 -1.8688
 3737TIP3    H232627   2.710   4.253  12.596  1.3873  0.8426 -0.8168
 3738TIP3   OH232628   2.506   0.572   2.175 -0.0050  0.2624  0.1135
 3738TIP3    H132629   2.422   0.547   2.136 -0.6771  1.9597  0.3693
 3738TIP3    H232630   2.572   0.544   2.111 -0.8737  0.2703 -0.8104
 3739TIP3   OH232631   2.603   6.393  14.879 -0.0777 -1.2019 -0.0514
 3739TIP3    H132632   2.551   6.435  14.810  0.5097  1.0639  0.8213
 3739TIP3    H232633   2.694   6.406  14.852  0.1519 -3.0662 -0.3629
 3740TIP3   OH232634   4.107   0.545   2.354 -0.3939  0.4343  0.0289
 3740TIP3    H132635   4.083   0.638   2.353 -0.7977  0.5549  3.7321
 3740TIP3    H232636   4.039   0.501   2.304  0.2327  2.1033 -2.4879
 3741TIP3   OH232637   5.533   5.080   3.183  0.3874 -0.7705  0.2799
 3741TIP3    H132638   5.615   5.038   3.210  0.7980  0.4587  0.9854
 3741TIP3    H232639   5.556   5.128   3.104 -0.1231 -1.9459 -0.6201
 3742TIP3   OH232640   0.192   3.024   1.343 -0.0114 -0.0174  0.0222
 3742TIP3    H132641   0.115   3.060   1.298 -1.1644 -2.2392  0.1003
 3742TIP3    H232642   0.263   3.038   1.281 -1.0265 -0.4248 -1.2960
 3743TIP3   OH232643   0.623   3.261   5.141  0.3189  0.6811 -0.4992
 3743TIP3    H132644   0.602   3.221   5.056  0.3584 -0.1845 -0.1023
 3743TIP3    H232645   0.646   3.188   5.198 -1.3735  1.0845  0.7728
 3744TIP3   OH232646   5.688   5.131   0.082 -0.2203  0.2664 -0.0116
 3744TIP3    H132647   5.664   5.076   0.007 -1.3429  2.1248 -1.0660
 3744TIP3    H232648   5.607   5.174   0.107  0.3274  0.3022  1.7813
 3745TIP3   OH232649   2.356   3.852   1.548 -0.5379  0.3228 -0.4221
 3745TIP3    H132650   2.393   3.931   1.587  0.2725  0.1370 -0.8000
 3745TIP3    H232651   2.385   3.855   1.457  0.4737 -0.9860 -0.1646
 3746TIP3   OH232652   5.485   0.934   1.014 -0.4352 -0.3035  0.0734
 3746TIP3    H132653   5.454   0.852   1.053  0.3968  0.0179  1.4607
 3746TIP3    H232654   5.515   0.986   1.088  0.1287  0.7986 -0.9042
 3747TIP3   OH232655   6.695   0.256  14.093  0.0758 -0.1640 -0.1834
 3747TIP3    H132656   6.618   0.219  14.137  1.0056 -0.8915  0.8935
 3747TIP3    H232657   6.702   0.345  14.128  0.6552 -0.6470  0.9995
 3748TIP3   OH232658   2.193   2.917   1.623 -0.2030  0.2422  0.7646
 3748TIP3    H132659   2.221   2.918   1.532  1.3285  3.5017  1.1437
 3748TIP3    H232660   2.125   2.984   1.629 -1.8992 -1.4429  1.6656
 3749TIP3   OH232661   6.697   5.828   0.306  0.1740  0.2937  0.0512
 3749TIP3    H132662   6.618   5.880   0.293 -1.6352 -2.0894  0.7865
 3749TIP3    H232663   6.665   5.742   0.333  3.0413 -0.8020  0.3161
 3750TIP3   OH232664   5.963   3.901  16.617 -0.2363  0.2453 -0.3201
 3750TIP3    H132665   5.997   3.908  16.528  0.8744  0.0998  0.0772
 3750TIP3    H232666   6.036   3.866  16.668 -1.7377 -2.4688  0.1339
 3751TIP3   OH232667   0.512   2.732   6.005  0.8218  0.3266  0.6576
 3751TIP3    H132668   0.544   2.814   5.966  0.8666  0.7283  1.5087
 3751TIP3    H232669   0.454   2.761   6.076 -1.0797 -0.3902 -0.5510
 3752TIP3   OH232670   6.278   2.945  13.280 -0.7104 -0.0771 -0.5105
 3752TIP3    H132671   6.300   3.005  13.352  1.0672  1.9232 -2.5543
 3752TIP3    H232672   6.231   2.873  13.322  0.3490  0.9129  2.6499
 3753TIP3   OH232673   0.115   0.864   4.695  0.0924  0.4955 -0.6323
 3753TIP3    H132674   0.056   0.793   4.671 -1.5871  1.4112  0.6042
 3753TIP3    H232675   0.125   0.857   4.790  1.0500  1.0628 -0.6725
 3754TIP3   OH232676   1.435   4.532   4.939 -0.1606  0.0144 -0.1216
 3754TIP3    H132677   1.383   4.502   5.014 -0.9916 -0.5039 -0.8901
 3754TIP3    H232678   1.483   4.454   4.910 -0.0606  0.1453 -0.3139
 3755TIP3   OH232679   5.933   6.675   3.830  0.1925  0.3031 -0.5255
 3755TIP3    H132680   5.864   6.740   3.818  0.4211  0.6606  0.0532
 3755TIP3    H232681   5.888   6.598   3.865  0.0688  0.4997 -0.2477
 3756TIP3   OH232682   4.246   2.493  14.447 -0.0782 -0.6094  0.4532
 3756TIP3    H132683   4.195   2.426  14.401  1.0369 -0.6394 -0.7817
 3756TIP3    H232684   4.334   2.456  14.454  0.5824  0.7310 -0.3136
 3757TIP3   OH232685   1.297   3.063  12.267 -1.3219  0.4281 -0.3643
 3757TIP3    H132686   1.239   3.131  12.301 -0.8372  0.1812  1.0523
 3757TIP3    H232687   1.248   2.981  12.279 -0.7644  0.2330  0.7181
 3758TIP3   OH232688   4.563   0.637  11.197  0.2256  0.3438  0.0465
 3758TIP3    H132689   4.500   0.672  11.134 -1.4716 -1.4476  0.6577
 3758TIP3    H232690   4.539   0.677  11.280 -0.4392 -0.6775  0.3643
 3759TIP3   OH232691   4.281   3.294  16.593  0.0228 -0.2420 -0.6636
 3759TIP3    H132692   4.263   3.201  16.577 -0.5542 -0.3100  0.2775
 3759TIP3    H232693   4.367   3.309  16.555  1.3164 -1.8084  1.4118
 3760TIP3   OH232694   1.378   5.383   1.746 -0.2281 -0.0972 -0.5923
 3760TIP3    H132695   1.322   5.459   1.730 -3.2802 -2.3180 -1.4882
 3760TIP3    H232696   1.372   5.369   1.841 -1.8722 -0.6908 -0.7504
 3761TIP3   OH232697   6.319   5.170  11.625 -0.2035 -0.9057  0.8571
 3761TIP3    H132698   6.266   5.093  11.647  0.0645 -1.1639  0.6008
 3761TIP3    H232699   6.396   5.162  11.681  0.2212 -1.2728  0.2304
 3762TIP3   OH232700   4.952   3.687  13.804 -0.0670  0.1965 -0.9844
 3762TIP3    H132701   4.867   3.647  13.822  0.5599 -0.3281  1.0759
 3762TIP3    H232702   4.984   3.641  13.726 -1.3605 -0.0384 -1.4109
 3763TIP3   OH232703   3.700   2.785  15.487 -0.1951  0.7817 -0.3123
 3763TIP3    H132704   3.770   2.782  15.552 -0.5494  0.8550  0.0689
 3763TIP3    H232705   3.679   2.693  15.470  1.3206  0.6591 -1.8699
 3764TIP3   OH232706   2.842   1.903   1.659  0.1005 -0.6444  0.3181
 3764TIP3    H132707   2.910   1.969   1.646 -1.7103  1.1692 -0.5455
 3764TIP3    H232708   2.791   1.935   1.733 -0.9577 -0.9264 -0.2664
 3765TIP3   OH232709   2.611   4.207   4.831  0.6519 -0.2932  0.6168
 3765TIP3    H132710   2.601   4.302   4.830  2.0156 -0.1296 -0.9326
 3765TIP3    H232711   2.534   4.175   4.878 -0.2472  1.5099  0.4336
 3766TIP3   OH232712   2.442   2.368  11.167 -0.1536  0.1799 -0.2410
 3766TIP3    H132713   2.476   2.454  11.144  0.7064  0.0725  0.5849
 3766TIP3    H232714   2.443   2.366  11.263 -2.1322  0.0205 -0.1765
 3767TIP3   OH232715   5.207   2.946  15.342 -0.3327  0.2474  0.0423
 3767TIP3    H132716   5.293   2.978  15.315 -0.3704  0.6741  0.4075
 3767TIP3    H232717   5.149   3.021  15.331 -0.5159  0.1712  0.4725
 3768TIP3   OH232718   3.870   3.749  13.319  1.1792 -0.2625  0.4985
 3768TIP3    H132719   3.945   3.747  13.261  0.6773 -2.3034 -0.1925
 3768TIP3    H232720   3.804   3.695  13.275  0.0905 -0.3061  2.0752
 3769TIP3   OH232721   4.609   0.873  14.925  0.1741  0.4994 -0.7255
 3769TIP3    H132722   4.640   0.853  14.837  0.1731  2.3535 -1.1807
 3769TIP3    H232723   4.687   0.866  14.981  0.6173  1.3510 -1.2250
 3770TIP3   OH232724   0.231   6.280  15.272  0.0757  0.4475 -0.2021
 3770TIP3    H132725   0.190   6.257  15.188 -0.9290 -0.6834  0.5733
 3770TIP3    H232726   0.293   6.210  15.289 -0.9773 -0.2645  0.8189
 3771TIP3   OH232727   2.949   4.778   1.688  0.1839 -0.1771  0.2177
 3771TIP3    H132728   2.967   4.741   1.602 -0.1622  0.2587 -0.0483
 3771TIP3    H232729   2.860   4.748   1.709 -0.4385  1.1910 -0.3826
 3772TIP3   OH232730   4.031   5.085  10.568  0.4437  0.3147  0.1892
 3772TIP3    H132731   3.985   5.028  10.506 -0.0844 -1.1800  1.8728
 3772TIP3    H232732   4.123   5.071  10.548  0.2797  0.7679 -1.0094
 3773TIP3   OH232733   2.184   1.627   4.443 -0.5250  0.0030  0.4679
 3773TIP3    H132734   2.179   1.579   4.360  0.8683  1.5404 -0.5935
 3773TIP3    H232735   2.185   1.719   4.417  0.0175  0.5275  2.2007
 3774TIP3   OH232736   3.628   1.172   3.921 -0.8133 -0.3978 -0.6202
 3774TIP3    H132737   3.560   1.114   3.956 -0.4049 -0.1925  0.5384
 3774TIP3    H232738   3.707   1.148   3.969 -0.3437  0.2159 -1.0790
 3775TIP3   OH232739   2.832   0.146   3.002 -0.1671  0.2196 -0.5027
 3775TIP3    H132740   2.797   0.072   2.953 -0.6688  1.0725 -1.4557
 3775TIP3    H232741   2.777   0.220   2.977 -0.0301  0.8127  0.8649
 3776TIP3   OH232742   3.893   5.452  13.845 -0.2668  0.0010  0.3918
 3776TIP3    H132743   3.804   5.484  13.832 -0.0737  0.5915  0.4886
 3776TIP3    H232744   3.882   5.366  13.887 -0.7724  0.2968  0.8700
 3777TIP3   OH232745   2.284   6.592   0.484 -0.8706 -0.0006  0.0066
 3777TIP3    H132746   2.372   6.558   0.472  0.2664  1.9611  2.0881
 3777TIP3    H232747   2.251   6.604   0.395  0.9716 -0.7102 -0.8230
 3778TIP3   OH232748   4.332   0.564  13.662  0.6860  0.0131  0.1333
 3778TIP3    H132749   4.256   0.550  13.605  0.2863  0.9743  0.4161
 3778TIP3    H232750   4.295   0.566  13.751  0.8979  1.4349  0.2093
 3779TIP3   OH232751   4.109   3.307   6.356  0.3613 -0.1339 -0.0255
 3779TIP3    H132752   4.052   3.337   6.426  0.8727  0.2255  0.2468
 3779TIP3    H232753   4.165   3.241   6.398  0.4675 -0.1347 -0.1674
 3780TIP3   OH232754   2.997   4.080   5.249  0.2716 -0.3625 -0.4207
 3780TIP3    H132755   2.918   4.027   5.253  0.7211 -1.0838 -0.7158
 3780TIP3    H232756   3.050   4.038   5.180  0.3548  0.8761 -1.1338
 3781TIP3   OH232757   6.348   5.865   0.559 -0.1027 -0.1747 -0.1620
 3781TIP3    H132758   6.269   5.910   0.591  0.9696  1.4482  0.2883
 3781TIP3    H232759   6.413   5.881   0.627  0.6133 -1.5976 -0.4832
 3782TIP3   OH232760   3.169   6.755   0.977 -0.0584  0.2709 -1.0488
 3782TIP3    H132761   3.255   6.752   0.933  0.7505  3.8706 -0.0540
 3782TIP3    H232762   3.108   6.776   0.907  0.2070 -0.1771 -1.4244
 3783TIP3   OH232763   5.641   1.036   1.541  0.3979  0.8166 -0.0239
 3783TIP3    H132764   5.636   0.986   1.622 -0.6859  1.2056  0.1664
 3783TIP3    H232765   5.726   1.014   1.504  0.3388 -0.4089  0.5350
 3784TIP3   OH232766   2.901   0.355  16.732  0.3958 -0.4964  0.3024
 3784TIP3    H132767   2.935   0.413  16.664 -1.0845 -0.6083 -0.5836
 3784TIP3    H232768   2.974   0.296  16.753  1.5958  0.9706  0.4712
 3785TIP3   OH232769   0.618   2.233   6.086 -0.2607  0.0379 -0.0365
 3785TIP3    H132770   0.700   2.185   6.096  1.6435  2.8462 -0.7851
 3785TIP3    H232771   0.617   2.261   5.994 -2.2270 -0.1599 -0.1205
 3786TIP3   OH232772   5.558   4.305  17.221 -0.2255  0.6481 -0.5036
 3786TIP3    H132773   5.577   4.253  17.299  0.8127 -0.2574 -1.3316
 3786TIP3    H232774   5.466   4.289  17.202 -1.1755  2.6774  1.8208
 3787TIP3   OH232775   1.415   0.948  15.345 -0.3361 -0.1074  0.3610
 3787TIP3    H132776   1.503   0.969  15.313 -1.0833  2.0586 -0.4667
 3787TIP3    H232777   1.419   0.968  15.439  0.5797 -1.9997  0.7646
 3788TIP3   OH232778   6.544   3.066  13.627 -0.2877 -0.0482  0.1533
 3788TIP3    H132779   6.607   3.065  13.555 -0.9067 -0.5154 -0.3911
 3788TIP3    H232780   6.460   3.089  13.586 -0.2913  1.6893  1.0445
 3789TIP3   OH232781   4.006   3.748  11.758  0.2071  0.5036 -0.4625
 3789TIP3    H132782   4.071   3.734  11.689  0.8384 -1.2595  0.4380
 3789TIP3    H232783   4.030   3.686  11.827 -1.4241  1.0180  0.6262
 3790TIP3   OH232784   4.494   5.536  15.812 -0.6525 -0.0769 -0.1467
 3790TIP3    H132785   4.477   5.630  15.803  0.1101  0.1462  0.5586
 3790TIP3    H232786   4.572   5.520  15.758  0.3684  0.0973  1.2208
 3791TIP3   OH232787   0.330   2.105  15.779  0.3393  0.2890 -0.2864
 3791TIP3    H132788   0.403   2.136  15.833  1.2208 -1.8115 -0.1543
 3791TIP3    H232789   0.363   2.110  15.690  1.1029 -1.5494 -0.1690
 3792TIP3   OH232790   4.880   4.389   5.210 -0.6938  0.6397 -0.0471
 3792TIP3    H132791   4.812   4.428   5.155  1.5330  0.8190 -2.9013
 3792TIP3    H232792   4.962   4.427   5.178  0.8278  0.7315  3.4907
 3793TIP3   OH232793   1.114   2.835   0.668 -0.2281 -0.3483 -0.3390
 3793TIP3    H132794   1.099   2.745   0.699 -0.1403 -0.3652 -0.3468
 3793TIP3    H232795   1.051   2.887   0.718  1.2238 -0.0969  1.3003
 3794TIP3   OH232796   6.257   4.348  15.575 -0.0855 -0.5704 -0.3796
 3794TIP3    H132797   6.183   4.325  15.520 -0.1354  0.8447 -0.9242
 3794TIP3    H232798   6.334   4.324  15.524 -0.1219 -2.0972  0.2104
 3795TIP3   OH232799   6.426   1.232  14.939 -0.6070 -0.2426  0.3175
 3795TIP3    H132800   6.335   1.256  14.958 -0.6053 -0.9467  1.2824
 3795TIP3    H232801   6.470   1.237  15.024 -0.2291 -1.9277  0.2461
 3796TIP3   OH232802   3.402   5.341  15.009 -0.2294 -0.3127 -0.8346
 3796TIP3    H132803   3.393   5.392  14.929 -4.2444  0.5985 -0.0318
 3796TIP3    H232804   3.356   5.259  14.991 -1.6223  0.0929  0.5506
 3797TIP3   OH232805   6.207   3.358   1.569  0.0578 -0.3012  0.0938
 3797TIP3    H132806   6.204   3.304   1.648 -0.6343 -1.3560 -0.6063
 3797TIP3    H232807   6.248   3.302   1.503 -1.4793 -0.3572 -0.8960
 3798TIP3   OH232808   0.085   2.994   2.127  0.7110 -0.0834  0.2836
 3798TIP3    H132809   0.042   2.910   2.142  2.5274 -1.3184 -1.0280
 3798TIP3    H232810   0.134   2.982   2.046  0.3323  2.5607 -0.4434
 3799TIP3   OH232811   5.736   0.861   2.918  0.3226 -0.4359  0.5071
 3799TIP3    H132812   5.823   0.892   2.894  0.3234  2.0733  3.1540
 3799TIP3    H232813   5.679   0.891   2.848  1.3674 -0.9114 -0.5761
 3800TIP3   OH232814   2.008   2.370   0.007  0.2235 -0.1324 -0.2357
 3800TIP3    H132815   1.929   2.318   0.019 -0.7136  1.7458  3.0493
 3800TIP3    H232816   1.977   2.456  -0.020  1.2963  0.2117 -0.4219
 3801TIP3   OH232817   1.215   0.326  13.016 -0.5081 -0.5563  0.1443
 3801TIP3    H132818   1.295   0.374  12.992 -0.9296  0.1526  0.1264
 3801TIP3    H232819   1.191   0.279  12.936 -0.0898 -0.8129  0.1628
 3802TIP3   OH232820   2.122   4.911  16.167  0.7666  0.4952  0.0020
 3802TIP3    H132821   2.167   4.996  16.169  0.4140  0.6784  0.4713
 3802TIP3    H232822   2.044   4.925  16.221  0.2462  0.1278 -0.6489
 3803TIP3   OH232823   2.110   1.360  14.602 -0.1450  0.2427 -0.2583
 3803TIP3    H132824   2.164   1.285  14.626  0.7786  0.9443 -0.0675
 3803TIP3    H232825   2.079   1.340  14.513 -2.3355 -1.6756  0.8472
 3804TIP3   OH232826   6.589   1.351  13.323  0.2071  0.4618  0.2970
 3804TIP3    H132827   6.661   1.294  13.348 -1.6457 -1.6454  1.1230
 3804TIP3    H232828   6.526   1.293  13.281 -1.7994  1.8702  1.2072
 3805TIP3   OH232829   4.821   2.546   2.994 -0.4403  0.4518  0.6541
 3805TIP3    H132830   4.744   2.602   2.996 -0.6877  0.1075  2.2465
 3805TIP3    H232831   4.793   2.464   3.035  1.0607  0.7728  2.4640
 3806TIP3   OH232832   6.491   5.184  11.875  0.8237  0.6872  0.0375
 3806TIP3    H132833   6.520   5.245  11.807  2.4149  3.1932  2.7191
 3806TIP3    H232834   6.572   5.145  11.908 -0.0357 -1.5703 -0.3967
 3807TIP3   OH232835   5.838   5.241   6.230  0.6422 -0.1314  0.3573
 3807TIP3    H132836   5.858   5.272   6.142 -1.3753 -0.0315 -0.1005
 3807TIP3    H232837   5.924   5.237   6.273  1.5627  0.8067 -1.2632
 3808TIP3   OH232838   5.271   6.421  13.559  0.7565 -0.3303  0.0452
 3808TIP3    H132839   5.321   6.360  13.505  0.4553 -0.3368 -0.2326
 3808TIP3    H232840   5.183   6.385  13.561  0.6541 -0.0790  0.1483
 3809TIP3   OH232841   2.167   0.747   1.164  0.2073  0.3674  0.5394
 3809TIP3    H132842   2.138   0.764   1.074  1.5439 -0.0330 -0.0018
 3809TIP3    H232843   2.213   0.663   1.158  3.0362  1.7618  0.9034
 3810TIP3   OH232844   0.329   5.448  16.878 -0.2093  0.2912  0.0439
 3810TIP3    H132845   0.251   5.456  16.932 -0.9270 -1.7918 -0.5990
 3810TIP3    H232846   0.402   5.455  16.940 -0.8719  1.9589  0.6877
 3811TIP3   OH232847   6.474   2.238  15.769 -0.0260 -0.0421  0.2585
 3811TIP3    H132848   6.415   2.232  15.694  0.7140  1.1833 -0.4418
 3811TIP3    H232849   6.435   2.179  15.835 -2.0778  0.8234 -0.1211
 3812TIP3   OH232850   6.700   5.064   5.820  0.1704  0.1454  0.3253
 3812TIP3    H132851   6.643   5.004   5.869 -0.6836  1.0050  0.4229
 3812TIP3    H232852   6.788   5.045   5.853  0.3573 -2.8750 -1.5168
 3813TIP3   OH232853   3.905   0.763   1.910  0.5889 -0.1511 -0.5105
 3813TIP3    H132854   3.864   0.809   1.984  0.7872  1.9101 -1.6149
 3813TIP3    H232855   3.904   0.827   1.839  2.6166 -1.2364 -1.5880
 3814TIP3   OH232856   4.191   4.036  14.651 -0.4226 -0.1834  0.0826
 3814TIP3    H132857   4.156   4.027  14.562 -2.4696 -1.1176  0.9307
 3814TIP3    H232858   4.173   4.126  14.675 -1.8462 -0.4980  0.2975
 3815TIP3   OH232859   3.089   1.328  14.007 -0.9951 -0.2493  0.3228
 3815TIP3    H132860   3.086   1.246  14.056  2.4551 -0.0349  1.1293
 3815TIP3    H232861   3.031   1.387  14.056 -0.5272 -1.1272  2.0227
 3816TIP3   OH232862   0.802   2.692   3.486 -0.2661 -0.3576  0.5266
 3816TIP3    H132863   0.787   2.731   3.572  0.9663 -1.7153  1.3994
 3816TIP3    H232864   0.869   2.748   3.446 -1.0869  0.4764  0.2907
 3817TIP3   OH232865   4.616   4.989   5.734  0.2099 -0.5456  0.0040
 3817TIP3    H132866   4.575   5.041   5.803  1.3255  0.2443  0.0915
 3817TIP3    H232867   4.630   4.903   5.774  2.4684  0.3903  1.4220
 3818TIP3   OH232868   0.729   4.233  15.647  0.2379 -0.0577 -0.8493
 3818TIP3    H132869   0.690   4.175  15.581 -2.0956 -0.4982  0.7961
 3818TIP3    H232870   0.773   4.173  15.708 -0.2099  0.0845 -0.3820
 3819TIP3   OH232871   3.621   6.070   2.775 -0.3299  0.2933 -0.4125
 3819TIP3    H132872   3.646   6.135   2.841  0.2470 -0.2400 -0.0924
 3819TIP3    H232873   3.529   6.051   2.793 -0.2998  0.4824 -0.0479
 3820TIP3   OH232874   6.457   2.527  13.119 -0.3641 -0.1058 -0.0247
 3820TIP3    H132875   6.460   2.449  13.173  1.0828  0.4595  0.7582
 3820TIP3    H232876   6.389   2.582  13.160 -0.4170 -0.3642  0.2376
 3821TIP3   OH232877   3.228   1.304  13.315  0.0198 -0.3759  0.4344
 3821TIP3    H132878   3.289   1.292  13.243  0.1759  1.3143  0.2566
 3821TIP3    H232879   3.143   1.279  13.279  0.2922 -0.7940  0.0742
 3822TIP3   OH232880   1.965   2.128   4.012 -0.5620 -0.2834 -0.2032
 3822TIP3    H132881   1.997   2.214   4.040 -2.6884  0.9225 -1.2856
 3822TIP3    H232882   1.994   2.120   3.921 -0.5814 -0.6244 -0.1807
 3823TIP3   OH232883   6.290   1.851   4.384 -0.5402 -0.0655 -0.2855
 3823TIP3    H132884   6.278   1.776   4.325 -2.2003 -0.1501  0.1002
 3823TIP3    H232885   6.333   1.917   4.330 -0.6279 -0.6833 -1.1404
 3824TIP3   OH232886   0.781   3.399  14.923  0.3598 -0.0910 -0.2571
 3824TIP3    H132887   0.761   3.366  15.011 -0.5590  0.7937 -0.1065
 3824TIP3    H232888   0.745   3.488  14.923  0.0745 -0.1857 -1.6259
 3825TIP3   OH232889   0.016   2.385  15.383 -0.2391 -0.3519 -0.0459
 3825TIP3    H132890  -0.067   2.387  15.335  0.0611 -0.7475 -0.5910
 3825TIP3    H232891  -0.001   2.326  15.456 -1.5302  2.2662  1.9557
 3826TIP3   OH232892   0.228   1.199   5.998  0.4194  0.4276 -0.1289
 3826TIP3    H132893   0.226   1.115   6.043 -0.8725  0.2281 -0.5297
 3826TIP3    H232894   0.260   1.261   6.064  1.6549 -0.3974  0.0829
 3827TIP3   OH232895   3.514   5.641  16.337  0.4413  0.0457 -0.1082
 3827TIP3    H132896   3.466   5.709  16.289  0.6056 -0.5353 -1.1420
 3827TIP3    H232897   3.598   5.634  16.291 -0.2657 -2.0995 -1.2261
 3828TIP3   OH232898   4.300   1.955  13.208  0.2499 -0.1229 -0.3574
 3828TIP3    H132899   4.293   1.920  13.119 -0.2593 -1.3876  0.1576
 3828TIP3    H232900   4.385   1.925  13.240  0.7604  0.9557 -0.6609
 3829TIP3   OH232901   3.283   5.402  16.644 -0.2481  0.3227  0.0035
 3829TIP3    H132902   3.358   5.459  16.660 -0.7912  0.9521  0.3413
 3829TIP3    H232903   3.234   5.404  16.727 -0.9185  0.3361 -0.3913
 3830TIP3   OH232904   4.893   0.904   2.481 -0.2505  0.2131 -0.1497
 3830TIP3    H132905   4.808   0.946   2.471 -0.8554 -0.8074  0.4734
 3830TIP3    H232906   4.953   0.957   2.429 -1.1174  1.3990  0.0325
 3831TIP3   OH232907   5.231   5.354  11.357  0.2431 -0.3685 -0.1061
 3831TIP3    H132908   5.215   5.269  11.398 -0.6915 -0.2609 -0.2171
 3831TIP3    H232909   5.271   5.334  11.273 -0.4032 -0.7287 -0.3311
 3832TIP3   OH232910   5.825   4.190   1.018  0.0931 -0.1003 -0.3148
 3832TIP3    H132911   5.865   4.187   1.104  0.6610 -0.1039 -0.5760
 3832TIP3    H232912   5.777   4.107   1.012  1.5356 -0.9454 -0.6976
 3833TIP3   OH232913   1.641   4.697   3.834  0.1555 -0.3152  0.3633
 3833TIP3    H132914   1.683   4.778   3.861  0.6812 -0.8130  1.1066
 3833TIP3    H232915   1.571   4.684   3.899 -1.7806  0.9423 -1.3392
 3834TIP3   OH232916   2.674   6.326   3.657 -0.2482  0.3076 -0.1815
 3834TIP3    H132917   2.764   6.306   3.683 -0.1999  1.5130  0.6613
 3834TIP3    H232918   2.658   6.414   3.692 -1.5005  0.4191 -0.9776
 3835TIP3   OH232919   0.831   1.317   1.887  0.2168 -0.1251  0.1438
 3835TIP3    H132920   0.748   1.274   1.868  1.0089 -0.8673 -1.8999
 3835TIP3    H232921   0.808   1.391   1.943 -1.8369 -0.1524 -0.5875
 3836TIP3   OH232922   0.603   0.008   4.714 -0.0223 -0.1394  0.2522
 3836TIP3    H132923   0.574   0.096   4.738 -1.1295 -0.5942  0.6346
 3836TIP3    H232924   0.641   0.018   4.626 -2.1262  0.3674 -0.6686
 3837TIP3   OH232925   4.404   0.276   2.569 -0.5524 -0.0117 -0.4908
 3837TIP3    H132926   4.401   0.182   2.553 -2.0271  0.3653 -2.9750
 3837TIP3    H232927   4.334   0.312   2.515  0.1259  2.5594  0.1949
 3838TIP3   OH232928   1.527   2.725  15.856  0.4361 -0.9863  0.7689
 3838TIP3    H132929   1.502   2.712  15.765  0.7497 -0.6985  0.6387
 3838TIP3    H232930   1.447   2.711  15.906  0.1988 -0.8568  0.4252
 3839TIP3   OH232931   1.658   2.855   5.744 -0.1441  0.2500 -0.3807
 3839TIP3    H132932   1.702   2.812   5.817  0.1251 -1.1390 -1.3288
 3839TIP3    H232933   1.697   2.817   5.666 -2.4334 -0.4423 -1.2765
 3840TIP3   OH232934   4.849   4.181   2.957  0.7607  0.1704  0.0861
 3840TIP3    H132935   4.808   4.246   3.014 -3.2530 -3.0354  1.3469
 3840TIP3    H232936   4.880   4.113   3.017  2.8127 -0.1708 -1.2709
 3841TIP3   OH232937   0.316   5.569   2.569  0.2582 -0.5388  0.6621
 3841TIP3    H132938   0.249   5.628   2.537  0.0252 -0.9560  0.3739
 3841TIP3    H232939   0.276   5.482   2.565  1.2496 -0.9792 -0.8077
 3842TIP3   OH232940   5.669   2.724   5.323 -0.2155  0.3949  0.6546
 3842TIP3    H132941   5.653   2.697   5.233  0.2934 -0.8518  0.9201
 3842TIP3    H232942   5.593   2.691   5.372  0.4158 -0.5955  0.9836
 3843TIP3   OH232943   2.482   5.037  14.242  0.5070  0.4764 -0.5797
 3843TIP3    H132944   2.480   5.030  14.337  1.2052  1.9063 -0.4344
 3843TIP3    H232945   2.514   4.952  14.212  0.1087 -0.0498  0.4406
 3844TIP3   OH232946   3.813   2.831  15.181 -0.1497  0.4636 -0.0992
 3844TIP3    H132947   3.737   2.775  15.195  0.6958 -0.8499 -0.5630
 3844TIP3    H232948   3.780   2.920  15.192 -1.3712 -0.1390  1.4932
 3845TIP3   OH232949   3.948   3.074   4.536  0.7260  0.0075 -0.1219
 3845TIP3    H132950   3.961   3.007   4.604 -1.0330 -0.2853 -0.0288
 3845TIP3    H232951   3.890   3.139   4.576 -3.0273 -1.7321 -2.1736
 3846TIP3   OH232952   2.394   2.508   2.248  0.1680 -0.4865  0.0398
 3846TIP3    H132953   2.383   2.505   2.153 -1.6018 -0.0773  0.1982
 3846TIP3    H232954   2.393   2.601   2.270  2.5739 -0.4606  0.3039
 3847TIP3   OH232955   0.790   3.104   6.571  0.9732 -0.0745 -0.2764
 3847TIP3    H132956   0.726   3.101   6.642 -0.2534 -0.0769 -1.3584
 3847TIP3    H232957   0.837   3.021   6.577 -1.3404 -1.5565 -1.4501
 3848TIP3   OH232958   6.256   0.167  14.968 -0.7992  0.2765 -0.5400
 3848TIP3    H132959   6.196   0.175  15.042  0.0157 -0.2505  0.1947
 3848TIP3    H232960   6.286   0.256  14.951  1.4847  0.1077  1.8989
 3849TIP3   OH232961   1.369   1.252  15.198  0.3722  0.1192 -0.2062
 3849TIP3    H132962   1.319   1.306  15.259  0.0946 -0.8834  0.4754
 3849TIP3    H232963   1.336   1.163  15.212 -0.0807 -0.0738 -2.2079
 3850TIP3   OH232964   2.979   5.370  15.461  0.4774  0.1743 -0.8788
 3850TIP3    H132965   3.047   5.366  15.528  1.4415 -0.5588 -1.8735
 3850TIP3    H232966   3.006   5.442  15.403  1.3162 -1.1480 -2.1938
 3851TIP3   OH232967   3.556   5.879   6.419  0.4972  0.0540  0.0614
 3851TIP3    H132968   3.616   5.930   6.365  1.5850 -0.4460  0.7526
 3851TIP3    H232969   3.562   5.790   6.384 -0.9714  0.2508 -0.7852
 3852TIP3   OH232970   2.266   3.980   3.045 -0.4319  0.2559  0.2921
 3852TIP3    H132971   2.303   3.944   2.964 -1.0300 -0.0951  0.1711
 3852TIP3    H232972   2.232   3.904   3.092  0.2517  0.4047  1.0676
 3853TIP3   OH232973   1.832   0.673  14.174  0.2387  0.2316 -0.2672
 3853TIP3    H132974   1.792   0.613  14.237  1.5688  0.9650  1.3473
 3853TIP3    H232975   1.836   0.623  14.092  0.1941 -1.4227  0.6998
 3854TIP3   OH232976   1.832   3.294  12.774  0.0012 -0.1353  0.2128
 3854TIP3    H132977   1.887   3.219  12.799 -1.4350 -0.6089  2.2351
 3854TIP3    H232978   1.883   3.371  12.799  0.5619 -0.5105  0.2380
 3855TIP3   OH232979   5.819   3.358   2.237  0.0367 -0.5891  0.1958
 3855TIP3    H132980   5.865   3.434   2.270  0.0867 -0.8864  0.8308
 3855TIP3    H232981   5.866   3.333   2.158 -1.3199  1.3690 -1.2925
 3856TIP3   OH232982   4.836   5.614   1.359  0.0858 -0.3405  0.6531
 3856TIP3    H132983   4.832   5.647   1.270 -1.1293  0.2182  0.8981
 3856TIP3    H232984   4.924   5.576   1.367  0.1259 -0.6119 -0.8405
 3857TIP3   OH232985   6.673   0.923   1.543 -0.3801 -0.2888 -0.2593
 3857TIP3    H132986   6.745   0.861   1.553  1.2598  1.2180 -1.9492
 3857TIP3    H232987   6.701   1.000   1.592 -0.9954  0.1794 -0.6301
 3858TIP3   OH232988   1.456   4.991  13.438  0.1792  0.3044 -0.3509
 3858TIP3    H132989   1.469   5.059  13.372  0.8246 -0.8501 -1.4685
 3858TIP3    H232990   1.362   4.972  13.434  0.1022  0.7024 -0.4671
 3859TIP3   OH232991   5.136   5.735  14.597  0.6809 -0.6687 -0.7254
 3859TIP3    H132992   5.151   5.828  14.616  0.5433 -0.5971 -0.9567
 3859TIP3    H232993   5.169   5.723  14.508  0.7733 -0.8607 -0.6663
 3860TIP3   OH232994   3.401   0.248  14.038 -0.1193 -0.0223 -0.0062
 3860TIP3    H132995   3.413   0.182  14.106  0.0771  1.2286  1.2141
 3860TIP3    H232996   3.471   0.232  13.975  1.8969  0.9572  1.8898
 3861TIP3   OH232997   4.973   1.152   0.225  0.3118  0.7805  0.3537
 3861TIP3    H132998   4.890   1.112   0.252  0.0867  0.6133 -0.5513
 3861TIP3    H232999   4.980   1.231   0.278  0.2236  0.1070  1.3872
 3862TIP3   OH233000   3.833   0.082  12.859 -0.3849 -0.0496 -0.3044
 3862TIP3    H133001   3.900   0.144  12.832  0.2094 -0.9350 -0.9440
 3862TIP3    H233002   3.867   0.042  12.938  0.7872 -1.8463 -1.6281
 3863TIP3   OH233003   6.732   2.083   5.914 -0.3035 -0.3024  0.4346
 3863TIP3    H133004   6.807   2.131   5.947 -1.0501 -0.4300  2.4502
 3863TIP3    H233005   6.728   2.106   5.821  3.3855 -1.8958 -0.2940
 3864TIP3   OH233006   6.752   5.306   0.747 -0.2450  0.2078  0.1787
 3864TIP3    H133007   6.718   5.233   0.697  0.4438 -1.6000  2.2058
 3864TIP3    H233008   6.695   5.312   0.823  0.7300  0.6481  0.9047
 3865TIP3   OH233009   3.480   5.355  16.366 -0.0740  0.1035 -0.5374
 3865TIP3    H133010   3.387   5.377  16.368 -0.5996 -1.9628 -0.0899
 3865TIP3    H233011   3.524   5.440  16.368 -1.8853  1.1377  2.6483
 3866TIP3   OH233012   4.165   0.959  13.574  0.4796 -0.6204 -0.0246
 3866TIP3    H133013   4.134   0.961  13.484  1.2239  0.5439 -0.2750
 3866TIP3    H233014   4.109   0.895  13.617 -2.4231  1.4927 -0.3762
 3867TIP3   OH233015   1.957   6.582   1.399  0.6596  0.1495  0.2726
 3867TIP3    H133016   1.913   6.535   1.470  0.3067 -0.9327 -0.6216
 3867TIP3    H233017   2.022   6.520   1.366  0.9880  0.7280 -0.1879
 3868TIP3   OH233018   5.483   2.358   2.342  0.4237 -0.0294 -0.4256
 3868TIP3    H133019   5.565   2.336   2.299  0.3532  0.3083 -0.7342
 3868TIP3    H233020   5.435   2.275   2.345 -0.6218  0.3646 -3.2539
 3869TIP3   OH233021   4.195   6.648   3.778  0.1157  0.8457 -0.2072
 3869TIP3    H133022   4.261   6.714   3.796  0.0891  0.8731 -0.2101
 3869TIP3    H233023   4.221   6.572   3.831  0.7873  0.4555 -1.0831
 3870TIP3   OH233024   0.361   4.267   3.031  0.4799 -0.0354  0.2304
 3870TIP3    H133025   0.302   4.286   3.104 -0.9132 -1.0542 -0.5899
 3870TIP3    H233026   0.430   4.333   3.039 -0.3049  0.6616  1.7198
 3871TIP3   OH233027   4.637   5.626  13.911  0.5761 -0.0181 -0.2277
 3871TIP3    H133028   4.684   5.703  13.880  1.8958 -0.8348 -0.3373
 3871TIP3    H233029   4.678   5.605  13.995  0.1841 -0.5537 -0.1633
 3872TIP3   OH233030   2.506   2.729  17.095  0.5341  0.0971 -0.2010
 3872TIP3    H133031   2.412   2.709  17.088  0.9741 -1.8464 -1.2993
 3872TIP3    H233032   2.546   2.646  17.121  2.0174  0.7114 -0.4495
 3873TIP3   OH233033   4.011   6.003  10.817 -0.0312 -0.1694 -0.1818
 3873TIP3    H133034   3.997   6.093  10.789 -0.0523  0.0417  0.4832
 3873TIP3    H233035   3.925   5.973  10.847  0.2380  0.0331  0.8258
 3874TIP3   OH233036   5.229   1.702   2.899  0.2001 -0.3135  0.1262
 3874TIP3    H133037   5.275   1.618   2.899  0.1621 -0.3418 -0.7486
 3874TIP3    H233038   5.152   1.688   2.844  0.0420  0.2146  0.2009
 3875TIP3   OH233039   1.682   3.415  10.820  0.1035  0.0491  0.0944
 3875TIP3    H133040   1.637   3.356  10.759 -0.4695 -1.6087  2.0111
 3875TIP3    H233041   1.729   3.357  10.879  0.5198  1.5803  1.3186
 3876TIP3   OH233042   5.781   0.672   1.880  0.6777 -0.5241  0.4827
 3876TIP3    H133043   5.778   0.710   1.968 -0.0134 -0.8111  0.5884
 3876TIP3    H233044   5.723   0.728   1.828  1.0358 -0.3918  0.2248
 3877TIP3   OH233045   2.858   0.109  16.230 -0.0514 -0.4887 -0.5591
 3877TIP3    H133046   2.948   0.092  16.203  0.1490 -2.2521  0.9818
 3877TIP3    H233047   2.845   0.202  16.214  0.1119 -1.1169 -6.1019
 3878TIP3   OH233048   5.627   1.632   3.106  0.1424 -0.7121  0.2543
 3878TIP3    H133049   5.666   1.663   3.188  0.4175 -1.6440  0.4905
 3878TIP3    H233050   5.534   1.620   3.127  0.4556 -2.2621  0.8455
 3879TIP3   OH233051   5.532   3.531   4.968 -0.1652 -0.3603 -0.1554
 3879TIP3    H133052   5.492   3.615   4.945 -0.1425 -0.6750 -1.4098
 3879TIP3    H233053   5.599   3.517   4.901  0.0358 -1.2353  0.2145
 3880TIP3   OH233054   0.934   3.537   5.154  0.0489  0.1013 -0.3648
 3880TIP3    H133055   0.953   3.492   5.237 -0.7784 -0.7383 -0.6146
 3880TIP3    H233056   0.907   3.468   5.095  0.1268  0.7675 -1.1928
 3881TIP3   OH233057   4.406   1.149  10.859  0.0316  0.1159  0.0966
 3881TIP3    H133058   4.481   1.152  10.800  1.5164  0.2086  1.8723
 3881TIP3    H233059   4.340   1.203  10.817  0.8377 -0.2210 -1.6878
 3882TIP3   OH233060   2.035   0.036  15.937  0.1118 -0.7877  0.2911
 3882TIP3    H133061   2.024   0.115  15.885 -1.2082 -0.5635  0.8547
 3882TIP3    H233062   2.113  -0.006  15.902  1.1926  1.0599  0.3834
 3883TIP3   OH233063   2.122   3.271   1.596 -0.0155 -0.5106  0.1770
 3883TIP3    H133064   2.187   3.253   1.527 -1.7515  2.4234 -2.4947
 3883TIP3    H233065   2.047   3.217   1.573 -1.4263  2.0287 -1.8021
 3884TIP3   OH233066   5.255   2.714  11.901 -0.4899 -0.7859 -0.3436
 3884TIP3    H133067   5.248   2.621  11.881  0.6432 -1.3895  1.7846
 3884TIP3    H233068   5.165   2.741  11.920 -0.7246 -1.6125 -0.2579
 3885TIP3   OH233069   2.728   3.500   1.548  0.0043  0.4575  0.2428
 3885TIP3    H133070   2.638   3.528   1.530  0.3109  1.0246 -0.4565
 3885TIP3    H233071   2.762   3.473   1.462  0.2959 -0.3479  0.6132
 3886TIP3   OH233072   4.846   3.391  12.338 -0.3678 -0.1776 -0.1150
 3886TIP3    H133073   4.798   3.342  12.271 -2.1284  1.2627  0.0343
 3886TIP3    H233074   4.863   3.476  12.298 -0.0011  0.1483  0.7137
 3887TIP3   OH233075   2.646   1.086  12.142 -0.1150  0.5181  0.8741
 3887TIP3    H133076   2.711   1.039  12.195 -1.2403  0.9590  2.7727
 3887TIP3    H233077   2.651   1.046  12.056  0.0953 -2.0028  1.9759
 3888TIP3   OH233078   1.081   1.161  12.592  0.7635 -0.2296  0.0934
 3888TIP3    H133079   1.174   1.159  12.613  1.0645  0.5232 -1.1046
 3888TIP3    H233080   1.068   1.084  12.537  0.8942  0.2342 -0.5882
 3889TIP3   OH233081   0.871   1.079   5.474 -0.7104  0.1771  0.4514
 3889TIP3    H133082   0.848   1.172   5.473 -1.7690 -0.0613  1.1160
 3889TIP3    H233083   0.788   1.034   5.460 -0.3856 -0.6917  1.2401
 3890TIP3   OH233084   3.690   2.757   4.813 -0.1555 -0.0165  0.2348
 3890TIP3    H133085   3.637   2.742   4.735 -1.7149  2.1488  0.8128
 3890TIP3    H233086   3.638   2.722   4.886  1.1832 -1.8050  0.4227
 3891TIP3   OH233087   3.108   1.624  11.700 -0.0880  0.0422  0.0430
 3891TIP3    H133088   3.041   1.653  11.762 -1.8623  0.2869 -1.8823
 3891TIP3    H233089   3.094   1.530  11.691 -0.1304  0.0783 -0.2977
 3892TIP3   OH233090   5.273   4.315  13.946  0.0015  0.8580  0.0254
 3892TIP3    H133091   5.294   4.389  13.889 -1.4131  0.6288 -0.8517
 3892TIP3    H233092   5.354   4.298  13.994  0.9576  1.6781 -1.2202
 3893TIP3   OH233093   3.623   4.584   2.095 -0.0025  0.6104 -0.7992
 3893TIP3    H133094   3.598   4.573   2.187  0.8699 -0.0801 -0.6249
 3893TIP3    H233095   3.716   4.608   2.099  0.2711 -0.2692 -1.5171
 3894TIP3   OH233096   1.625   5.544   4.753  0.0990 -0.2118 -0.1986
 3894TIP3    H133097   1.660   5.531   4.665 -0.3062  0.0798 -0.4052
 3894TIP3    H233098   1.696   5.586   4.801 -0.2096  1.0776 -0.8232
 3895TIP3   OH233099   5.517   5.129  13.661  0.4583 -0.2597  0.0008
 3895TIP3    H133100   5.552   5.138  13.750 -0.9355 -1.3893  0.7070
 3895TIP3    H233101   5.473   5.213  13.645 -2.8832 -1.3983  2.1195
 3896TIP3   OH233102   4.754   5.998   1.392 -0.2863  0.1182 -0.1798
 3896TIP3    H133103   4.679   6.050   1.364 -0.6780 -1.2069 -1.7186
 3896TIP3    H233104   4.816   6.004   1.320  0.4429 -0.0706  0.4132
 3897TIP3   OH233105   4.491   4.955  14.138 -0.0756  0.0596 -0.2499
 3897TIP3    H133106   4.558   4.990  14.079  1.8916  0.7772  2.2405
 3897TIP3    H233107   4.513   4.863  14.147 -1.2137 -0.3819 -1.6143
 3898TIP3   OH233108   1.237   2.476  15.189 -0.1768  0.4973 -0.1190
 3898TIP3    H133109   1.172   2.452  15.123 -1.7949  2.2981  0.7284
 3898TIP3    H233110   1.185   2.504  15.264  1.6109  1.5873  0.7663
 3899TIP3   OH233111   3.609   6.054   1.635  0.2982  0.1612 -0.0289
 3899TIP3    H133112   3.677   6.008   1.684 -1.2356 -0.4525  1.6012
 3899TIP3    H233113   3.618   6.145   1.661  1.0878  0.2500 -0.5726
 3900TIP3   OH233114   0.395   0.489  14.754 -0.1797 -0.2304 -0.8788
 3900TIP3    H133115   0.473   0.505  14.700  0.5804  0.8641  0.4716
 3900TIP3    H233116   0.326   0.470  14.691  0.9366 -0.1470 -2.1747
 3901TIP3   OH233117   3.953   3.805   4.868  0.2083 -0.0129  0.3027
 3901TIP3    H133118   3.964   3.900   4.863  3.6414 -0.1969  2.0330
 3901TIP3    H233119   3.945   3.778   4.777 -0.2234  1.8318 -0.2672
 3902TIP3   OH233120   0.193   3.760  11.923  0.2070  0.2135  0.3754
 3902TIP3    H133121   0.110   3.739  11.965 -1.2242  0.1652 -2.2736
 3902TIP3    H233122   0.241   3.678  11.920 -0.3238 -0.1029  0.5112
 3903TIP3   OH233123   5.179   1.639   5.811  0.2142  0.0972 -0.2042
 3903TIP3    H133124   5.246   1.571   5.819  0.6321  0.6973  1.9041
 3903TIP3    H233125   5.151   1.657   5.901 -0.5696  2.0511 -0.7830
 3904TIP3   OH233126   1.494   5.480  12.078  0.1154 -0.9972 -0.3160
 3904TIP3    H133127   1.545   5.553  12.113  2.0620 -2.3324 -0.2049
 3904TIP3    H233128   1.501   5.490  11.983  0.5972 -1.1732 -0.3022
 3905TIP3   OH233129   6.433   1.167   2.352 -1.0131  0.1929  0.2558
 3905TIP3    H133130   6.459   1.259   2.349 -0.6774  0.0662 -1.0338
 3905TIP3    H233131   6.401   1.154   2.442  0.9474  1.0142  1.1238
 3906TIP3   OH233132   1.162   0.250  12.773 -0.5210  0.6056 -0.0134
 3906TIP3    H133133   1.093   0.185  12.784  0.7883 -0.4691  3.3576
 3906TIP3    H233134   1.242   0.198  12.762  0.2336  1.6930  0.1527
 3907TIP3   OH233135   5.538   1.878  13.015 -0.0709  0.0339  0.2129
 3907TIP3    H133136   5.476   1.927  13.069 -0.2270  0.6581 -0.5171
 3907TIP3    H233137   5.576   1.943  12.957 -2.1697 -0.9994 -2.5893
 3908TIP3   OH233138   1.556   6.664  11.618  0.5882 -0.0282  0.1699
 3908TIP3    H133139   1.627   6.600  11.605  1.8353  0.8520  2.1533
 3908TIP3    H233140   1.547   6.707  11.533  3.0192  0.3730  0.0295
 3909TIP3   OH233141   2.546   1.792   5.030  0.2014 -0.5276  0.0245
 3909TIP3    H133142   2.494   1.825   4.957  1.6357  0.5490 -0.5599
 3909TIP3    H233143   2.537   1.697   5.024 -0.9441 -0.3998 -0.5956
 3910TIP3   OH233144   4.011   0.047   4.462  0.4087 -0.0922 -0.0368
 3910TIP3    H133145   3.947   0.092   4.518  2.9313  0.2338  2.7903
 3910TIP3    H233146   3.992  -0.046   4.474 -0.6131  0.0166 -0.6524
 3911TIP3   OH233147   0.727   2.366   5.224 -0.0404 -0.7365 -0.2908
 3911TIP3    H133148   0.738   2.409   5.309  2.0677  0.0546 -0.9104
 3911TIP3    H233149   0.654   2.305   5.238 -2.3414  2.0663  0.9659
 3912TIP3   OH233150   3.863   3.011   2.989  0.0836  0.3384 -0.0333
 3912TIP3    H133151   3.913   3.083   2.951  0.2957  0.6173  0.7536
 3912TIP3    H233152   3.866   3.027   3.083  1.2883 -1.4315  0.2865
 3913TIP3   OH233153   6.316   6.264  16.975 -0.1077 -0.2226 -0.6792
 3913TIP3    H133154   6.351   6.275  17.064 -0.7071 -0.3873 -0.4227
 3913TIP3    H233155   6.394   6.247  16.921  0.3093  0.3582 -0.2681
 3914TIP3   OH233156   4.067   5.063  10.884 -0.1161  0.3199  0.2641
 3914TIP3    H133157   4.005   5.107  10.827 -0.0925  0.3071  0.2286
 3914TIP3    H233158   4.153   5.084  10.847 -0.1000  0.3286  0.3073
 3915TIP3   OH233159   6.283   2.871   2.520 -0.0958  0.3285 -0.4308
 3915TIP3    H133160   6.285   2.776   2.517 -1.0890  0.3154 -1.6134
 3915TIP3    H233161   6.347   2.895   2.586  1.0903 -1.1185 -1.0039
 3916TIP3   OH233162   0.001   5.045  15.904  0.3306  0.3539  0.4282
 3916TIP3    H133163   0.031   5.132  15.930  3.7213 -0.9271  1.3250
 3916TIP3    H233164   0.005   5.044  15.809  2.0527  0.6776  0.4760
 3917TIP3   OH233165   3.584   4.803  12.240  0.1644  0.3382  0.3662
 3917TIP3    H133166   3.533   4.884  12.233  0.1593  0.3975  1.0466
 3917TIP3    H233167   3.633   4.799  12.158  0.0910  0.9827  0.2840
 3918TIP3   OH233168   6.392   2.684   5.296 -0.1628  0.5074 -0.0252
 3918TIP3    H133169   6.416   2.711   5.208  1.2069 -1.2929 -0.2451
 3918TIP3    H233170   6.354   2.763   5.335  1.7181  2.1477 -1.2927
 3919TIP3   OH233171   6.492   4.604   0.723 -0.1266  0.5769  0.3942
 3919TIP3    H133172   6.545   4.680   0.748  0.3702  0.4119 -0.1531
 3919TIP3    H233173   6.549   4.528   0.738 -0.5928  0.3069  0.8678
 3920TIP3   OH233174   1.192   4.620  15.490 -0.1150 -0.3299  0.4496
 3920TIP3    H133175   1.238   4.680  15.431  1.3138  0.2942  2.1105
 3920TIP3    H233176   1.101   4.623  15.461 -0.0728  2.5324  0.3390
 3921TIP3   OH233177   1.616   5.640   1.469  0.1577 -0.0584  0.7956
 3921TIP3    H133178   1.545   5.576   1.477 -0.9560  0.9803 -0.2918
 3921TIP3    H233179   1.671   5.624   1.546 -0.2256 -2.1052  0.7132
 3922TIP3   OH233180   6.482   5.743   1.993  0.4735  0.0053  0.3166
 3922TIP3    H133181   6.534   5.789   1.927  0.0142  0.3140  0.1610
 3922TIP3    H233182   6.482   5.801   2.069  0.0134  0.2046  0.1703
 3923TIP3   OH233183   0.336   4.699   6.147 -0.5961 -0.0162 -0.0576
 3923TIP3    H133184   0.317   4.646   6.225 -0.3248  0.1913  0.1525
 3923TIP3    H233185   0.290   4.781   6.161 -3.5250 -1.2295 -1.7417
 3924TIP3   OH233186   5.947   4.199  16.455  0.3362 -0.1632  0.0718
 3924TIP3    H133187   5.881   4.220  16.521  0.7001 -0.0649  0.4075
 3924TIP3    H233188   5.955   4.279  16.403  0.2861 -0.1350  0.1079
 3925TIP3   OH233189   6.755   4.890   3.280 -0.4700  0.2750  0.0200
 3925TIP3    H133190   6.788   4.858   3.196 -1.0581  2.3806 -1.0910
 3925TIP3    H233191   6.672   4.844   3.292 -0.3305 -0.1226 -0.4863
 3926TIP3   OH233192   0.057   1.814  12.653  0.2895 -0.1213 -0.4257
 3926TIP3    H133193  -0.021   1.800  12.708  0.8642 -1.2987  0.1181
 3926TIP3    H233194   0.044   1.757  12.578  0.8233 -0.6454 -0.1248
 3927TIP3   OH233195   5.979   0.806   4.856  0.5371 -0.2094  0.1216
 3927TIP3    H133196   5.934   0.725   4.879  2.6442 -0.9272  2.0872
 3927TIP3    H233197   5.938   0.834   4.774  0.6672 -4.0223 -1.4401
 3928TIP3   OH233198   2.932   5.998  13.906 -0.0838 -0.0963  0.5138
 3928TIP3    H133199   2.957   6.017  13.815  0.6998 -0.9624  0.5285
 3928TIP3    H233200   2.836   5.997  13.905 -0.0841 -0.1538 -0.3163
 3929TIP3   OH233201   3.616   4.218   0.741  0.3891  0.2476 -0.2102
 3929TIP3    H133202   3.694   4.262   0.776  0.9967  0.2603 -1.5274
 3929TIP3    H233203   3.614   4.243   0.649 -1.0548  0.0542 -0.2564
 3930TIP3   OH233204   3.444   5.858  15.427  0.5325  0.0103 -0.1863
 3930TIP3    H133205   3.474   5.946  15.405  2.2594 -0.9896 -2.1472
 3930TIP3    H233206   3.425   5.817  15.342 -2.7539 -0.7563  0.7668
 3931TIP3   OH233207   1.899   3.403   1.627  0.4804 -0.3882  0.0935
 3931TIP3    H133208   1.885   3.490   1.665  0.2120 -0.5140  0.2847
 3931TIP3    H233209   1.971   3.416   1.565  0.0802  0.0892 -0.2796
 3932TIP3   OH233210   1.103   2.843   5.177  0.3760 -0.4464  0.7229
 3932TIP3    H133211   1.184   2.802   5.146  0.6212  0.7809 -0.2973
 3932TIP3    H233212   1.131   2.924   5.218 -0.2160 -0.7323  1.7309
 3933TIP3   OH233213   6.733   3.515   0.013 -0.2823  0.7985  0.2883
 3933TIP3    H133214   6.786   3.593   0.025  0.2713  0.3086  1.1279
 3933TIP3    H233215   6.683   3.507   0.095  0.8563 -0.6014  0.8850
 3934TIP3   OH233216   1.206   5.009  14.688 -0.3078  0.1205  0.5059
 3934TIP3    H133217   1.286   4.992  14.639 -0.5005  0.8668 -0.0786
 3934TIP3    H233218   1.175   5.094  14.656 -0.0943  0.9603  2.3602
 3935TIP3   OH233219   5.817   2.395   3.542  0.4249  0.2061  0.1626
 3935TIP3    H133220   5.736   2.376   3.495 -0.7109 -0.0274  2.1086
 3935TIP3    H233221   5.885   2.395   3.474 -1.0683 -0.4170 -1.3987
 3936TIP3   OH233222   3.906   0.437   5.111 -0.1660  0.2511  0.2216
 3936TIP3    H133223   3.878   0.346   5.100 -2.8654  0.8485  1.1641
 3936TIP3    H233224   3.867   0.463   5.194  0.2968  2.3523 -0.1790
 3937TIP3   OH233225   2.527   5.667  16.387 -0.1064  0.3899  0.1399
 3937TIP3    H133226   2.619   5.644  16.371 -0.1620  0.8681 -0.9812
 3937TIP3    H233227   2.524   5.762  16.374 -0.5124  0.5938  1.5090
 3938TIP3   OH233228   0.760   0.336   5.999 -0.1370  0.1463 -0.3598
 3938TIP3    H133229   0.682   0.360   5.948 -0.4650  0.0670  0.0928
 3938TIP3    H233230   0.737   0.252   6.039 -0.7182  1.1603  1.5731
 3939TIP3   OH233231   6.630   4.830   2.214 -0.3160  0.5268 -0.1099
 3939TIP3    H133232   6.622   4.737   2.236 -0.4507  0.6490  0.3765
 3939TIP3    H233233   6.720   4.853   2.237 -0.1252  0.3991 -0.7071
 3940TIP3   OH233234   2.566   5.527  11.630  0.2704  0.1749 -0.0599
 3940TIP3    H133235   2.511   5.449  11.618 -1.4364  1.1861  0.7225
 3940TIP3    H233236   2.597   5.520  11.721  1.7943 -0.5738 -0.6085
 3941TIP3   OH233237   5.687   5.066   4.428 -0.1106  0.5549 -0.0953
 3941TIP3    H133238   5.711   4.987   4.476  0.8472  2.0090  1.9125
 3941TIP3    H233239   5.765   5.089   4.378  0.6369  1.7744  1.5527
 3942TIP3   OH233240   1.701   2.606   3.523  0.5012 -0.2678  0.4271
 3942TIP3    H133241   1.752   2.687   3.527  0.0362  0.0854 -0.5044
 3942TIP3    H233242   1.761   2.541   3.487  0.6693 -0.1671  0.5254
 3943TIP3   OH233243   4.232   1.986   2.782  0.2037 -0.2596  0.2874
 3943TIP3    H133244   4.324   2.014   2.779  0.2061 -0.2715  0.2421
 3943TIP3    H233245   4.234   1.897   2.747  0.1970 -0.3174  0.4338
 3944TIP3   OH233246   1.531   4.945  12.198 -0.6926 -0.3231 -0.6529
 3944TIP3    H133247   1.463   5.011  12.188 -1.4805 -1.2525 -1.5079
 3944TIP3    H233248   1.531   4.897  12.116 -0.6705 -1.8997  0.2306
 3945TIP3   OH233249   5.194   0.221   3.171 -0.8436  0.4836 -0.1128
 3945TIP3    H133250   5.217   0.128   3.171 -1.2250  0.3558  1.7334
 3945TIP3    H233251   5.278   0.266   3.163 -0.5113 -0.0141  0.5300
 3946TIP3   OH233252   4.390   1.453  17.244 -0.3545  0.2294 -0.4437
 3946TIP3    H133253   4.313   1.511  17.238 -0.5598  0.1154  0.7359
 3946TIP3    H233254   4.442   1.491  17.315  0.8299  0.4488 -1.3988
 3947TIP3   OH233255   5.842   4.442  13.477  0.2076  0.0608  0.1306
 3947TIP3    H133256   5.790   4.428  13.555 -0.3216  0.9318 -0.0455
 3947TIP3    H233257   5.889   4.360  13.463 -3.2480 -1.8881 -1.3124
 3948TIP3   OH233258   3.269   3.417  12.077  0.3544 -0.3133  0.1337
 3948TIP3    H133259   3.356   3.441  12.109 -0.0238 -0.0930  1.0341
 3948TIP3    H233260   3.261   3.324  12.097  0.2167 -0.2348  0.4440
 3949TIP3   OH233261   4.419   1.881   6.089  0.0893  0.3339 -0.5442
 3949TIP3    H133262   4.443   1.912   6.177 -2.3721  1.0274 -0.0421
 3949TIP3    H233263   4.369   1.801   6.105  0.0810  0.1664 -1.3822
 3950TIP3   OH233264   1.328   2.433   3.627 -0.2088  0.0372  0.2926
 3950TIP3    H133265   1.396   2.375   3.661  0.9813  1.9371  1.3398
 3950TIP3    H233266   1.252   2.376   3.614  0.9895 -1.7971  0.9137
 3951TIP3   OH233267   6.142   0.652  15.130 -0.2420  0.3563  0.0240
 3951TIP3    H133268   6.171   0.740  15.151  0.7197  0.7245 -2.4916
 3951TIP3    H233269   6.055   0.663  15.093  0.4386  0.4985 -1.6407
 3952TIP3   OH233270   1.702   0.711  14.876  0.2477  0.1384  0.2767
 3952TIP3    H133271   1.718   0.649  14.947 -0.2159  1.0450  1.2090
 3952TIP3    H233272   1.780   0.767  14.876 -0.4621  1.1724  1.2053
 3953TIP3   OH233273   6.020   0.395   3.819  0.4986  0.0123  0.1924
 3953TIP3    H133274   6.037   0.369   3.728 -0.6046  0.1405 -0.0624
 3953TIP3    H233275   5.935   0.439   3.816  0.0746 -0.6790  1.4143
 3954TIP3   OH233276   1.546   0.133  16.061  0.2674 -0.3815 -0.1477
 3954TIP3    H133277   1.588   0.218  16.048 -1.1378  0.3018 -0.3879
 3954TIP3    H233278   1.529   0.101  15.973 -1.8990  0.5077 -0.1247
 3955TIP3   OH233279   0.323   1.735   5.326 -0.0836  0.5073  0.2986
 3955TIP3    H133280   0.393   1.711   5.265 -1.3188 -0.3386 -0.8457
 3955TIP3    H233281   0.347   1.692   5.408  0.2344 -0.6295 -0.3687
 3956TIP3   OH233282   3.468   3.302  15.997  0.2210 -0.0752  0.7019
 3956TIP3    H133283   3.488   3.237  15.930  0.3738 -0.2061  0.8735
 3956TIP3    H233284   3.389   3.346  15.966 -0.1697 -0.6826  0.8329
 3957TIP3   OH233285   1.765   3.994  13.363 -0.0331 -0.6302  0.0635
 3957TIP3    H133286   1.676   3.971  13.338 -0.9092  2.3080  0.1139
 3957TIP3    H233287   1.798   4.047  13.290  0.1752  1.5816  1.6600
 3958TIP3   OH233288   0.931   1.500   2.210  0.7026 -0.3980 -0.5254
 3958TIP3    H133289   0.876   1.491   2.133 -0.4311  0.1433  0.1927
 3958TIP3    H233290   0.874   1.542   2.275  1.0770 -2.3529  1.1504
 3959TIP3   OH233291   3.000   6.158  13.061 -0.2668 -0.2589 -0.5945
 3959TIP3    H133292   3.086   6.193  13.039 -0.4398  0.8723  0.4160
 3959TIP3    H233293   2.964   6.128  12.978  0.1531  1.4348 -1.4230
 3960TIP3   OH233294   5.877   2.173   4.308 -0.2722 -0.2319 -0.0380
 3960TIP3    H133295   5.786   2.144   4.319 -0.4781  0.9248  1.6299
 3960TIP3    H233296   5.929   2.097   4.330 -0.8211 -0.5925  0.0451
 3961TIP3   OH233297   3.909   5.871   6.293 -0.8075  0.1679 -0.3910
 3961TIP3    H133298   3.978   5.916   6.245 -1.7209  0.8795 -1.0774
 3961TIP3    H233299   3.906   5.914   6.378  0.1827 -0.4727 -0.0091
 3962TIP3   OH233300   4.415   2.785  13.709 -0.2555 -0.3831  0.5309
 3962TIP3    H133301   4.418   2.721  13.780  0.0309 -2.4796 -1.2235
 3962TIP3    H233302   4.332   2.767  13.664 -0.7926  1.4046  0.7336
 3963TIP3   OH233303   0.352   6.140  14.583  0.2611 -0.2329  0.5254
 3963TIP3    H133304   0.281   6.193  14.618  0.6484  0.9221 -0.3731
 3963TIP3    H233305   0.333   6.051  14.613 -1.2431  0.1497  0.7800
 3964TIP3   OH233306   5.274   6.228   0.832  0.0680 -0.2362 -0.2293
 3964TIP3    H133307   5.273   6.138   0.798  0.6736 -0.1331 -0.5503
 3964TIP3    H233308   5.363   6.259   0.813  0.1329  0.1364  0.6665
 3965TIP3   OH233309   2.033   3.522   0.853 -0.3129 -0.3458 -0.1225
 3965TIP3    H133310   2.065   3.470   0.927  2.8960  1.5034 -0.0016
 3965TIP3    H233311   1.983   3.593   0.893 -2.7510 -1.9311 -0.1556
 3966TIP3   OH233312   6.483   5.966  12.191 -0.1364 -0.3123  0.4261
 3966TIP3    H133313   6.459   5.919  12.112 -0.5836 -0.3261  0.5680
 3966TIP3    H233314   6.404   5.963  12.246 -0.1850  0.6264  0.4211
 3967TIP3   OH233315   1.288   4.433   5.141  0.1754 -0.3201 -0.2979
 3967TIP3    H133316   1.290   4.373   5.216 -1.4693 -1.2916 -0.9964
 3967TIP3    H233317   1.239   4.509   5.173 -0.0664 -0.5045 -0.2254
 3968TIP3   OH233318   6.070   1.419  15.263 -0.2077 -0.1674  0.0120
 3968TIP3    H133319   6.107   1.377  15.185 -0.7424  0.8466 -0.8265
 3968TIP3    H233320   5.978   1.431  15.243 -0.1119  1.2264  0.2657
 3969TIP3   OH233321   1.465   1.952   3.564 -0.2230  0.4043 -0.2745
 3969TIP3    H133322   1.487   1.993   3.481  1.1340 -0.3511 -0.3062
 3969TIP3    H233323   1.403   1.883   3.541 -0.0281  0.3459 -0.6404
 3970TIP3   OH233324   2.525   4.180  14.457 -0.4123 -0.2400 -0.0640
 3970TIP3    H133325   2.476   4.161  14.538 -0.5589 -2.6372 -0.6444
 3970TIP3    H233326   2.597   4.117  14.458 -0.1369  0.0312 -1.5617
 3971TIP3   OH233327   0.152   0.353   4.823  0.3475  0.3005  0.1381
 3971TIP3    H133328   0.173   0.261   4.838 -3.2771 -0.6804  0.1670
 3971TIP3    H233329   0.101   0.354   4.742 -0.2200  2.1542  0.4514
 3972TIP3   OH233330   1.690   4.271   3.710  0.0460 -1.0345  0.2055
 3972TIP3    H133331   1.651   4.293   3.625 -2.0142 -0.9836  1.1094
 3972TIP3    H233332   1.639   4.196   3.741 -0.0564 -0.3198  1.9029
 3973TIP3   OH233333   4.777   1.972  17.002 -0.3883  0.2673 -0.3040
 3973TIP3    H133334   4.850   2.000  16.948 -0.4863  2.0632  0.4278
 3973TIP3    H233335   4.815   1.954  17.088 -0.7874  1.3476  0.1206
 3974TIP3   OH233336   5.774   4.006  16.859 -0.2202  0.1941  0.3009
 3974TIP3    H133337   5.841   3.939  16.875 -2.0926 -1.9305 -0.3549
 3974TIP3    H233338   5.774   4.018  16.764  1.7118  3.0005  0.5243
 3975TIP3   OH233339   6.330   2.461  14.790  0.7335 -0.0789 -0.1924
 3975TIP3    H133340   6.241   2.470  14.823  0.6461  1.2294 -0.7162
 3975TIP3    H233341   6.379   2.530  14.835  1.3222 -0.3330 -0.4325
 3976TIP3   OH233342   2.578   2.833  15.312 -0.4516  0.3397  0.1353
 3976TIP3    H133343   2.484   2.824  15.325 -0.4542  1.4018  1.0129
 3976TIP3    H233344   2.587   2.881  15.230 -0.7251  1.3351  0.6754
 3977TIP3   OH233345   0.727   4.119  16.444  0.3324 -0.0009 -0.0858
 3977TIP3    H133346   0.680   4.125  16.361 -3.3375  1.0789  1.8452
 3977TIP3    H233347   0.752   4.209  16.464 -1.0625  0.1660  1.0668
 3978TIP3   OH233348   2.201   6.665  14.838 -0.1145  0.2850  1.2258
 3978TIP3    H133349   2.249   6.675  14.920  0.7384 -0.8070  0.8779
 3978TIP3    H233350   2.214   6.573  14.813 -0.1831  0.6430 -0.2327
 3979TIP3   OH233351   3.299   0.780  11.531  0.9465 -0.2839 -0.2492
 3979TIP3    H133352   3.346   0.764  11.450  0.9987  1.5794 -0.6158
 3979TIP3    H233353   3.331   0.864  11.562 -0.5624  0.0040  0.6297
 3980TIP3   OH233354   0.836   4.723  10.829 -0.4959  0.0111  0.0079
 3980TIP3    H133355   0.800   4.791  10.773 -1.4422 -0.9018 -0.5194
 3980TIP3    H233356   0.910   4.688  10.780  0.3212  1.0026  0.5130
 3981TIP3   OH233357   3.821   4.543  15.572  0.0466 -0.5434 -0.1201
 3981TIP3    H133358   3.849   4.489  15.646  0.2739 -0.2611 -0.0009
 3981TIP3    H233359   3.895   4.541  15.512  0.1962 -0.0752  0.0439
 3982TIP3   OH233360   1.814   5.810   6.842  0.4789  0.1414  0.4458
 3982TIP3    H133361   1.806   5.842   6.752  0.0002 -0.3015  0.3255
 3982TIP3    H233362   1.785   5.719   6.838  0.5860  0.0781  1.0233
 3983TIP3   OH233363   4.166   6.496   0.777  0.6994  0.5111 -0.4682
 3983TIP3    H133364   4.127   6.573   0.736  0.3205 -0.0874 -1.2525
 3983TIP3    H233365   4.215   6.453   0.707  1.7595  0.5689  0.2045
 3984TIP3   OH233366   0.560   0.951  16.456 -0.0024 -0.0721 -0.0300
 3984TIP3    H133367   0.536   1.017  16.391  1.2453 -0.2748 -0.7288
 3984TIP3    H233368   0.563   0.869  16.407  0.6539 -0.2796  0.3462
 3985TIP3   OH233369   5.835   4.377  12.917 -0.0467 -0.1447 -0.1048
 3985TIP3    H133370   5.930   4.384  12.921 -0.1280  0.6893  0.4226
 3985TIP3    H233371   5.820   4.286  12.891  0.8594 -0.8266  1.5721
 3986TIP3   OH233372   4.644   0.572   2.389 -0.3457  0.1905 -0.4469
 3986TIP3    H133373   4.652   0.527   2.305 -0.5683 -0.9521  0.1234
 3986TIP3    H233374   4.630   0.502   2.453  0.6810  0.9656  0.6781
 3987TIP3   OH233375   5.408   6.048  11.561 -0.7502  0.4589  0.0696
 3987TIP3    H133376   5.384   5.956  11.573 -0.4183  0.4044  0.3241
 3987TIP3    H233377   5.389   6.066  11.469 -0.3077 -0.0164 -0.1198
 3988TIP3   OH233378   6.693   5.130   5.277  0.0369  0.4365  0.4684
 3988TIP3    H133379   6.691   5.226   5.268 -1.0481  0.6305  2.1537
 3988TIP3    H233380   6.784   5.110   5.296  0.1751  1.2178  0.6699
 3989TIP3   OH233381   1.352   6.287  11.369  0.3636 -0.2126  0.3437
 3989TIP3    H133382   1.412   6.308  11.440  0.8281 -0.3642  0.0025
 3989TIP3    H233383   1.337   6.193  11.376  1.5870 -0.5180 -0.6314
 3990TIP3   OH233384   3.871   1.036   0.434  0.7697  0.3231  0.1154
 3990TIP3    H133385   3.852   1.130   0.435  1.5542  0.5201 -1.2947
 3990TIP3    H233386   3.915   1.021   0.350 -0.3293 -1.4994 -0.2075
 3991TIP3   OH233387   6.654   3.705  15.105 -0.0658 -1.0081  0.5732
 3991TIP3    H133388   6.664   3.615  15.075 -1.3074 -0.9818 -0.0040
 3991TIP3    H233389   6.560   3.714  15.121  0.1976 -0.1579  1.7517
 3992TIP3   OH233390   1.417   3.273   3.746  0.6059 -0.1773  0.0829
 3992TIP3    H133391   1.401   3.200   3.687 -2.6142  1.5763 -1.4774
 3992TIP3    H233392   1.427   3.232   3.832  0.4790 -2.4871 -0.9196
 3993TIP3   OH233393   3.095   3.180  15.287 -0.0312  0.0440  0.2953
 3993TIP3    H133394   3.146   3.155  15.364 -0.4161 -1.0589  0.2059
 3993TIP3    H233395   3.026   3.114  15.282 -0.7283  0.8023 -0.3053
 3994TIP3   OH233396   6.411   5.301   5.182 -0.1252 -0.3826  0.2768
 3994TIP3    H133397   6.404   5.206   5.183 -2.3898 -0.2578  0.5776
 3994TIP3    H233398   6.428   5.323   5.091 -0.8955 -1.0175 -0.0305
 3995TIP3   OH233399   0.797   1.481   5.576  0.3357 -0.0516  0.0550
 3995TIP3    H133400   0.814   1.419   5.506  1.8489  1.0421 -0.5856
 3995TIP3    H233401   0.765   1.559   5.532 -1.3193 -0.2427  0.8328
 3996TIP3   OH233402   3.099   1.340  11.655 -0.0905  0.1723  0.2194
 3996TIP3    H133403   3.103   1.302  11.567  1.1051  1.6162 -0.3933
 3996TIP3    H233404   3.053   1.274  11.708 -0.1210 -1.0722 -1.2943
 3997TIP3   OH233405   3.598   6.357  14.049 -0.5889  0.1546 -0.7275
 3997TIP3    H133406   3.651   6.302  14.106 -1.8585  0.9305  1.2928
 3997TIP3    H233407   3.558   6.296  13.987  0.3332 -0.7961 -0.4182
 3998TIP3   OH233408   3.380   3.924  13.877  0.2514 -0.6067 -0.2685
 3998TIP3    H133409   3.374   3.890  13.788 -2.6623 -0.6744 -0.1194
 3998TIP3    H233410   3.348   3.853  13.932  1.4625 -0.3511  0.8298
 3999TIP3   OH233411   0.851   3.272   2.788 -0.2441  0.2039 -0.2123
 3999TIP3    H133412   0.852   3.204   2.856 -0.8281  0.1835 -0.2119
 3999TIP3    H233413   0.792   3.237   2.721 -0.1146  0.4724 -0.4684
 4000TIP3   OH233414   4.636   5.843  11.726 -0.1699  0.2318 -0.1096
 4000TIP3    H133415   4.586   5.851  11.644 -0.7439  0.5047  0.2656
 4000TIP3    H233416   4.690   5.922  11.729 -0.4427  0.4140 -0.0257
 4001TIP3   OH233417   3.038   4.836   4.165 -0.1302 -0.7083 -0.6512
 4001TIP3    H133418   3.024   4.857   4.073 -2.9951  0.6173 -0.0028
 4001TIP3    H233419   3.033   4.920   4.210 -1.4303 -1.5910  0.9666
 4002TIP3   OH233420   3.120   4.219   1.752 -0.0247  0.2147  0.3176
 4002TIP3    H133421   3.187   4.175   1.699  0.2447 -0.3847  1.1204
 4002TIP3    H233422   3.089   4.291   1.698  0.7891  0.0834 -0.3407
 4003TIP3   OH233423   2.800   3.602  12.910 -0.4387 -0.0041  0.4658
 4003TIP3    H133424   2.738   3.608  12.838 -1.8247  0.9200  1.6800
 4003TIP3    H233425   2.753   3.553  12.978  0.7346 -0.6263  0.8600
 4004TIP3   OH233426   2.080   0.188   3.056  0.5257  0.2468 -0.2085
 4004TIP3    H133427   2.031   0.114   3.092  2.0833 -0.9990 -0.5254
 4004TIP3    H233428   2.084   0.251   3.129 -1.4707  0.3949 -0.1778
 4005TIP3   OH233429   6.363   0.612   1.124 -0.3987 -0.5832  0.5601
 4005TIP3    H133430   6.354   0.689   1.180  0.9359  0.7444 -0.9379
 4005TIP3    H233431   6.287   0.616   1.066  1.1947  1.5024 -1.5846
 4006TIP3   OH233432   1.245   0.575   5.555  0.2117 -0.5392  0.3768
 4006TIP3    H133433   1.305   0.539   5.620  0.5207 -0.4227  0.1529
 4006TIP3    H233434   1.192   0.638   5.604  1.7858  1.0450  0.0970
 4007TIP3   OH233435   0.398   6.463  11.401 -0.1766  0.4982 -0.3487
 4007TIP3    H133436   0.321   6.456  11.344 -0.7737 -0.1756  0.5293
 4007TIP3    H233437   0.399   6.555  11.429  0.3758  0.9557 -1.7641
 4008TIP3   OH233438   1.172   0.196  15.482  0.2951 -0.4655  0.3615
 4008TIP3    H133439   1.163   0.233  15.395  0.2600 -0.4853  0.3572
 4008TIP3    H233440   1.262   0.163  15.485  1.1139  1.6670  1.1543
 4009TIP3   OH233441   0.530   6.608   1.614  0.1413  0.7200 -0.0795
 4009TIP3    H133442   0.437   6.634   1.617 -0.1856 -0.4549  0.5339
 4009TIP3    H233443   0.542   6.575   1.526 -0.9360 -2.1687  0.7434
 4010TIP3   OH233444   4.097   6.529  12.474 -0.4454  0.1042  0.1451
 4010TIP3    H133445   4.054   6.483  12.546 -3.1062 -0.2330 -1.5020
 4010TIP3    H233446   4.072   6.621  12.486 -1.8073 -0.1059 -0.8707
 4011TIP3   OH233447   0.724   6.338   5.307  0.1796  0.2399  0.6532
 4011TIP3    H133448   0.654   6.392   5.343 -1.0301 -1.0560  0.3034
 4011TIP3    H233449   0.785   6.326   5.381 -0.9495 -0.2210  1.5453
 4012TIP3   OH233450   3.360   2.397   2.955 -0.0647  0.2327  0.4453
 4012TIP3    H133451   3.317   2.333   3.012  0.2390 -1.6294 -1.3005
 4012TIP3    H233452   3.414   2.450   3.014 -0.2366 -1.1956  1.9500
 4013TIP3   OH233453   6.140   6.167  12.244  0.2146  0.3953  0.3877
 4013TIP3    H133454   6.164   6.252  12.282  0.5317  0.9394 -0.9505
 4013TIP3    H233455   6.053   6.181  12.207  1.0134  0.7606 -1.5046
 4014TIP3   OH233456   6.629   2.775   0.400 -1.0964 -0.3081 -0.3054
 4014TIP3    H133457   6.541   2.745   0.380 -0.5943 -0.4757 -2.5532
 4014TIP3    H233458   6.681   2.750   0.323  0.3389  2.2292 -0.2670
 4015TIP3   OH233459   0.844   0.940  16.083 -0.0850 -0.1808  0.7253
 4015TIP3    H133460   0.899   0.902  16.151 -0.7391 -2.4096  0.0725
 4015TIP3    H233461   0.900   1.006  16.041  0.7589  0.2974  2.5095
 4016TIP3   OH233462   6.311   3.651   0.835 -0.3444 -0.1104  0.5793
 4016TIP3    H133463   6.230   3.632   0.882 -0.9775 -0.4817 -0.6307
 4016TIP3    H233464   6.292   3.632   0.744  0.8494  0.6300  0.1409
 4017TIP3   OH233465   0.986   2.812   2.736 -0.3593 -0.2650 -0.4783
 4017TIP3    H133466   1.005   2.844   2.647 -0.1155 -0.5664 -0.5380
 4017TIP3    H233467   1.010   2.719   2.733 -1.1748 -0.4871 -0.3433
 4018TIP3   OH233468   4.861   0.316   4.178 -0.3242  0.3457  0.1534
 4018TIP3    H133469   4.834   0.279   4.094  1.1008  1.6556 -0.9116
 4018TIP3    H233470   4.787   0.372   4.204 -1.5056 -1.3567  0.6702
 4019TIP3   OH233471   3.086   0.740  15.318  0.3897  0.2370  0.4957
 4019TIP3    H133472   3.116   0.703  15.234 -1.2273  1.5439 -0.7321
 4019TIP3    H233473   3.118   0.830  15.316  1.4684 -0.0884  1.9347
 4020TIP3   OH233474   6.360   5.259  17.218  0.1062 -0.1038  0.3319
 4020TIP3    H133475   6.348   5.309  17.299  3.4936  0.1684  0.8208
 4020TIP3    H233476   6.349   5.324  17.148 -0.5345  0.1747  0.6816
 4021TIP3   OH233477   1.569   6.602  17.178 -0.3175 -0.0288  0.4774
 4021TIP3    H133478   1.628   6.581  17.106 -0.8479  0.2425 -0.0435
 4021TIP3    H233479   1.622   6.653  17.239  0.6232 -1.6689  1.1110
 4022TIP3   OH233480   6.315   6.580   1.597 -0.2650  0.0266 -0.4429
 4022TIP3    H133481   6.382   6.639   1.563 -0.5816  0.4114 -0.3958
 4022TIP3    H233482   6.338   6.567   1.689  1.3707 -2.0675 -1.0616
 4023TIP3   OH233483   0.969   3.134  14.985 -0.3930  0.1299  0.6715
 4023TIP3    H133484   1.038   3.132  14.918 -0.8184 -0.2581  0.2351
 4023TIP3    H233485   0.986   3.214  15.035  0.3916  0.0205  0.5941
 4024TIP3   OH233486   4.637   4.122   4.319 -0.6940 -0.3360  0.6550
 4024TIP3    H133487   4.589   4.155   4.243 -0.1124 -0.5254  0.1990
 4024TIP3    H233488   4.711   4.182   4.328 -0.9028 -0.1613  1.2353
 4025TIP3   OH233489   1.671   0.460   0.079 -0.3789  0.0957  0.3249
 4025TIP3    H133490   1.709   0.543   0.108 -1.4549  0.0688  1.9600
 4025TIP3    H233491   1.709   0.395   0.138  1.1333 -0.7502 -1.5073
 4026TIP3   OH233492   3.961   6.459   3.609 -0.4050  0.4228 -0.1362
 4026TIP3    H133493   3.911   6.459   3.690  2.2664  1.0909  1.6250
 4026TIP3    H233494   3.988   6.550   3.596 -0.4070  0.2560 -1.5738
 4027TIP3   OH233495   4.554   6.740   4.671  0.1663  0.1215 -0.4533
 4027TIP3    H133496   4.602   6.816   4.638  2.4596 -1.9253 -2.1996
 4027TIP3    H233497   4.592   6.723   4.757 -0.1436  0.7359 -0.1877
 4028TIP3   OH233498   4.224   4.658  16.580  0.2142 -0.6936  0.4726
 4028TIP3    H133499   4.221   4.564  16.598 -0.6516 -0.4633  1.7231
 4028TIP3    H233500   4.161   4.696  16.641  0.7327  0.7329  0.1728
 4029TIP3   OH233501   0.203   0.638   6.191  0.1042 -0.5411 -0.3764
 4029TIP3    H133502   0.118   0.639   6.146 -0.1662 -1.1349  0.1078
 4029TIP3    H233503   0.264   0.605   6.125  0.6317  2.8999 -1.8199
 4030TIP3   OH233504   4.853   4.565  13.674  0.2125 -0.0108 -0.2630
 4030TIP3    H133505   4.800   4.610  13.739  0.0674 -1.8634  0.9881
 4030TIP3    H233506   4.790   4.523  13.616  0.3413  0.5835 -0.8417
 4031TIP3   OH233507   3.481   5.041   3.904  0.1052 -0.5638 -0.1956
 4031TIP3    H133508   3.538   4.982   3.953 -0.4667 -1.1537 -0.2243
 4031TIP3    H233509   3.477   5.003   3.816  0.6408  0.1522 -0.5359
 4032TIP3   OH233510   0.803   6.759   5.398 -0.8191 -0.2477 -0.0323
 4032TIP3    H133511   0.809   6.749   5.493 -0.3596 -0.2451 -0.0608
 4032TIP3    H233512   0.853   6.838   5.378 -1.4701  0.1344 -0.2076
 4033TIP3   OH233513   2.366   3.579  13.473  0.3364  0.0945 -0.0856
 4033TIP3    H133514   2.344   3.665  13.437  1.7134  0.4606 -0.1361
 4033TIP3    H233515   2.390   3.596  13.564  0.7683 -0.2008 -0.1375
 4034TIP3   OH233516   1.340   1.702  15.489 -0.1264  0.5111  0.0519
 4034TIP3    H133517   1.432   1.694  15.466 -0.1987  0.2674 -0.1631
 4034TIP3    H233518   1.340   1.722  15.582  0.1136 -1.0919  0.4334
 4035TIP3   OH233519   4.820   6.749   2.032  0.1983  0.6447  0.2412
 4035TIP3    H133520   4.761   6.735   1.958  1.6391  1.0004 -1.0117
 4035TIP3    H233521   4.895   6.692   2.015 -0.1875 -0.5947  2.3388
 4036TIP3   OH233522   5.645   4.832   1.854  0.3175  0.0749 -0.2416
 4036TIP3    H133523   5.714   4.888   1.818  0.1104  1.2987  1.1968
 4036TIP3    H233524   5.567   4.853   1.801  0.6006  0.0350 -0.6789
 4037TIP3   OH233525   4.202   5.822   6.265 -0.0247  0.3915  0.1977
 4037TIP3    H133526   4.269   5.791   6.205  0.1733  0.9358  0.1314
 4037TIP3    H233527   4.168   5.901   6.224 -0.9873 -0.0878  0.0374
 4038TIP3   OH233528   3.909   2.717   0.255 -0.3737  0.3902  0.1182
 4038TIP3    H133529   3.977   2.650   0.246 -0.0167  0.9017 -1.0384
 4038TIP3    H233530   3.834   2.669   0.290 -0.3988 -0.8177 -1.4628
 4039TIP3   OH233531   1.679   4.945  14.724  0.3967  0.8802  0.2996
 4039TIP3    H133532   1.602   4.999  14.742 -0.3330  0.3466 -1.0229
 4039TIP3    H233533   1.753   5.000  14.748 -0.3284  2.2742 -0.5148
 4040TIP3   OH233534   1.337   4.752   1.353  0.5931 -0.0562  0.6347
 4040TIP3    H133535   1.243   4.764   1.340  0.1399 -1.2319  2.4745
 4040TIP3    H233536   1.371   4.840   1.368 -0.4391  0.2680  1.1929
 4041TIP3   OH233537   1.289   6.156  15.146  0.0116  0.6374 -0.3275
 4041TIP3    H133538   1.292   6.087  15.080  0.1039 -0.5992  0.9304
 4041TIP3    H233539   1.371   6.204  15.135  0.5456 -0.2697 -0.3768
 4042TIP3   OH233540   3.528   4.982   6.220  0.1221 -0.0205 -0.6887
 4042TIP3    H133541   3.595   5.049   6.210  2.9110 -1.9560  2.7514
 4042TIP3    H233542   3.571   4.901   6.192 -1.9146 -0.9821 -1.2938
 4043TIP3   OH233543   6.476   4.487  12.880  0.1227  0.0734  0.0108
 4043TIP3    H133544   6.539   4.550  12.846  1.0675 -1.3667 -1.0117
 4043TIP3    H233545   6.417   4.470  12.807 -1.1357  0.9802  0.7862
 4044TIP3   OH233546   5.204   4.352  16.579  0.2963 -0.3583  0.4016
 4044TIP3    H133547   5.230   4.439  16.549 -0.0486 -0.5538 -0.5009
 4044TIP3    H233548   5.147   4.319  16.509  2.0678 -2.1496 -0.2967
 4045TIP3   OH233549   4.054   5.880   3.652  0.0812 -0.0177 -0.0265
 4045TIP3    H133550   3.973   5.865   3.602 -0.6869 -0.2919  1.2482
 4045TIP3    H233551   4.096   5.953   3.607 -0.2790 -0.6365 -1.4161
 4046TIP3   OH233552   6.490   4.438  11.756  0.2301 -0.1306 -0.1761
 4046TIP3    H133553   6.435   4.501  11.802  0.4104  0.6208 -0.9569
 4046TIP3    H233554   6.431   4.368  11.730  0.0551 -0.3766  0.8370
 4047TIP3   OH233555   4.108   0.854   4.085 -0.5888 -0.3835  0.1310
 4047TIP3    H133556   4.191   0.819   4.118  0.4367  2.6533  1.1298
 4047TIP3    H233557   4.050   0.853   4.161  0.5580  3.0306  1.2294
 4048TIP3   OH233558   3.185   3.915   5.683 -0.3300  0.8965  0.6541
 4048TIP3    H133559   3.096   3.941   5.706 -0.2521  0.3986  1.5742
 4048TIP3    H233560   3.184   3.819   5.689  0.6086  0.9379  2.0768
 4049TIP3   OH233561   5.263   1.320  13.187  0.0580  0.8131  0.2965
 4049TIP3    H133562   5.284   1.304  13.279  3.3608  1.9217 -0.1046
 4049TIP3    H233563   5.175   1.284  13.175 -0.5248  0.7243  3.8646
 4050TIP3   OH233564   5.197   4.361   3.796 -0.2322 -0.1631  0.1290
 4050TIP3    H133565   5.122   4.411   3.827  0.8979  0.8747  1.3681
 4050TIP3    H233566   5.229   4.410   3.721 -0.4418 -0.2808 -0.0383
 4051TIP3   OH233567   6.608   1.330  16.173 -0.2253 -0.1658  0.0554
 4051TIP3    H133568   6.673   1.343  16.104  0.6497 -0.9501  0.6942
 4051TIP3    H233569   6.599   1.416  16.214  0.5654 -0.0815  0.0744
 4052TIP3   OH233570   6.135   3.809   1.647 -0.4180 -0.4575 -0.3016
 4052TIP3    H133571   6.075   3.816   1.720 -0.1919 -1.6456  0.0140
 4052TIP3    H233572   6.103   3.735   1.596  1.0917 -1.5113  0.2041
 4053TIP3   OH233573   6.312   3.470  13.955  0.6191  0.1591 -0.0070
 4053TIP3    H133574   6.401   3.456  13.922  0.5520 -0.5899  0.1216
 4053TIP3    H233575   6.325   3.501  14.045  0.7429 -0.1208  0.0709
 4054TIP3   OH233576   1.947   2.858  12.859 -0.0631 -0.2223  0.2283
 4054TIP3    H133577   1.859   2.856  12.820 -0.6331  0.5433  1.3959
 4054TIP3    H233578   1.951   2.778  12.910  0.1905 -0.5958 -0.3697
 4055TIP3   OH233579   4.299   2.666   0.119  0.4042  0.6372 -0.4498
 4055TIP3    H133580   4.293   2.738   0.056 -0.8850  0.4762 -0.5334
 4055TIP3    H233581   4.262   2.701   0.200  0.2717  0.2402 -0.3367
 4056TIP3   OH233582   4.365   6.532   2.185  0.1907  0.2589  0.1518
 4056TIP3    H133583   4.440   6.591   2.187 -0.5082  1.1619  0.4403
 4056TIP3    H233584   4.316   6.559   2.108 -0.4188  0.4248  0.5889
 4057TIP3   OH233585   3.077   1.149  14.224  0.2933  0.7665 -0.3811
 4057TIP3    H133586   3.148   1.098  14.262  0.4756 -0.0101 -1.6991
 4057TIP3    H233587   3.051   1.210  14.293 -0.0646 -1.2188  1.3141
 4058TIP3   OH233588   3.233   2.094   2.702  0.1326 -0.1826  0.9255
 4058TIP3    H133589   3.194   2.030   2.642  1.9941 -0.9405  0.4529
 4058TIP3    H233590   3.204   2.065   2.789  0.3112 -1.2050  0.6586
 4059TIP3   OH233591   3.845   1.850   6.554  0.4062 -0.3655 -0.0814
 4059TIP3    H133592   3.920   1.833   6.498  1.1572 -0.9686  1.0712
 4059TIP3    H233593   3.844   1.777   6.616  0.3589  0.9290  1.4839
 4060TIP3   OH233594   2.249   3.110  17.207  0.7615  1.3567  0.4796
 4060TIP3    H133595   2.271   3.073  17.292  0.4260  0.0236  0.0001
 4060TIP3    H233596   2.153   3.108  17.204  0.8075 -0.8540 -0.8720
 4061TIP3   OH233597   1.081   5.892   2.195  0.1938  0.5912  0.2753
 4061TIP3    H133598   1.084   5.914   2.102 -1.8895  1.7790  0.4346
 4061TIP3    H233599   1.061   5.974   2.239 -0.3857 -0.2334  1.6322
 4062TIP3   OH233600   4.611   5.043   2.001  0.3513  0.3827  0.0477
 4062TIP3    H133601   4.671   5.055   1.928 -0.5156 -0.1552 -0.7808
 4062TIP3    H233602   4.638   4.960   2.041  2.1625  1.6870  1.6891
 4063TIP3   OH233603   3.193   0.865  17.036 -0.1330 -0.4649 -0.3881
 4063TIP3    H133604   3.268   0.821  16.995 -1.3481 -1.4030 -1.6944
 4063TIP3    H233605   3.144   0.795  17.078 -1.6601 -0.3100 -1.7982
 4064TIP3   OH233606   5.744   6.385  11.491 -0.7700  0.4855 -0.3915
 4064TIP3    H133607   5.805   6.364  11.561 -2.0123 -0.5805  0.4228
 4064TIP3    H233608   5.661   6.344  11.518 -1.5111  0.7896 -2.0597
 4065TIP3   OH233609   4.616   5.893  14.931  0.0768  0.0254 -0.2904
 4065TIP3    H133610   4.663   5.880  14.849  1.0015  0.6663  0.1320
 4065TIP3    H233611   4.678   5.936  14.989 -0.9685  0.7493  0.3380
 4066TIP3   OH233612   1.316   3.633  15.597  0.1069 -0.3503  0.6539
 4066TIP3    H133613   1.315   3.728  15.585  0.1764 -0.4450 -0.1282
 4066TIP3    H233614   1.243   3.615  15.656 -0.6899  0.0642 -0.1940
 4067TIP3   OH233615   3.417   0.648   0.410 -0.2032  0.3204  0.1106
 4067TIP3    H133616   3.373   0.600   0.480  0.8514  0.0059  0.5767
 4067TIP3    H233617   3.396   0.740   0.429 -1.4097  0.1340 -0.2182
 4068TIP3   OH233618   6.051   5.184  11.192  0.3562 -0.6519  0.4539
 4068TIP3    H133619   5.981   5.120  11.177  0.5510 -1.8058  3.8463
 4068TIP3    H233620   6.007   5.260  11.230  0.7011 -0.5722  0.7018
 4069TIP3   OH233621   0.004   2.320  11.332 -0.8791 -0.4554  0.3155
 4069TIP3    H133622   0.014   2.318  11.428 -2.0754  0.4999  0.4874
 4069TIP3    H233623   0.046   2.402  11.306 -2.4093  0.3810  0.3153
 4070TIP3   OH233624   1.864   2.487  10.173  0.2297 -0.1291  0.0835
 4070TIP3    H133625   1.847   2.553  10.240 -1.3285 -0.8976  0.4865
 4070TIP3    H233626   1.959   2.476  10.173  0.2185 -0.8109  2.8569
 4071TIP3   OH233627   4.491   6.303   3.062 -0.1204 -0.1662 -0.4411
 4071TIP3    H133628   4.497   6.399   3.057 -1.5163  0.0554  1.3928
 4071TIP3    H233629   4.540   6.280   3.141  1.8028 -1.2149 -1.8433
 4072TIP3   OH233630   4.753   5.859   0.852  0.5713  0.6424  0.1643
 4072TIP3    H133631   4.764   5.830   0.762  1.7932 -0.2166  0.5586
 4072TIP3    H233632   4.664   5.834   0.876  0.6756 -0.3000 -0.3993
 4073TIP3   OH233633   0.321   0.233  16.089  0.0973  0.4117 -0.1752
 4073TIP3    H133634   0.246   0.293  16.082 -1.5022 -1.6211 -2.1248
 4073TIP3    H233635   0.302   0.180  16.166 -0.3106  0.1321 -0.4623
 4074TIP3   OH233636   4.253   1.685   4.369 -0.4101  0.1351 -0.6538
 4074TIP3    H133637   4.279   1.640   4.289 -0.4325  3.0888 -2.4575
 4074TIP3    H233638   4.310   1.647   4.437  0.6205 -1.4527 -2.3191
 4075TIP3   OH233639   6.022   2.652   3.084  0.0636 -0.2821  0.1699
 4075TIP3    H133640   6.098   2.688   3.038  0.4421 -1.1128  0.1225
 4075TIP3    H233641   6.059   2.589   3.146 -0.7242 -3.4405 -2.3277
 4076TIP3   OH233642   4.722   2.107   3.481  0.4834 -0.1107  0.2025
 4076TIP3    H133643   4.773   2.030   3.456  1.6005  0.8155 -0.5116
 4076TIP3    H233644   4.782   2.160   3.534 -0.3108  0.2122  0.8027
 4077TIP3   OH233645   3.145   1.581  13.654  0.5357 -0.8019  0.2770
 4077TIP3    H133646   3.233   1.571  13.690  1.2541 -1.4207 -1.5029
 4077TIP3    H233647   3.159   1.600  13.561 -1.2124 -0.5117  0.0286
 4078TIP3   OH233648   3.979   6.573   4.513  0.2803  0.4708 -0.2239
 4078TIP3    H133649   3.961   6.491   4.466 -1.7684  1.0141 -0.4614
 4078TIP3    H233650   4.074   6.571   4.527  0.3153 -1.9003 -0.2879
 4079TIP3   OH233651   5.057   1.083  15.133  0.2689  0.3117 -0.2431
 4079TIP3    H133652   5.002   1.099  15.209  1.4778  1.1550  0.4868
 4079TIP3    H233653   5.141   1.056  15.169  0.7030  0.2003 -1.2923
 4080TIP3   OH233654   2.854   4.897   2.927  0.3884  0.1384 -0.0917
 4080TIP3    H133655   2.918   4.883   2.858 -0.3356  1.1554 -1.0042
 4080TIP3    H233656   2.770   4.899   2.882 -0.2498 -0.6986  1.0248
 4081TIP3   OH233657   3.039   5.676   2.875  0.1894 -0.3204  1.2359
 4081TIP3    H133658   3.009   5.767   2.880  0.6961 -0.0817  0.2362
 4081TIP3    H233659   2.972   5.631   2.825 -0.2029 -0.5768  1.9728
 4082TIP3   OH233660   5.549   1.946   5.164 -0.2933  0.2573 -0.0734
 4082TIP3    H133661   5.550   1.913   5.074  2.2131  0.3793 -0.1570
 4082TIP3    H233662   5.511   1.875   5.215  0.6062 -0.8633 -0.9070
 4083TIP3   OH233663   4.697   4.349   2.113  0.6083  0.0162 -0.4464
 4083TIP3    H133664   4.772   4.311   2.068  0.9939  0.2564 -0.0219
 4083TIP3    H233665   4.666   4.419   2.055  2.0757  1.3864  0.3290
 4084TIP3   OH233666   0.564   1.859   4.653 -0.1508 -0.2820 -0.1768
 4084TIP3    H133667   0.596   1.880   4.566  1.4497 -2.0428 -0.0953
 4084TIP3    H233668   0.501   1.789   4.640 -0.6581  0.1362  0.0081
 4085TIP3   OH233669   1.771   1.439   4.932  0.4475  0.5625 -0.4299
 4085TIP3    H133670   1.815   1.359   4.903 -0.0639  0.6403 -1.4701
 4085TIP3    H233671   1.830   1.477   4.997  0.7305 -0.6176  0.0278
 4086TIP3   OH233672   2.885   0.375  12.530 -0.2964  0.0942  0.0058
 4086TIP3    H133673   2.894   0.465  12.498 -1.4464 -0.8872 -3.4724
 4086TIP3    H233674   2.794   0.368  12.557 -0.1562 -0.0276  0.4760
 4087TIP3   OH233675   4.495   4.314  15.657  0.1184 -0.2101  0.3367
 4087TIP3    H133676   4.528   4.224  15.658 -0.2344 -0.3638 -0.7797
 4087TIP3    H233677   4.572   4.368  15.675  0.1987 -0.7505  1.7534
 4088TIP3   OH233678   2.762   2.862  13.778 -0.2142  0.1953  0.3923
 4088TIP3    H133679   2.726   2.798  13.716 -0.8829  1.4709 -0.5725
 4088TIP3    H233680   2.801   2.808  13.847 -0.6686 -1.2561 -0.4315
 4089TIP3   OH233681   2.395   2.647  11.834  0.0024 -0.4219 -0.1693
 4089TIP3    H133682   2.417   2.559  11.804  1.6149 -0.0251 -0.2205
 4089TIP3    H233683   2.332   2.633  11.905 -2.3227 -1.4617 -2.2677
 4090TIP3   OH233684   6.497   1.692  11.558  0.4528 -0.4122 -0.5477
 4090TIP3    H133685   6.571   1.745  11.528  0.7252 -1.4358 -1.7871
 4090TIP3    H233686   6.477   1.725  11.646  1.2149  1.0774 -0.9044
 4091TIP3   OH233687   2.444   6.183   6.645 -0.2817  0.3320 -0.4019
 4091TIP3    H133688   2.459   6.274   6.620  1.5468  0.4549  0.9403
 4091TIP3    H233689   2.459   6.133   6.565  0.6624  1.0654 -0.6976
 4092TIP3   OH233690   3.122   5.763   1.348 -0.2340  0.2749  0.0279
 4092TIP3    H133691   3.117   5.698   1.418  0.8934  0.1805  0.0338
 4092TIP3    H233692   3.103   5.846   1.391 -1.9216 -0.0442 -0.0248
 4093TIP3   OH233693   2.943   3.050  16.772 -0.3195  0.3051 -0.4563
 4093TIP3    H133694   2.922   3.141  16.749  0.9838  0.8077  0.2125
 4093TIP3    H233695   2.859   3.011  16.794 -0.8922  1.3903 -0.6258
 4094TIP3   OH233696   2.729   4.467   4.358 -0.1259 -0.1038  0.0618
 4094TIP3    H133697   2.812   4.490   4.315 -0.1277  0.4812  0.3572
 4094TIP3    H233698   2.678   4.423   4.290  0.3848 -0.3674 -0.1535
 4095TIP3   OH233699   4.088   5.151  15.272  0.5763  0.2866  0.4687
 4095TIP3    H133700   4.051   5.176  15.187  0.2016 -2.4025 -0.2326
 4095TIP3    H233701   4.119   5.061  15.260  4.5312  1.2455  1.9794
 4096TIP3   OH233702   0.255   2.445   1.003 -0.4238 -0.4836 -1.0219
 4096TIP3    H133703   0.257   2.395   1.085  0.2039  2.0601  0.6616
 4096TIP3    H233704   0.335   2.418   0.957 -0.1250 -1.0628 -0.1942
 4097TIP3   OH233705   1.622   1.404  12.982 -0.0075 -0.2611 -0.3034
 4097TIP3    H133706   1.557   1.354  13.031  0.4520  1.1337  1.8592
 4097TIP3    H233707   1.705   1.360  12.998  0.5408  1.4956  2.3106
 4098TIP3   OH233708   6.117   5.040   2.126  0.0480 -0.0364 -0.4557
 4098TIP3    H133709   6.196   5.054   2.179 -0.8079 -1.0899  1.1879
 4098TIP3    H233710   6.090   5.128   2.099  0.8384  0.4804  0.3886
 4099TIP3   OH233711   5.922   0.415  11.675  0.4790 -0.6934  0.0296
 4099TIP3    H133712   5.845   0.458  11.713  0.2291 -1.1526  0.0510
 4099TIP3    H233713   5.940   0.342  11.734  1.5388 -0.0146  0.5765
 4100TIP3   OH233714   4.285   5.266   0.057  0.1958  0.0629 -0.3859
 4100TIP3    H133715   4.222   5.322   0.012  0.1360  0.5346  0.2673
 4100TIP3    H233716   4.289   5.186   0.004 -2.2575 -0.7044  0.4662
 4101TIP3   OH233717   5.596   2.081  14.880  0.8266  0.4733  0.9071
 4101TIP3    H133718   5.584   2.174  14.862 -0.2523  0.2222  0.2040
 4101TIP3    H233719   5.690   2.067  14.878  1.0291  1.6375  1.4935
 4102TIP3   OH233720   2.855   3.334   1.977  0.1064 -0.2163 -0.8162
 4102TIP3    H133721   2.794   3.277   2.023  1.5916 -1.0705  0.1796
 4102TIP3    H233722   2.849   3.306   1.885 -0.7923 -0.4484 -0.6966
 4103TIP3   OH233723   4.029   4.194  15.149 -0.3287  0.1863  0.2997
 4103TIP3    H133724   3.946   4.158  15.116 -1.1543  2.2856 -0.1048
 4103TIP3    H233725   4.023   4.183  15.244 -0.7951 -0.2233  0.2316
 4104TIP3   OH233726   1.762   0.740   6.440  0.0890  0.0302 -0.1662
 4104TIP3    H133727   1.725   0.681   6.505 -1.0867  0.4082 -0.4487
 4104TIP3    H233728   1.844   0.699   6.412 -0.2558 -0.9971  0.2965
 4105TIP3   OH233729   4.272   3.711   4.261 -0.4273  0.5289  0.1423
 4105TIP3    H133730   4.206   3.780   4.253 -0.9001  0.1553  0.7676
 4105TIP3    H233731   4.348   3.755   4.299 -1.2071  0.4255  1.8903
 4106TIP3   OH233732   2.138   4.841   3.522  0.6842 -0.1210 -0.3025
 4106TIP3    H133733   2.232   4.845   3.537  0.9606  1.3216 -2.1000
 4106TIP3    H233734   2.114   4.929   3.493 -1.0751 -0.6762 -0.6675
 4107TIP3   OH233735   1.904   0.477  15.513  1.0955  0.1973  0.4226
 4107TIP3    H133736   1.988   0.519  15.495  1.6774 -0.6984  0.9544
 4107TIP3    H233737   1.839   0.540  15.485  1.9503  0.3528 -1.3604
 4108TIP3   OH233738   4.866   3.388  15.664 -0.1797  0.0701  0.5611
 4108TIP3    H133739   4.919   3.376  15.585 -1.0656 -1.8620  0.2241
 4108TIP3    H233740   4.836   3.479  15.658  0.0654  0.0747 -1.1341
 4109TIP3   OH233741   3.923   4.825  12.367 -0.1635 -0.2988  0.2342
 4109TIP3    H133742   3.970   4.824  12.450  0.7355  0.2354 -0.2553
 4109TIP3    H233743   3.979   4.776  12.307  0.3145  1.2503 -0.6346
 4110TIP3   OH233744   6.742   5.053  16.219  0.0655  0.1214  0.1249
 4110TIP3    H133745   6.812   5.106  16.256  0.0590  0.5764 -0.4944
 4110TIP3    H233746   6.786   4.984  16.170  0.0947  0.6090 -0.5515
 4111TIP3   OH233747   3.664   1.772   0.642  0.0302  0.4385 -0.3024
 4111TIP3    H133748   3.572   1.760   0.667  0.5521 -1.6622  0.8499
 4111TIP3    H233749   3.660   1.820   0.559 -2.0360  1.5738  0.3821
 4112TIP3   OH233750   5.402   5.872   2.736 -0.4767 -0.3123 -0.2941
 4112TIP3    H133751   5.326   5.841   2.687 -1.1173 -2.0435  1.6324
 4112TIP3    H233752   5.366   5.905   2.818  0.7192  0.5597 -0.0854
 4113TIP3   OH233753   1.501   1.562  11.351  0.0691 -0.3714 -0.4953
 4113TIP3    H133754   1.410   1.588  11.365  0.1420 -0.2530 -0.2269
 4113TIP3    H233755   1.533   1.540  11.439  0.1187 -1.0142 -0.6671
 4114TIP3   OH233756   3.574   2.959  15.317 -0.5194 -0.2469 -0.3660
 4114TIP3    H133757   3.613   3.046  15.328  1.6647 -0.8438 -2.3624
 4114TIP3    H233758   3.634   2.900  15.362 -0.3681 -0.9704 -1.4607
 4115TIP3   OH233759   2.323   3.597  12.561 -0.1659  0.4070  0.3202
 4115TIP3    H133760   2.416   3.619  12.572  0.0575 -0.2270 -0.2555
 4115TIP3    H233761   2.295   3.567  12.647  0.5290 -0.7383  0.1586
 4116TIP3   OH233762   1.536   0.646   3.661  0.0308  0.1481 -0.0408
 4116TIP3    H133763   1.572   0.560   3.643 -0.6275  0.0587 -1.0186
 4116TIP3    H233764   1.442   0.631   3.673 -0.0434  0.6913  0.0933
 4117TIP3   OH233765   5.212   2.812  15.568  0.3773 -0.3025  0.5505
 4117TIP3    H133766   5.187   2.873  15.639 -1.0382 -0.7186  0.4424
 4117TIP3    H233767   5.226   2.869  15.492  1.5529  0.1137  1.0584
 4118TIP3   OH233768   4.406   2.631  13.010 -0.4574 -0.2302  0.3413
 4118TIP3    H133769   4.352   2.571  13.062  1.5389 -0.9375  1.7305
 4118TIP3    H233770   4.425   2.582  12.930  2.6398 -2.4427  2.1842
 4119TIP3   OH233771   1.484   0.999   0.961 -0.4349 -0.0282  0.2131
 4119TIP3    H133772   1.402   0.972   0.920 -1.0365  1.2807  0.4992
 4119TIP3    H233773   1.552   0.959   0.907 -1.1997 -3.6230  1.6847
 4120TIP3   OH233774   4.110   4.646  16.097  0.0773  0.3924 -0.2235
 4120TIP3    H133775   4.173   4.576  16.077 -1.1091 -0.6987 -0.2670
 4120TIP3    H233776   4.138   4.680  16.182  0.9354  0.1827 -0.4060
 4121TIP3   OH233777   5.420   5.678  17.154 -0.7607 -0.0777 -0.1173
 4121TIP3    H133778   5.386   5.594  17.185 -1.0860 -1.0922 -2.9255
 4121TIP3    H233779   5.386   5.742  17.216  0.5188 -2.0646  2.8630
 4122TIP3   OH233780   3.888   0.530   1.818  0.5936  0.0813 -0.1654
 4122TIP3    H133781   3.814   0.550   1.760 -0.9525  0.2081  1.7645
 4122TIP3    H233782   3.910   0.614   1.858 -0.0815 -0.4466  1.3596
 4123TIP3   OH233783   4.835   0.066  12.954  0.4166 -0.1650 -0.0075
 4123TIP3    H133784   4.925   0.048  12.928  0.3145 -1.4531  0.4558
 4123TIP3    H233785   4.787  -0.013  12.931 -0.2410 -0.2044  1.3524
 4124TIP3   OH233786   2.071   5.081  14.535 -0.0272 -0.8605 -0.0779
 4124TIP3    H133787   2.010   5.115  14.470  0.6526 -0.1510 -0.3560
 4124TIP3    H233788   2.015   5.049  14.606 -0.7008  2.0398  0.8179
 4125TIP3   OH233789   6.492   2.543   3.280  0.2542 -0.2727 -0.2376
 4125TIP3    H133790   6.504   2.448   3.285  0.5605 -0.2385 -0.3307
 4125TIP3    H233791   6.563   2.579   3.333 -0.9219 -0.1437  1.3509
 4126TIP3   OH233792   4.583   0.277   5.374 -0.1800 -0.2592 -0.1258
 4126TIP3    H133793   4.564   0.354   5.322  1.8168  0.0973 -0.3810
 4126TIP3    H233794   4.579   0.204   5.312 -0.4220 -0.1642 -0.2237
 4127TIP3   OH233795   2.787   2.366   1.383 -0.1120 -0.4452 -0.2174
 4127TIP3    H133796   2.770   2.450   1.340  0.4852 -0.3981 -0.3651
 4127TIP3    H233797   2.842   2.388   1.458 -2.1799 -0.3546  1.3723
 4128TIP3   OH233798   5.324   5.405  11.076  0.4534  0.2627 -0.2746
 4128TIP3    H133799   5.284   5.323  11.050 -2.0264  1.3567 -0.1302
 4128TIP3    H233800   5.342   5.451  10.994 -0.3256  0.5267 -0.3068
 4129TIP3   OH233801   0.582   5.983  15.049  0.3191 -0.5027 -0.2981
 4129TIP3    H133802   0.498   5.993  15.005 -0.0534 -0.6163  0.3757
 4129TIP3    H233803   0.560   5.977  15.142  1.2367  1.8102  0.1243
 4130TIP3   OH233804   2.506   4.623  14.358 -0.1032  0.4675 -0.5004
 4130TIP3    H133805   2.507   4.659  14.269 -1.5095 -0.9966 -1.1595
 4130TIP3    H233806   2.499   4.529  14.346 -0.0823  0.2224  1.1691
 4131TIP3   OH233807   5.671   5.102  10.687  0.1264 -0.1865  0.4596
 4131TIP3    H133808   5.654   5.157  10.610  1.3724  1.2674  1.1785
 4131TIP3    H233809   5.748   5.050  10.663 -0.0967 -0.4775  0.3637
 4132TIP3   OH233810   0.838   2.089   6.067 -0.4307  0.8587  0.0196
 4132TIP3    H133811   0.909   2.135   6.021  1.3877 -0.2032  1.6058
 4132TIP3    H233812   0.871   2.000   6.080 -2.4769  0.0426 -0.0131
 4133TIP3   OH233813   3.563   3.516   1.801 -0.6735 -0.2900  0.4087
 4133TIP3    H133814   3.526   3.589   1.751  0.7086 -0.9831 -1.7220
 4133TIP3    H233815   3.572   3.551   1.890 -0.6478  1.9284 -0.3903
 4134TIP3   OH233816   0.748   3.653  15.549 -0.1476 -0.1887 -0.4327
 4134TIP3    H133817   0.665   3.610  15.529 -0.1825  0.4263 -1.7464
 4134TIP3    H233818   0.754   3.651  15.644 -0.4788 -2.4435 -0.4070
 4135TIP3   OH233819   5.130   6.518   0.139 -0.6393  0.8729  0.3307
 4135TIP3    H133820   5.042   6.481   0.144  0.0835 -1.5774 -2.3918
 4135TIP3    H233821   5.180   6.467   0.203 -0.2103 -1.3424 -1.6357
 4136TIP3   OH233822   3.811   3.238   2.049 -0.5873  0.6436 -0.1528
 4136TIP3    H133823   3.727   3.269   2.016 -0.9235  0.1970  0.2698
 4136TIP3    H233824   3.876   3.280   1.992 -1.0388  1.7579  0.1293
 4137TIP3   OH233825   4.932   3.368  12.947 -0.5565  0.5376 -0.5675
 4137TIP3    H133826   4.882   3.345  13.025 -1.3032  0.5571 -1.0411
 4137TIP3    H233827   4.978   3.288  12.923 -0.1584  0.5850  0.0054
 4138TIP3   OH233828   5.322   1.247   5.768 -0.2504 -0.2498  0.9811
 4138TIP3    H133829   5.283   1.299   5.838 -1.2601  0.7031 -0.2503
 4138TIP3    H233830   5.320   1.304   5.691 -0.7789 -1.8607 -0.2611
 4139TIP3   OH233831   3.017   5.603   2.151 -0.4165 -0.7156  0.1910
 4139TIP3    H133832   3.058   5.589   2.236 -0.7604 -4.0545 -0.0748
 4139TIP3    H233833   3.007   5.516   2.113 -0.6289  0.5854 -3.1617
 4140TIP3   OH233834   1.714   1.510   1.664  0.5128 -0.3867  0.2054
 4140TIP3    H133835   1.760   1.539   1.743 -1.4463  0.8945  0.9676
 4140TIP3    H233836   1.660   1.585   1.639  0.2903 -1.1387 -1.7618
 4141TIP3   OH233837   5.188   0.472   1.046  0.1382  0.1196 -0.7835
 4141TIP3    H133838   5.229   0.390   1.074 -1.5162 -0.9011 -1.2107
 4141TIP3    H233839   5.157   0.454   0.957 -0.4392  1.1315 -0.8004
 4142TIP3   OH233840   6.470   0.413  12.471  0.7576  0.2725 -0.3477
 4142TIP3    H133841   6.450   0.440  12.382  0.5517 -2.3141 -1.1656
 4142TIP3    H233842   6.391   0.367  12.501  1.7660 -1.2426  0.1211
 4143TIP3   OH233843   4.627   0.120   1.404 -0.5674 -0.5412 -0.0832
 4143TIP3    H133844   4.571   0.168   1.343 -0.7134  0.1485  0.5696
 4143TIP3    H233845   4.715   0.154   1.388 -0.7905  0.6152  0.9664
 4144TIP3   OH233846   1.515   2.475   2.449  0.1207 -0.5777  0.2336
 4144TIP3    H133847   1.471   2.390   2.451 -2.2415  0.5736  2.1379
 4144TIP3    H233848   1.492   2.512   2.363  0.3480 -1.4247 -0.2045
 4145TIP3   OH233849   5.580   6.072  10.994  0.2930  0.4113  0.4801
 4145TIP3    H133850   5.656   6.048  10.940 -0.1255 -0.4599  0.2542
 4145TIP3    H233851   5.614   6.079  11.083  0.7051  0.3684  0.3254
 4146TIP3   OH233852   0.140   3.866   6.398  0.4615  0.5767 -0.2513
 4146TIP3    H133853   0.112   3.867   6.306  0.5182  0.3169 -0.2731
 4146TIP3    H233854   0.084   3.801   6.439  0.0651  1.0894  0.0215
 4147TIP3   OH233855   1.993   3.710  11.890 -0.1655  0.5912  0.1062
 4147TIP3    H133856   2.020   3.789  11.843 -1.2607 -0.0006 -1.6654
 4147TIP3    H233857   2.063   3.647  11.874 -1.1044 -0.0345 -2.0383
 4148TIP3   OH233858   2.938   4.042   0.910 -0.3730  0.1681 -0.5611
 4148TIP3    H133859   2.906   4.112   0.967 -1.9688 -1.3191  0.4999
 4148TIP3    H233860   2.880   4.044   0.834  0.0209  0.4485 -0.8510
 4149TIP3   OH233861   0.771   2.012  13.239 -0.1579  0.2206  0.1949
 4149TIP3    H133862   0.811   2.083  13.189 -2.8602  1.3455 -0.5686
 4149TIP3    H233863   0.814   2.016  13.325  1.6297  0.9912 -0.6871
 4150TIP3   OH233864   0.092   3.735   2.991 -0.7935  0.1549 -0.1657
 4150TIP3    H133865   0.123   3.691   3.070 -0.3575  0.3208 -0.2417
 4150TIP3    H233866   0.009   3.776   3.018 -0.4298  0.5854  0.3318
 4151TIP3   OH233867   2.084   6.138  11.259  0.7807 -0.4355 -0.1588
 4151TIP3    H133868   2.041   6.167  11.179 -0.5361  0.7680  0.9260
 4151TIP3    H233869   2.163   6.193  11.266 -0.6502  1.6697  0.8350
 4152TIP3   OH233870   5.335   5.445   0.014 -0.4645  0.3516  0.3761
 4152TIP3    H133871   5.244   5.461  -0.013 -0.2247  0.7730 -0.2034
 4152TIP3    H233872   5.354   5.357  -0.020 -0.6649  0.2549  0.5143
 4153TIP3   OH233873   6.548   3.908   2.812 -0.3952 -0.1156 -0.4013
 4153TIP3    H133874   6.528   3.884   2.721  0.3951 -1.8236 -0.1641
 4153TIP3    H233875   6.499   3.844   2.864  0.7259 -0.4072  0.3147
 4154TIP3   OH233876   5.633   2.057   4.340  0.1495  0.0953 -0.1264
 4154TIP3    H133877   5.560   2.045   4.400  1.1239 -0.3177  1.0168
 4154TIP3    H233878   5.615   1.997   4.268 -1.2314  0.8726 -0.4619
 4155TIP3   OH233879   4.192   3.868   5.196 -0.0540 -0.1803 -0.4242
 4155TIP3    H133880   4.106   3.854   5.236  0.6803 -0.1170  1.2576
 4155TIP3    H233881   4.254   3.854   5.267  1.2633  1.5136 -1.1646
 4156TIP3   OH233882   0.631   1.838  13.026 -0.1370 -1.0637 -0.5918
 4156TIP3    H133883   0.680   1.855  13.107 -0.3498 -1.0922 -0.4571
 4156TIP3    H233884   0.548   1.883  13.038 -0.3180 -1.3806 -0.6380
 4157TIP3   OH233885   2.271   0.502   1.064 -0.5062  0.0639  0.1104
 4157TIP3    H133886   2.302   0.509   0.974  2.2282  0.5642  0.9953
 4157TIP3    H233887   2.227   0.417   1.067 -0.9831  0.1997 -1.7469
 4158TIP3   OH233888   0.460   2.712  12.704 -0.0505 -1.1852  0.1682
 4158TIP3    H133889   0.458   2.621  12.734 -0.6748 -0.6230  1.9911
 4158TIP3    H233890   0.516   2.756  12.768 -0.9474 -0.0334  0.1886
 4159TIP3   OH233891   3.379   1.525  13.891  0.1710  0.1120  0.4632
 4159TIP3    H133892   3.420   1.468  13.957  0.5357 -1.7557 -1.2856
 4159TIP3    H233893   3.307   1.568  13.938 -0.0174 -1.6816  1.9259
 4160TIP3   OH233894   5.681   2.772   5.026 -0.0002  0.1925  0.0803
 4160TIP3    H133895   5.736   2.849   5.041 -0.9462  0.6193  1.6143
 4160TIP3    H233896   5.600   2.807   4.991 -0.3221 -0.1192  0.5035
 4161TIP3   OH233897   4.841   4.529  14.256  0.3003  0.0732 -0.0651
 4161TIP3    H133898   4.916   4.553  14.201 -0.7351  0.2277 -1.4433
 4161TIP3    H233899   4.795   4.611  14.272  0.9642  0.1512  1.6652
 4162TIP3   OH233900   4.615   6.733   0.560  0.0751 -0.4522  0.1746
 4162TIP3    H133901   4.630   6.788   0.636  0.2738 -0.9371  0.4898
 4162TIP3    H233902   4.682   6.665   0.565  0.4975 -0.1311 -0.7756
 4163TIP3   OH233903   5.225   3.476   0.131 -0.1890 -0.7707  0.1473
 4163TIP3    H133904   5.290   3.542   0.154 -0.6455 -0.5864  0.9368
 4163TIP3    H233905   5.206   3.493   0.038 -0.4530  0.3503  0.3894
 4164TIP3   OH233906   2.734   4.948  16.922 -0.0811  0.6304 -0.6499
 4164TIP3    H133907   2.821   4.908  16.926 -0.7722 -0.8542  1.3492
 4164TIP3    H233908   2.746   5.035  16.961  0.4062  0.1632  0.2789
 4165TIP3   OH233909   1.218   2.459   1.317 -0.0127 -0.5036 -0.3453
 4165TIP3    H133910   1.298   2.411   1.298  0.1170 -0.5745  0.3522
 4165TIP3    H233911   1.240   2.514   1.392  0.0292  1.1502 -1.5220
 4166TIP3   OH233912   0.352   0.985  12.519 -0.1180 -0.3750  0.3932
 4166TIP3    H133913   0.396   1.044  12.458  0.0895 -2.1754 -1.2761
 4166TIP3    H233914   0.265   1.023  12.530  0.9297  1.8722  1.7969
 4167TIP3   OH233915   3.566   2.964   0.276 -0.4321  0.3449  0.0394
 4167TIP3    H133916   3.609   2.911   0.344  2.0553  3.5730  1.2707
 4167TIP3    H233917   3.491   3.004   0.320 -0.3151  0.4625  0.1328
 4168TIP3   OH233918   2.575   2.190   1.350 -0.2144 -0.0662 -0.1065
 4168TIP3    H133919   2.625   2.271   1.356  0.4210 -0.4756  0.1925
 4168TIP3    H233920   2.556   2.181   1.257  1.7983 -0.8010 -0.5022
 4169TIP3   OH233921   4.728   5.284  11.134  0.8244  0.1408  0.2698
 4169TIP3    H133922   4.722   5.188  11.141 -0.2150  0.3296  3.1875
 4169TIP3    H233923   4.645   5.311  11.097  0.8481 -0.0223  0.0939
 4170TIP3   OH233924   2.273   6.376  14.357 -0.7244 -0.5749 -0.4004
 4170TIP3    H133925   2.307   6.440  14.294  1.8424 -2.0518 -0.6572
 4170TIP3    H233926   2.345   6.313  14.369 -1.9960 -1.7038  2.1810
 4171TIP3   OH233927   3.506   1.913   1.606 -0.3134 -0.2442  0.0420
 4171TIP3    H133928   3.442   1.942   1.542 -0.5607 -0.9133 -0.0280
 4171TIP3    H233929   3.454   1.870   1.674  0.1647 -2.4501 -0.9110
 4172TIP3   OH233930   0.095   1.678   5.184 -0.1966 -0.6509  0.2774
 4172TIP3    H133931   0.167   1.705   5.241 -1.5606  1.0353  1.2727
 4172TIP3    H233932   0.029   1.644   5.243 -1.2736  0.2762 -0.3622
 4173TIP3   OH233933   2.722   2.114   2.688 -0.6137 -0.2735 -0.1571
 4173TIP3    H133934   2.687   2.192   2.645  0.9976  0.4684 -0.1947
 4173TIP3    H233935   2.647   2.057   2.698 -1.6065  0.7792 -1.2423
 4174TIP3   OH233936   2.120   0.175   0.141 -0.1205  0.3691 -0.2085
 4174TIP3    H133937   2.092   0.115   0.210  0.9618  1.2557  1.0386
 4174TIP3    H233938   2.067   0.253   0.153 -0.6251  0.1648 -1.0232
 4175TIP3   OH233939   5.179   3.065  14.077 -0.0207 -0.9529  0.3190
 4175TIP3    H133940   5.225   2.983  14.061 -1.4367 -1.3172 -2.6267
 4175TIP3    H233941   5.235   3.133  14.040  1.6938 -0.2628  3.7470
 4176TIP3   OH233942   6.484   1.429  11.897  0.0479 -0.2738  0.5799
 4176TIP3    H133943   6.447   1.352  11.941 -0.4212  0.3597  1.3259
 4176TIP3    H233944   6.431   1.502  11.929  0.9377  0.4528  0.4207
 4177TIP3   OH233945   0.812   4.513   3.754  0.5111  0.0332 -0.3106
 4177TIP3    H133946   0.834   4.518   3.661  1.4861  1.6235 -0.0157
 4177TIP3    H233947   0.870   4.575   3.796 -0.7842  0.2700  1.2151
 4178TIP3   OH233948   3.949   2.718   2.000  0.4832 -0.3604 -0.5814
 4178TIP3    H133949   3.889   2.677   2.061  1.2992  0.4912  0.8279
 4178TIP3    H233950   3.894   2.774   1.945  0.0156  0.8281  1.0245
 4179TIP3   OH233951   4.375   4.229  12.025  0.1000  0.4297  0.1989
 4179TIP3    H133952   4.371   4.205  12.118 -0.5523  1.1022  0.3576
 4179TIP3    H233953   4.465   4.256  12.011  0.4087 -0.4619  0.4315
 4180TIP3   OH233954   2.092   3.810  16.394 -0.4858  0.4346 -0.1974
 4180TIP3    H133955   2.024   3.838  16.454 -0.8580 -0.0841 -0.3650
 4180TIP3    H233956   2.174   3.826  16.441 -0.8157 -1.7887  1.2890
 4181TIP3   OH233957   2.487   1.587   1.009 -0.2731 -0.5250  0.2609
 4181TIP3    H133958   2.463   1.674   0.977  0.1584 -0.3641  0.3657
 4181TIP3    H233959   2.432   1.527   0.959 -0.1767 -0.2243 -0.2124
 4182TIP3   OH233960   2.371   4.887  16.322 -0.9277 -0.5942 -0.2895
 4182TIP3    H133961   2.303   4.840  16.274 -0.4045 -1.0691 -0.5726
 4182TIP3    H233962   2.323   4.939  16.386 -1.4722 -3.0826  1.4917
 4183TIP3   OH233963   0.100   6.296  11.493  0.3846 -0.3099 -0.2115
 4183TIP3    H133964   0.125   6.362  11.428 -0.1054 -0.5726 -0.6667
 4183TIP3    H233965   0.183   6.272  11.534  0.5870  0.5049 -0.1168
 4184TIP3   OH233966   4.328   1.804   0.527  0.9369  0.4153 -0.0615
 4184TIP3    H133967   4.322   1.866   0.600 -1.8754  0.7279 -0.4499
 4184TIP3    H233968   4.320   1.718   0.568 -1.2048  0.6090  0.0544
 4185TIP3   OH233969   1.584   1.235  12.221  0.6275 -0.2312 -0.0268
 4185TIP3    H133970   1.651   1.302  12.212 -0.5805  0.9479 -0.5643
 4185TIP3    H233971   1.507   1.272  12.178 -0.2637 -1.7008  0.2391
 4186TIP3   OH233972   3.575   0.413   5.601  0.0748  0.0655  0.3157
 4186TIP3    H133973   3.512   0.349   5.566  0.3601  0.0491 -0.1749
 4186TIP3    H233974   3.658   0.365   5.604  0.6398  0.8432 -1.5151
 4187TIP3   OH233975   1.362   2.372   4.315  0.4875  0.1864  0.5581
 4187TIP3    H133976   1.275   2.382   4.278  0.5746 -0.5055  0.1541
 4187TIP3    H233977   1.350   2.314   4.390  0.7302 -0.6627 -0.0451
 4188TIP3   OH233978   3.989   0.075   6.800  0.1254 -0.1856  0.2605
 4188TIP3    H133979   3.945  -0.010   6.793  0.6200 -0.4002 -0.2864
 4188TIP3    H233980   4.063   0.059   6.858  0.7586 -0.3554 -0.5837
 4189TIP3   OH233981   0.480   4.790  11.048 -0.2810 -0.7385 -0.3203
 4189TIP3    H133982   0.416   4.788  10.977 -1.8418  1.1272  0.9139
 4189TIP3    H233983   0.515   4.879  11.047  0.3617 -0.9620  0.6408
 4190TIP3   OH233984   0.520   6.231  16.442  0.3273  0.0802 -0.8485
 4190TIP3    H133985   0.492   6.254  16.531  1.3518  0.8460 -0.6950
 4190TIP3    H233986   0.484   6.144  16.427  1.3314 -0.6923  0.8847
 4191TIP3   OH233987   4.493   5.213   4.925 -0.4997 -0.5891  0.2556
 4191TIP3    H133988   4.436   5.252   4.991  0.1465  0.9577 -0.0731
 4191TIP3    H233989   4.434   5.162   4.870 -1.4642  0.4517  0.3095
 4192TIP3   OH233990   3.284   0.472   4.160  0.4162 -0.3975  0.3159
 4192TIP3    H133991   3.279   0.562   4.128 -0.1136 -0.7859 -0.7301
 4192TIP3    H233992   3.267   0.479   4.254 -0.0776  0.5512  0.1673
 4193TIP3   OH233993   1.017   1.251   2.249  0.0750  0.1502  0.1635
 4193TIP3    H133994   1.002   1.344   2.233 -0.9736 -0.0871 -0.2435
 4193TIP3    H233995   0.939   1.207   2.216  0.0154 -0.7755  1.4485
 4194TIP3   OH233996   1.721   4.085   4.613  0.0736  0.0950  0.7357
 4194TIP3    H133997   1.757   4.173   4.600  0.4060 -0.0979  0.3088
 4194TIP3    H233998   1.647   4.081   4.552  1.8944 -0.9598 -1.5317
 4195TIP3   OH233999   4.607   2.317  13.887 -0.5974 -0.1785 -0.4529
 4195TIP3    H134000   4.574   2.397  13.928  1.9158  0.2444  0.9671
 4195TIP3    H234001   4.619   2.339  13.795 -2.1621  0.2602 -0.5906
 4196TIP3   OH234002   1.055   4.082   2.157  0.1573 -0.5033  0.0608
 4196TIP3    H134003   1.135   4.125   2.187 -0.0766 -0.0663  0.0688
 4196TIP3    H234004   1.023   4.137   2.085 -0.7674  0.0155  0.8230
 4197TIP3   OH234005   2.064   1.119   4.889 -0.0818 -0.1340 -0.2095
 4197TIP3    H134006   2.122   1.133   4.964 -0.8077 -1.8390  0.7288
 4197TIP3    H234007   2.110   1.160   4.816  1.2614  0.4557  0.9101
 4198TIP3   OH234008   6.262   4.703  13.666  0.2051  0.8836 -0.3117
 4198TIP3    H134009   6.286   4.633  13.606  1.0941  1.4396 -0.6228
 4198TIP3    H234010   6.341   4.719  13.718 -0.3042  0.9582  0.4692
 4199TIP3   OH234011   1.745   0.412   4.522 -0.1232 -0.0474 -0.6093
 4199TIP3    H134012   1.664   0.458   4.501 -0.6610 -1.0090 -0.7144
 4199TIP3    H234013   1.790   0.402   4.438  0.5715  1.3110 -0.4208
 4200TIP3   OH234014   0.394   3.061   4.991  0.3755 -0.0154  0.3357
 4200TIP3    H134015   0.308   3.022   4.999  0.0703 -0.0403 -2.1066
 4200TIP3    H234016   0.391   3.108   4.907  2.2722  1.1858  0.8709
 4201TIP3   OH234017   5.217   4.922  10.623 -0.0630 -0.1761  0.1636
 4201TIP3    H134018   5.302   4.895  10.657 -1.4035 -2.0100  2.2768
 4201TIP3    H234019   5.215   5.017  10.636  1.3859 -0.1949  0.6844
 4202TIP3   OH234020   2.308   5.912  11.163 -0.0777  0.0925  0.2886
 4202TIP3    H134021   2.393   5.867  11.158  0.4730  1.1388 -0.2199
 4202TIP3    H234022   2.324   5.988  11.219 -0.7051  0.2654  0.2419
 4203TIP3   OH234023   3.839   6.703   4.197 -0.5756 -0.0925 -0.0393
 4203TIP3    H134024   3.882   6.764   4.257 -2.0120  0.7102  0.2199
 4203TIP3    H234025   3.899   6.697   4.122 -0.5829  1.9991 -0.2693
 4204TIP3   OH234026   3.689   2.144  13.117  1.0453  0.3052 -0.4546
 4204TIP3    H134027   3.763   2.163  13.174  1.3296  0.4381 -0.8652
 4204TIP3    H234028   3.709   2.057  13.081  0.4114 -0.1991  0.3630
 4205TIP3   OH234029   5.371   4.996  14.260 -0.3429  0.6481 -0.1599
 4205TIP3    H134030   5.366   5.056  14.335  1.0716 -0.3015  0.7633
 4205TIP3    H234031   5.281   4.967  14.246 -0.7701  1.5747  0.5630
 4206TIP3   OH234032   4.103   1.751   1.380  0.1235  0.0076 -0.4449
 4206TIP3    H134033   4.144   1.807   1.314 -1.0353  0.5352 -0.7567
 4206TIP3    H234034   4.009   1.768   1.370 -0.0641  0.8342  1.9771
 4207TIP3   OH234035   0.158   6.330  16.094  0.2736  0.2252  0.1844
 4207TIP3    H134036   0.170   6.250  16.042 -0.9401  0.6979 -0.9120
 4207TIP3    H234037   0.167   6.401  16.030 -1.5254  0.8153  0.5295
 4208TIP3   OH234038   4.533   3.484   0.293  0.1639 -0.0232 -0.4163
 4208TIP3    H134039   4.527   3.494   0.388  0.5572  1.7433 -0.5541
 4208TIP3    H234040   4.479   3.554   0.257  0.1335 -0.5789 -1.5192
 4209TIP3   OH234041   3.834   5.136  11.610 -0.1134 -0.2005  0.1093
 4209TIP3    H134042   3.806   5.215  11.562 -1.6356 -1.9993 -2.2124
 4209TIP3    H234043   3.894   5.169  11.677 -0.7095  2.9206 -0.6984
 4210TIP3   OH234044   1.194   5.889   1.291  0.0310 -0.0471 -0.0039
 4210TIP3    H134045   1.204   5.978   1.257  1.9031 -0.3923 -0.4719
 4210TIP3    H234046   1.283   5.862   1.312 -0.6262 -1.4395  1.1337
 4211TIP3   OH234047   2.921   2.971  15.182  0.3388 -0.9890 -0.2838
 4211TIP3    H134048   2.882   2.896  15.137  3.3026 -2.5201 -0.5757
 4211TIP3    H234049   2.908   2.953  15.275 -1.8966 -0.0613 -0.3474
 4212TIP3   OH234050   6.622   4.730  16.628 -0.9357  0.4938 -0.1809
 4212TIP3    H134051   6.604   4.769  16.543 -2.2774  3.0327  1.1525
 4212TIP3    H234052   6.673   4.797  16.674  0.5623 -1.1981  0.7400
 4213TIP3   OH234053   4.418   2.421   1.341 -0.5825 -0.1110  0.5344
 4213TIP3    H134054   4.451   2.436   1.430  1.5901  0.1925 -0.2548
 4213TIP3    H234055   4.323   2.422   1.350 -0.4625  1.8133  2.5611
 4214TIP3   OH234056   4.339   3.943   3.829  0.3653  0.3792  0.0996
 4214TIP3    H134057   4.322   3.876   3.763 -0.3216 -0.6592  1.2892
 4214TIP3    H234058   4.420   3.985   3.801  1.6336 -1.9458  0.0826
 4215TIP3   OH234059   2.119   4.734  15.942  0.2848 -0.0008  0.0434
 4215TIP3    H134060   2.201   4.685  15.948 -0.2917 -1.0682 -0.6589
 4215TIP3    H234061   2.109   4.772  16.029  0.6874 -1.2285  0.6543
 4216TIP3   OH234062   3.175   3.342  11.785  0.2736  0.3168  0.3443
 4216TIP3    H134063   3.253   3.395  11.801  0.6417 -0.2085  0.3164
 4216TIP3    H234064   3.196   3.292  11.706  0.4581 -0.8527  1.1113
 4217TIP3   OH234065   3.064   4.973   1.481  0.1858 -0.3833  0.2518
 4217TIP3    H134066   3.039   5.041   1.544 -0.3595 -0.7828  0.4753
 4217TIP3    H234067   3.075   4.894   1.534  1.8679 -0.2612  0.1538
 4218TIP3   OH234068   0.150   5.589  12.971 -0.0617  0.6410  0.3207
 4218TIP3    H134069   0.200   5.572  12.891 -0.6081 -0.4337  0.1907
 4218TIP3    H234070   0.096   5.665  12.949  0.1251  0.6315 -0.1863
 4219TIP3   OH234071   0.255   6.070   3.751  0.3271 -0.2640 -0.0242
 4219TIP3    H134072   0.314   6.057   3.677 -0.4736 -0.2763 -0.6757
 4219TIP3    H234073   0.275   6.158   3.783  0.1331  0.0674 -0.7751
 4220TIP3   OH234074   5.090   2.028   0.666 -0.0512 -0.0412 -0.1368
 4220TIP3    H134075   5.120   1.968   0.734  1.4614  0.9856  0.1485
 4220TIP3    H234076   5.111   2.115   0.700  0.4346  0.5056 -1.7578
 4221TIP3   OH234077   5.696   5.960  15.756  0.2657 -0.0584 -0.3326
 4221TIP3    H134078   5.631   5.956  15.685 -2.5150 -0.8550  2.0438
 4221TIP3    H234079   5.678   6.043  15.800  0.1290 -0.7515  0.9670
 4222TIP3   OH234080   3.886   0.624  15.047  0.3060 -0.4691 -0.3323
 4222TIP3    H134081   3.864   0.681  15.121 -0.6005 -1.4206  0.1716
 4222TIP3    H234082   3.898   0.683  14.973 -0.3224  0.3911  0.2365
 4223TIP3   OH234083   4.773   4.092  15.416  0.1671  0.5611 -0.4324
 4223TIP3    H134084   4.822   4.160  15.370  0.2326  0.5383 -0.3977
 4223TIP3    H234085   4.682   4.104  15.389  0.5007 -1.0447 -2.6010
 4224TIP3   OH234086   3.131   5.697  16.864  0.8027 -0.1181 -0.1350
 4224TIP3    H134087   3.136   5.602  16.859 -1.7818 -0.3581  0.2429
 4224TIP3    H234088   3.115   5.715  16.957  1.9149  0.7570 -0.0954
 4225TIP3   OH234089   2.407   5.858  16.619  0.1567  0.3873 -0.1466
 4225TIP3    H134090   2.380   5.780  16.570  0.6200  0.6953 -0.9215
 4225TIP3    H234091   2.499   5.869  16.596  0.1754  0.9810  0.2065
 4226TIP3   OH234092   0.205   6.615   6.051 -0.5106 -0.0091 -0.1836
 4226TIP3    H134093   0.244   6.702   6.041  2.4217 -1.0941  0.8022
 4226TIP3    H234094   0.144   6.625   6.124  0.3456  1.0974  0.4172
 4227TIP3   OH234095   5.996   0.409   0.495  0.2241  0.0507  0.1557
 4227TIP3    H134096   6.065   0.399   0.561 -0.3199 -1.7548  0.4910
 4227TIP3    H234097   6.042   0.447   0.419  0.6507  3.2812  1.8329
 4228TIP3   OH234098   3.011   4.240   0.344  0.6022 -0.5838  0.3138
 4228TIP3    H134099   3.017   4.331   0.316  1.9218 -1.4402 -2.6323
 4228TIP3    H234100   3.102   4.211   0.349  0.1721 -2.1561 -0.4023
 4229TIP3   OH234101   5.822   2.520   5.076 -0.5339 -0.1947  0.1436
 4229TIP3    H134102   5.762   2.592   5.057  0.1984  0.2595 -0.4642
 4229TIP3    H234103   5.765   2.442   5.080 -1.1986  0.2733 -0.1149
 4230TIP3   OH234104   6.468   2.778  15.591 -0.2763  0.1478 -0.5167
 4230TIP3    H134105   6.493   2.867  15.565 -0.9113  0.4655 -0.0563
 4230TIP3    H234106   6.549   2.738  15.623  0.2087  0.2423 -1.5895
 4231TIP3   OH234107   5.810   5.369  12.857 -0.3686 -0.1303  0.2762
 4231TIP3    H134108   5.837   5.282  12.886 -0.3970  0.3063  1.6548
 4231TIP3    H234109   5.844   5.429  12.923 -2.2117  0.7163  0.5233
 4232TIP3   OH234110   1.307   5.943   4.796 -0.2735 -0.3237  0.0848
 4232TIP3    H134111   1.352   5.866   4.830 -0.8172 -1.5597 -1.7954
 4232TIP3    H234112   1.323   5.939   4.701 -1.3587  1.1812 -0.1922
 4233TIP3   OH234113   1.482   2.818  13.516 -0.0101  0.1266 -0.3490
 4233TIP3    H134114   1.560   2.857  13.557 -0.7787  0.8011  0.5018
 4233TIP3    H234115   1.463   2.741  13.569 -1.1521  1.1367  0.7893
 4234TIP3   OH234116   5.639   0.295  15.884 -0.0680  0.1768  0.6984
 4234TIP3    H134117   5.589   0.371  15.853  1.0799  1.4204  1.7969
 4234TIP3    H234118   5.724   0.303  15.842 -0.3733 -1.3563 -0.3209
 4235TIP3   OH234119   2.008   0.478   1.286 -0.1259  0.0514 -0.4778
 4235TIP3    H134120   1.965   0.405   1.330 -1.4373 -0.1866 -2.0829
 4235TIP3    H234121   1.952   0.554   1.303 -0.0711  0.1778 -0.8450
 4236TIP3   OH234122   6.131   2.238  15.784 -0.6916 -0.8398  0.0372
 4236TIP3    H134123   6.113   2.153  15.822  2.4410 -1.4874  0.4014
 4236TIP3    H234124   6.173   2.218  15.700 -2.5862  0.4624 -1.2901
 4237TIP3   OH234125   5.648   4.323  16.192 -0.0062  0.0016 -0.0014
 4237TIP3    H134126   5.693   4.357  16.114  1.3241 -2.8584 -0.6093
 4237TIP3    H234127   5.556   4.345  16.177  0.7034  3.8967  0.1147
 4238TIP3   OH234128   2.756   3.557   2.826 -0.6951  0.3440 -0.1887
 4238TIP3    H134129   2.808   3.535   2.904 -0.8331  1.0529  0.1108
 4238TIP3    H234130   2.676   3.597   2.861 -0.4965  1.2116 -0.7034
 4239TIP3   OH234131   5.358   6.404  16.575 -0.0154  0.0784 -0.0329
 4239TIP3    H134132   5.442   6.359  16.572 -0.3063 -0.4160 -1.3701
 4239TIP3    H234133   5.377   6.487  16.619  1.0236 -0.2994  0.2623
 4240TIP3   OH234134   2.708   6.422  13.454  0.5965  0.3601 -0.0935
 4240TIP3    H134135   2.760   6.342  13.446 -0.1246 -0.6775  3.5240
 4240TIP3    H234136   2.624   6.400  13.414  0.5294 -0.6041  0.5503
 4241TIP3   OH234137   3.800   0.143  12.427  0.0051 -0.1215 -1.1164
 4241TIP3    H134138   3.848   0.167  12.506  2.6001 -0.5188 -2.4685
 4241TIP3    H234139   3.781   0.050  12.437 -2.8426  0.5245  0.5115
 4242TIP3   OH234140   4.599   6.306  13.900 -0.1329 -0.4462 -0.0667
 4242TIP3    H134141   4.682   6.317  13.854 -0.1723 -0.1894 -0.0770
 4242TIP3    H234142   4.623   6.269  13.985  0.1605  1.2510  0.6125
 4243TIP3   OH234143   6.757   0.528  15.528  0.3377  0.4346 -0.6069
 4243TIP3    H134144   6.720   0.597  15.472  2.5077  3.0720  0.9262
 4243TIP3    H234145   6.851   0.533  15.513  0.7318 -0.6185  1.2478
 4244TIP3   OH234146   1.206   0.306   5.447  0.3091  0.1561  0.4408
 4244TIP3    H134147   1.296   0.304   5.479  0.3648  1.9818  0.5064
 4244TIP3    H234148   1.153   0.310   5.527 -0.0124 -2.7445  0.5000
 4245TIP3   OH234149   6.654   5.725   4.051 -0.6791 -0.0510  0.0697
 4245TIP3    H134150   6.622   5.763   3.969  1.8676 -1.3952 -1.6559
 4245TIP3    H234151   6.728   5.781   4.076 -0.0139 -0.9673  0.1893
 4246TIP3   OH234152   5.078   1.686   3.746 -0.4866  0.2944 -0.6440
 4246TIP3    H134153   5.036   1.761   3.787 -0.1399  0.1668 -0.0506
 4246TIP3    H234154   5.027   1.671   3.666 -1.5720  0.1620  0.0444
 4247TIP3   OH234155   5.812   0.583  13.982 -0.2235  0.2072  0.4532
 4247TIP3    H134156   5.862   0.592  14.063  1.7403 -2.8279 -0.2399
 4247TIP3    H234157   5.860   0.636  13.918 -0.6062  0.9734  0.7865
 4248TIP3   OH234158   0.930   1.973  13.477 -0.2730  0.3410  0.3405
 4248TIP3    H134159   1.001   2.026  13.441 -0.7088 -0.1798 -1.3778
 4248TIP3    H234160   0.974   1.904  13.527  0.3060  2.2371  2.6390
 4249TIP3   OH234161   4.405   2.820   6.770  0.3566 -0.0944 -0.4879
 4249TIP3    H134162   4.404   2.815   6.674 -1.2913  0.9442 -0.5634
 4249TIP3    H234163   4.315   2.800   6.795  1.4019 -3.4925  1.0897
 4250TIP3   OH234164   4.014   2.121   2.875 -0.0464 -0.7962 -0.1199
 4250TIP3    H134165   4.085   2.181   2.899  0.2421 -0.8173 -0.9061
 4250TIP3    H234166   4.058   2.037   2.859 -0.4003 -1.1289  0.5772
 4251TIP3   OH234167   4.329   0.792  16.577 -0.8452  0.1003  0.1084
 4251TIP3    H134168   4.260   0.754  16.522  0.4857 -0.6552 -1.0991
 4251TIP3    H234169   4.406   0.738  16.561  0.7503  2.4176 -0.5490
 4252TIP3   OH234170   2.123   4.817  15.667  0.0787 -0.0198 -0.2055
 4252TIP3    H134171   2.121   4.907  15.697 -1.4333 -0.1262  0.0965
 4252TIP3    H234172   2.120   4.764  15.747  0.4038 -0.3375 -0.3993
 4253TIP3   OH234173   1.553   6.461  12.342  0.0701  0.2874  0.4723
 4253TIP3    H134174   1.628   6.434  12.394 -0.2076 -0.8526  0.3142
 4253TIP3    H234175   1.578   6.546  12.305  2.1745 -1.0099 -1.3469
 4254TIP3   OH234176   4.109   6.762  15.129 -0.3740  0.3297  0.3275
 4254TIP3    H134177   4.140   6.846  15.095  0.8980 -0.0084  0.5923
 4254TIP3    H234178   4.187   6.707  15.131 -1.1696 -0.8454  0.2288
 4255TIP3   OH234179   4.780   1.965   2.783 -0.3881  0.2702 -0.2543
 4255TIP3    H134180   4.771   1.917   2.865 -0.4386  0.5801 -0.0769
 4255TIP3    H234181   4.837   2.039   2.804 -0.2800  0.2697 -0.5340
 4256TIP3   OH234182   1.746   2.899  15.916 -0.3292 -0.1619 -0.3570
 4256TIP3    H134183   1.809   2.839  15.953  0.1398  0.6533  0.1946
 4256TIP3    H234184   1.674   2.843  15.885 -1.0004 -0.8532  2.2509
 4257TIP3   OH234185   0.523   2.683  15.021  0.0390  0.1304 -0.2237
 4257TIP3    H134186   0.578   2.751  14.982 -0.0923 -0.5240 -1.5777
 4257TIP3    H234187   0.454   2.668  14.957 -0.9578 -0.0317  0.8564
 4258TIP3   OH234188   3.091   5.218  12.312  0.7021  0.1802 -0.2414
 4258TIP3    H134189   3.098   5.299  12.262 -0.2428  0.2591 -0.2585
 4258TIP3    H234190   3.154   5.159  12.271  1.0736  0.7590 -0.5143
 4259TIP3   OH234191   3.347   2.684   1.649 -0.3258  0.2634 -0.5391
 4259TIP3    H134192   3.385   2.712   1.566  0.3231 -1.0476 -0.7257
 4259TIP3    H234193   3.383   2.744   1.714  4.3026 -2.2944 -0.2937
 4260TIP3   OH234194   6.484   2.473   4.536 -0.1921 -0.0734  0.6360
 4260TIP3    H134195   6.433   2.548   4.567 -0.6127  0.3545 -0.9828
 4260TIP3    H234196   6.552   2.511   4.481  1.4079 -0.7068  2.1040
 4261TIP3   OH234197   3.304   1.047  12.604  0.3421  0.0015  0.8131
 4261TIP3    H134198   3.272   1.043  12.694 -0.5444 -0.7366  0.4868
 4261TIP3    H234199   3.286   1.137  12.576  0.3009  0.1330  1.2585
 4262TIP3   OH234200   4.235   1.373   2.729 -0.5204 -0.6980  0.6793
 4262TIP3    H134201   4.267   1.285   2.710  1.3814 -0.1641  1.2454
 4262TIP3    H234202   4.293   1.431   2.680 -1.6195  0.2734  0.4767
 4263TIP3   OH234203   0.435   0.401  15.122 -0.5978  0.4862 -0.5402
 4263TIP3    H134204   0.492   0.478  15.122 -1.0783  0.8551  0.1021
 4263TIP3    H234205   0.351   0.433  15.092 -0.3203 -0.1989 -2.1418
 4264TIP3   OH234206   4.400   0.716  13.123 -0.0302  0.0123  0.0426
 4264TIP3    H134207   4.385   0.750  13.035 -0.2755  0.1900  0.1512
 4264TIP3    H234208   4.492   0.688  13.123  0.2376  0.8724  0.0198
 4265TIP3   OH234209   0.474   5.791   5.394  0.2016 -0.4138 -0.3217
 4265TIP3    H134210   0.442   5.708   5.358 -0.7960 -1.1603  2.0508
 4265TIP3    H234211   0.547   5.765   5.451  0.9551  0.5671 -0.8110
 4266TIP3   OH234212   1.116   2.731   0.008 -0.3087 -0.0213  0.7907
 4266TIP3    H134213   1.155   2.799  -0.047 -1.4010 -0.1560 -0.1769
 4266TIP3    H234214   1.038   2.771   0.045 -1.2305 -0.8669 -0.1677
 4267TIP3   OH234215   0.441   2.050  12.765 -0.3622  0.5454 -0.4052
 4267TIP3    H134216   0.394   2.072  12.845 -0.0031  1.3825 -0.4108
 4267TIP3    H234217   0.534   2.056  12.790 -0.2496  0.8120 -0.8775
 4268TIP3   OH234218   0.649   4.925   1.970  0.3612 -0.2866  0.1212
 4268TIP3    H134219   0.692   4.992   1.916 -0.1118 -1.3225 -1.6254
 4268TIP3    H234220   0.589   4.974   2.026  0.3302  0.8053 -0.8264
 4269TIP3   OH234221   4.443   6.703   5.584 -0.2056  0.1368 -0.2747
 4269TIP3    H134222   4.517   6.700   5.644 -0.7936  0.3098  0.4657
 4269TIP3    H234223   4.387   6.630   5.610 -0.5720  0.3407 -0.4752
 4270TIP3   OH234224   3.386   5.894  12.612  0.0917  0.9036 -0.0428
 4270TIP3    H134225   3.479   5.872  12.607 -0.1728 -0.4496  0.4651
 4270TIP3    H234226   3.370   5.912  12.705 -0.4946 -0.6634  0.1983
 4271TIP3   OH234227   6.237   2.150   0.832 -0.1802 -0.2597  0.4074
 4271TIP3    H134228   6.279   2.226   0.794 -0.3088  0.1258  1.0260
 4271TIP3    H234229   6.144   2.173   0.836 -0.4153 -0.9720 -0.6361
 4272TIP3   OH234230   4.118   2.562   3.431 -0.0772 -0.4438 -0.2688
 4272TIP3    H134231   4.098   2.540   3.522 -1.2897 -1.0951 -0.6741
 4272TIP3    H234232   4.107   2.480   3.383 -0.7158  0.1528 -1.1908
 4273TIP3   OH234233   5.892   1.643  14.328  0.2300  0.0263  0.0433
 4273TIP3    H134234   5.842   1.723  14.343  0.2675 -0.0674  0.6965
 4273TIP3    H234235   5.971   1.673  14.282 -0.1385  0.2489 -0.4558
 4274TIP3   OH234236   1.401   2.107   3.931  0.5803 -0.3603 -0.4142
 4274TIP3    H134237   1.349   2.184   3.954 -0.7134 -1.5112  0.7166
 4274TIP3    H234238   1.338   2.046   3.893  1.5819 -0.8706 -1.2988
 4275TIP3   OH234239   1.991   3.533  14.349  0.4370  0.1673 -0.1761
 4275TIP3    H134240   1.924   3.509  14.286  0.7849 -1.5670  0.0632
 4275TIP3    H234241   2.057   3.580  14.298  0.0193  0.0784 -0.8062
 4276TIP3   OH234242   2.885   3.284  14.825 -0.7892  0.8366  0.0097
 4276TIP3    H134243   2.908   3.214  14.763  0.6211  1.4575 -0.2113
 4276TIP3    H234244   2.809   3.327  14.784  1.1405  2.3375 -2.2727
 4277TIP3   OH234245   6.585   3.449   3.270 -0.3286  0.1634  0.2381
 4277TIP3    H134246   6.663   3.414   3.227  0.6438  3.3241 -0.8920
 4277TIP3    H234247   6.616   3.482   3.354 -0.4381  1.2577 -0.1316
 4278TIP3   OH234248   0.210   4.126  15.075  0.6203 -0.5066  0.4201
 4278TIP3    H134249   0.263   4.128  14.995  1.1839  0.1186  0.7953
 4278TIP3    H234250   0.126   4.090  15.047  0.3174  1.0107 -0.7604
 4279TIP3   OH234251   0.620   6.261   3.062  0.7314 -0.6836  0.1354
 4279TIP3    H134252   0.601   6.264   3.156 -0.3046  0.1970 -0.0784
 4279TIP3    H234253   0.617   6.168   3.040 -0.5448 -0.7955  0.6983
 4280TIP3   OH234254   4.339   1.714  15.825 -0.7611 -0.0870 -0.1974
 4280TIP3    H134255   4.257   1.705  15.777 -1.5529  2.1962  0.5806
 4280TIP3    H234256   4.370   1.802  15.804  0.9261 -0.4943  0.3982
 4281TIP3   OH234257   3.053   4.366   2.934  0.1990  0.0618 -0.1396
 4281TIP3    H134258   3.009   4.302   2.989 -0.0608 -0.9545 -1.4841
 4281TIP3    H234259   3.113   4.412   2.994  0.4404 -1.4741  0.8487
 4282TIP3   OH234260   2.941   0.471  16.351  0.3829  0.1353 -0.0118
 4282TIP3    H134261   2.892   0.449  16.272 -1.6226 -1.5567  1.5954
 4282TIP3    H234262   3.009   0.404  16.356  0.1943 -0.0615 -0.0520
 4283TIP3   OH234263   3.475   0.528  14.045 -0.5518  0.0091 -0.3846
 4283TIP3    H134264   3.448   0.575  13.967  1.9252 -0.5891 -1.6718
 4283TIP3    H234265   3.443   0.439  14.032 -2.9595  0.5962  0.8637
 4284TIP3   OH234266   5.183   2.005   5.976 -0.3691  0.3849  0.2245
 4284TIP3    H134267   5.092   1.974   5.974 -0.2317 -0.0190  0.1634
 4284TIP3    H234268   5.218   1.971   6.059 -0.7622  1.9491  1.0780
 4285TIP3   OH234269   5.539   2.345   0.601  0.0079 -0.6575  0.6384
 4285TIP3    H134270   5.523   2.271   0.660 -0.6352 -0.8850  0.1849
 4285TIP3    H234271   5.504   2.421   0.649 -0.2132 -0.7910  0.6891
 4286TIP3   OH234272   4.320   4.540  14.786 -0.2191 -0.4530  0.0245
 4286TIP3    H134273   4.275   4.577  14.862  0.2993 -0.9481  0.5909
 4286TIP3    H234274   4.315   4.608  14.719 -1.5583 -0.3989  0.1583
 4287TIP3   OH234275   0.948   5.192  16.536 -0.8433 -0.2983 -0.5535
 4287TIP3    H134276   0.967   5.224  16.448 -0.8299  0.9363 -0.1206
 4287TIP3    H234277   0.986   5.104  16.539  1.3288  0.5775 -0.9987
 4288TIP3   OH234278   5.640   5.523   4.855  0.3972  0.7855  0.1506
 4288TIP3    H134279   5.684   5.528   4.770 -1.4705  0.3894 -0.8844
 4288TIP3    H234280   5.561   5.472   4.839 -1.2121  2.6362  1.5959
 4289TIP3   OH234281   6.196   1.189  11.807  0.3041  0.2996  0.0863
 4289TIP3    H134282   6.118   1.143  11.775  0.2369 -0.1009  0.8002
 4289TIP3    H234283   6.260   1.180  11.736  0.0102 -0.1849 -0.1227
 4290TIP3   OH234284   3.638   3.462  17.097 -0.1762  0.2375 -0.3365
 4290TIP3    H134285   3.597   3.378  17.077  1.0892 -0.5367  0.1813
 4290TIP3    H234286   3.652   3.459  17.192 -1.7935  1.8454  0.0209
 4291TIP3   OH234287   1.402   4.910   2.688  0.7881 -0.1580  0.5614
 4291TIP3    H134288   1.492   4.898   2.659  0.0881 -1.6570 -1.2761
 4291TIP3    H234289   1.375   4.825   2.721 -0.9681 -0.9039 -2.3309
 4292TIP3   OH234290   2.856   3.106   5.409  0.1905  0.2128 -0.4775
 4292TIP3    H134291   2.841   3.012   5.414  0.4585  0.1695 -0.4937
 4292TIP3    H234292   2.809   3.134   5.330  1.4298 -0.1700 -1.3739
 4293TIP3   OH234293   6.360   3.269  16.037 -0.0811  0.0029 -0.1102
 4293TIP3    H134294   6.344   3.234  16.125  0.1869 -1.7259 -0.7208
 4293TIP3    H234295   6.291   3.231  15.983 -0.0525  0.8026 -0.7284
 4294TIP3   OH234296   6.443   6.547  14.959 -0.1008  0.1193 -0.3355
 4294TIP3    H134297   6.417   6.575  15.047 -1.9985  0.2829 -0.9043
 4294TIP3    H234298   6.520   6.601  14.939 -0.4700  1.0667  0.6927
 4295TIP3   OH234299   6.196   3.104   4.002  0.0428  0.0078  0.4618
 4295TIP3    H134300   6.140   3.138   4.072  1.3242 -0.0346  1.5392
 4295TIP3    H234301   6.209   3.012   4.024 -0.2390 -0.2295 -0.3202
 4296TIP3   OH234302   1.325   4.917   3.988 -0.0408 -0.2051 -0.1454
 4296TIP3    H134303   1.366   4.932   3.903 -1.4587  0.1831 -0.7925
 4296TIP3    H234304   1.318   5.004   4.027  1.0070 -0.4310  0.5811
 4297TIP3   OH234305   1.039   2.809  13.847  0.3982  0.3674 -0.4632
 4297TIP3    H134306   1.024   2.903  13.856 -0.6107  0.2216 -0.5026
 4297TIP3    H234307   1.087   2.800  13.765  1.3369  0.9184  0.0126
 4298TIP3   OH234308   5.787   5.315   2.093  0.5914 -0.0237  0.3221
 4298TIP3    H134309   5.881   5.301   2.092  0.6540 -0.2881 -2.9330
 4298TIP3    H234310   5.755   5.268   2.016 -2.0166  1.1362  0.5702
 4299TIP3   OH234311   3.229   3.903   2.219 -0.2203 -0.0327  0.0132
 4299TIP3    H134312   3.182   3.947   2.290  0.8229  0.5686  0.3593
 4299TIP3    H234313   3.286   3.839   2.264  1.0148  0.8815 -0.1904
 4300TIP3   OH234314   4.725   5.824  10.767  0.3631 -0.4686 -0.5331
 4300TIP3    H134315   4.727   5.919  10.779  0.2840 -0.7108  1.7345
 4300TIP3    H234316   4.651   5.809  10.709  1.6176  0.9639 -2.6708
 4301TIP3   OH234317   5.633   5.288   5.984  0.2779  0.3042 -0.4311
 4301TIP3    H134318   5.594   5.337   6.055 -0.2063  0.3050 -0.6930
 4301TIP3    H234319   5.559   5.254   5.934  0.5949 -0.6979 -0.2536
 4302TIP3   OH234320   6.369   0.536  12.730  0.0026  0.2202  0.0693
 4302TIP3    H134321   6.452   0.552  12.684 -0.7124 -1.0672 -1.7542
 4302TIP3    H234322   6.317   0.485  12.669 -1.5914 -0.2901  1.7780
 4303TIP3   OH234323   0.386   3.987  13.814  0.3443  0.3592  0.3741
 4303TIP3    H134324   0.340   4.051  13.759  0.4623  0.1727  0.0563
 4303TIP3    H234325   0.362   3.902  13.777 -0.4723  0.1686  1.3081
 4304TIP3   OH234326   1.580   4.692   4.484 -0.3364 -0.0238  0.6643
 4304TIP3    H134327   1.505   4.684   4.426  0.7274  0.1786 -0.7923
 4304TIP3    H234328   1.595   4.786   4.491  0.6007 -0.0881 -0.1924
 4305TIP3   OH234329   1.206   4.909  14.312  0.5513 -0.2919 -0.0064
 4305TIP3    H134330   1.112   4.924  14.320  0.4114 -1.2501  0.3564
 4305TIP3    H234331   1.246   4.980  14.361 -0.0865 -1.4508  2.3697
 4306TIP3   OH234332   6.243   3.317   0.088  0.2639 -0.0116  0.3830
 4306TIP3    H134333   6.308   3.364   0.035 -3.8563  3.4881 -2.1837
 4306TIP3    H234334   6.223   3.377   0.160 -1.6996  0.0517 -0.1848
 4307TIP3   OH234335   4.607   6.471  14.229  0.1648  0.1842 -0.2485
 4307TIP3    H134336   4.560   6.541  14.276 -0.1683  1.4040 -2.2669
 4307TIP3    H234337   4.699   6.495  14.237  0.1000  0.4797 -0.3696
 4308TIP3   OH234338   3.596   1.116  13.333  0.3119 -0.1056 -0.0638
 4308TIP3    H134339   3.526   1.112  13.268  1.3912  1.5251 -1.4018
 4308TIP3    H234340   3.607   1.209  13.351  1.6227 -0.3849  0.7036
 4309TIP3   OH234341   1.026   0.302   1.851  0.4464 -0.5730 -0.8593
 4309TIP3    H134342   0.967   0.232   1.824  0.4040 -0.4603 -1.0595
 4309TIP3    H234343   0.974   0.382   1.840  0.8693 -0.4113 -1.6893
 4310TIP3   OH234344   2.578   3.347   2.782 -0.4648  0.0394  1.0888
 4310TIP3    H134345   2.632   3.270   2.800 -0.6595 -0.0600  1.2612
 4310TIP3    H234346   2.639   3.421   2.781 -0.3007 -0.0979  1.0842
 4311TIP3   OH234347   1.721   3.550  13.715 -0.6197  0.2679 -0.0681
 4311TIP3    H134348   1.755   3.480  13.771 -1.1910 -0.6006 -0.7777
 4311TIP3    H234349   1.643   3.583  13.761 -1.6173 -1.0576 -0.7392
 4312TIP3   OH234350   0.828   2.793   0.317  0.0043  0.5913  0.9113
 4312TIP3    H134351   0.840   2.714   0.370 -1.9890  0.3548  1.1067
 4312TIP3    H234352   0.911   2.839   0.322  0.5354 -0.4766  2.5167
 4313TIP3   OH234353   6.746   6.734   1.072 -0.4953 -0.5325 -0.7016
 4313TIP3    H134354   6.739   6.679   1.150 -0.5707  0.2216 -0.1629
 4313TIP3    H234355   6.681   6.698   1.011 -1.8801  0.0794  0.3530
 4314TIP3   OH234356   5.718   3.355  17.099  0.4881  0.0554 -0.4826
 4314TIP3    H134357   5.685   3.411  17.029 -2.1352 -0.3734  0.3082
 4314TIP3    H234358   5.748   3.417  17.166  0.4654  0.4874 -0.8650
 4315TIP3   OH234359   3.395   2.438   3.899 -0.2887  0.1872 -0.3779
 4315TIP3    H134360   3.459   2.392   3.953 -0.9407  1.0925  1.2307
 4315TIP3    H234361   3.361   2.372   3.839  1.8307 -0.4103 -0.9957
 4316TIP3   OH234362   5.173   2.403   2.281  0.8819 -0.5357 -0.3404
 4316TIP3    H134363   5.204   2.313   2.292  0.6290 -1.1564 -3.6549
 4316TIP3    H234364   5.223   2.453   2.344  1.4676 -2.8939  1.2036
 4317TIP3   OH234365   3.168   1.741   4.580 -0.5355 -0.5431 -0.4317
 4317TIP3    H134366   3.192   1.808   4.516  1.4405 -1.7841 -1.0887
 4317TIP3    H234367   3.246   1.686   4.587 -1.7226 -2.1538  0.8666
 4318TIP3   OH234368   5.085   3.446  14.062 -0.2099 -0.3124 -0.3864
 4318TIP3    H134369   5.116   3.413  14.146  0.3714 -2.2070 -1.2838
 4318TIP3    H234370   5.146   3.517  14.040  0.3621 -0.5953  0.2467
 4319TIP3   OH234371   4.457   0.961  14.269 -0.6123 -0.3428 -0.1693
 4319TIP3    H134372   4.534   0.983  14.217 -0.2733 -1.0137  0.0421
 4319TIP3    H234373   4.427   0.877  14.233  0.6823 -1.7625  1.8419
 4320TIP3   OH234374   6.666   0.884   5.349  0.0731 -0.0675 -0.6144
 4320TIP3    H134375   6.724   0.926   5.286  1.5199 -0.1678  0.5860
 4320TIP3    H234376   6.662   0.946   5.422 -1.4392 -0.0184 -0.7060
 4321TIP3   OH234377   0.485   0.062   5.857  0.2110  0.1421  0.3618
 4321TIP3    H134378   0.418   0.066   5.926  0.6053  1.8762  0.6946
 4321TIP3    H234379   0.566   0.040   5.903  0.4014  0.9156  0.4051
 4322TIP3   OH234380   2.051   5.904   1.210  0.2698 -0.5020  0.0150
 4322TIP3    H134381   2.116   5.835   1.225  1.3537 -0.4918 -3.7491
 4322TIP3    H234382   1.993   5.869   1.142 -0.2935  1.5556 -0.6380
 4323TIP3   OH234383   5.952   3.938  14.477  0.5290  0.0621  0.2419
 4323TIP3    H134384   5.859   3.948  14.459  0.7499  1.7714 -0.1061
 4323TIP3    H234385   5.970   4.001  14.547  1.4036 -0.3166  0.3729
 4324TIP3   OH234386   4.093   3.950   3.326  0.1417  0.1770 -0.1884
 4324TIP3    H134387   4.090   4.011   3.400  1.1115 -0.0111  0.0152
 4324TIP3    H234388   4.086   4.006   3.249 -1.2021  0.3514  0.0292
 4325TIP3   OH234389   4.230   3.048  16.333 -0.2215  0.1065 -0.0801
 4325TIP3    H134390   4.306   3.092  16.294  0.1346  0.4278  0.9133
 4325TIP3    H234391   4.263   3.016  16.417 -1.4430  1.1450  0.8307
 4326TIP3   OH234392   1.133   0.412   3.235 -0.3163  0.4028 -0.1876
 4326TIP3    H134393   1.213   0.441   3.192 -0.8106  0.5741 -1.0200
 4326TIP3    H234394   1.063   0.435   3.174 -1.2619  2.3948  1.5457
 4327TIP3   OH234395   2.258   6.377   4.583 -0.8672 -0.7563 -0.4936
 4327TIP3    H134396   2.353   6.366   4.573 -0.4748  1.5126  0.2050
 4327TIP3    H234397   2.241   6.362   4.676 -1.6652 -3.6559 -1.0026
 4328TIP3   OH234398   3.996   0.109  11.848 -0.1729 -0.2836  0.1819
 4328TIP3    H134399   3.960   0.129  11.934 -0.2208  0.0950  0.0786
 4328TIP3    H234400   3.922   0.076  11.797 -0.0347 -0.9967  0.4376
 4329TIP3   OH234401   4.647   6.275  15.878 -0.1162 -0.2301  0.1726
 4329TIP3    H134402   4.638   6.357  15.925  3.2665  0.4182 -0.0921
 4329TIP3    H234403   4.618   6.295  15.789 -2.2056 -0.2471  0.7877
 4330TIP3   OH234404   1.267   6.641   3.863 -0.1066  0.4457  0.2182
 4330TIP3    H134405   1.257   6.645   3.958  0.6972 -0.4453  0.3469
 4330TIP3    H234406   1.216   6.716   3.831  0.0882  1.0933  1.3737
 4331TIP3   OH234407   5.264   5.937   5.079 -0.5322  0.0390 -0.5698
 4331TIP3    H134408   5.259   5.965   4.988  1.8143 -1.4744 -1.2617
 4331TIP3    H234409   5.340   5.879   5.082 -0.1824  0.4734  2.4789
 4332TIP3   OH234410   3.806   0.471   5.376 -0.2988 -0.2897 -0.4210
 4332TIP3    H134411   3.727   0.516   5.407  0.2957  0.0916  0.5485
 4332TIP3    H234412   3.876   0.535   5.385  0.0625 -0.4708 -1.7151
 4333TIP3   OH234413   6.372   0.617  11.285 -0.0621 -0.0902 -0.1758
 4333TIP3    H134414   6.311   0.591  11.216 -0.7988  1.2321 -0.0477
 4333TIP3    H234415   6.317   0.638  11.360  0.5976  0.3951  0.1901
 4334TIP3   OH234416   1.252   1.435   1.129  0.0283 -0.7159  0.1763
 4334TIP3    H134417   1.326   1.378   1.108  0.6119  0.1857 -0.3156
 4334TIP3    H234418   1.294   1.513   1.167 -0.5214  0.5228 -1.6349
 4335TIP3   OH234419   2.462   6.465  16.968  0.3977  0.1001  0.0633
 4335TIP3    H134420   2.480   6.537  16.907  0.1143 -1.3651 -1.8430
 4335TIP3    H234421   2.367   6.454  16.966  0.2685  0.7375  1.6514
 4336TIP3   OH234422   4.430   2.258  15.586 -0.3134 -0.0491  0.2063
 4336TIP3    H134423   4.355   2.285  15.533  0.2272 -0.6150 -0.8790
 4336TIP3    H234424   4.502   2.248  15.524  0.4146 -0.4995  1.0791
 4337TIP3   OH234425   1.103   4.084  16.527  0.0068  0.1847  0.4403
 4337TIP3    H134426   1.175   4.021  16.532  0.7910  0.8976 -1.1125
 4337TIP3    H234427   1.055   4.060  16.447 -0.3465  0.8776  0.4375
 4338TIP3   OH234428   1.160   3.440  13.684  0.2941 -0.0487 -0.3665
 4338TIP3    H134429   1.146   3.468  13.593  1.3591 -0.8438 -0.8054
 4338TIP3    H234430   1.134   3.348  13.685  2.1092 -0.6102 -0.3904
 4339TIP3   OH234431   4.694   3.556  13.774 -0.3432  0.1605  0.0531
 4339TIP3    H134432   4.691   3.511  13.858  0.5430 -0.1765 -0.0790
 4339TIP3    H234433   4.605   3.588  13.759 -0.4158  0.5714  1.3004
 4340TIP3   OH234434   0.326   3.490   5.568  0.3846  0.0631  0.1352
 4340TIP3    H134435   0.387   3.560   5.545 -0.2381  0.5294 -0.1014
 4340TIP3    H234436   0.379   3.430   5.622  0.6699  1.2196  1.1872
 4341TIP3   OH234437   1.269   3.871  14.844  0.3528 -0.7754  0.3416
 4341TIP3    H134438   1.183   3.828  14.846  0.3606 -0.7967  0.2383
 4341TIP3    H234439   1.302   3.864  14.934  0.5834 -1.4526  0.2131
 4342TIP3   OH234440   3.078   3.942  15.239  0.5267  0.0668 -0.4006
 4342TIP3    H134441   3.122   3.917  15.157 -1.2798 -4.3725 -0.3037
 4342TIP3    H234442   2.988   3.963  15.212 -0.0893 -1.4645  0.3877
 4343TIP3   OH234443   1.103   1.782  15.931 -0.6147 -1.0651  0.1747
 4343TIP3    H134444   1.177   1.776  15.870 -0.3591 -1.3234  0.5045
 4343TIP3    H234445   1.027   1.757  15.878 -0.3183 -1.8488  0.0980
 4344TIP3   OH234446   1.428   2.151  15.005 -0.0156 -0.1053  0.5081
 4344TIP3    H134447   1.484   2.228  14.996  0.6452 -0.6700 -0.3138
 4344TIP3    H234448   1.376   2.169  15.084  0.2326  1.1053  0.4206
 4345TIP3   OH234449   0.732   2.988   2.074  0.4950 -0.4647 -0.1685
 4345TIP3    H134450   0.663   2.925   2.095  1.1556 -0.8945  0.7385
 4345TIP3    H234451   0.805   2.935   2.043  0.7423 -0.0830 -0.2484
 4346TIP3   OH234452   4.221   5.050   4.112 -0.5882 -0.2532  0.3104
 4346TIP3    H134453   4.149   5.081   4.057 -0.1492  1.3684  0.5835
 4346TIP3    H234454   4.292   5.032   4.051 -1.6061 -3.2727 -0.1208
 4347TIP3   OH234455   0.447   5.476  11.429  0.1895  0.2812  1.0284
 4347TIP3    H134456   0.538   5.452  11.450  0.6053  1.7496  1.0315
 4347TIP3    H234457   0.417   5.408  11.370  1.5220  0.1183  0.5016
 4348TIP3   OH234458   2.280   5.167   3.701 -0.0314 -0.5446  0.1233
 4348TIP3    H134459   2.308   5.152   3.611 -0.0299 -0.8581  0.1714
 4348TIP3    H234460   2.339   5.234   3.735  0.2655 -0.7568  0.0321
 4349TIP3   OH234461   4.060   1.411   1.834 -0.4980 -0.0079 -0.2552
 4349TIP3    H134462   4.124   1.357   1.882 -0.0952  0.7215  0.0571
 4349TIP3    H234463   4.096   1.500   1.840 -0.2450  0.0564 -2.2356
 4350TIP3   OH234464   6.104   4.496   3.021  0.4103  0.0149 -0.7519
 4350TIP3    H134465   6.046   4.492   2.945  0.4266  1.4234 -0.8522
 4350TIP3    H234466   6.114   4.589   3.039 -2.0328 -0.2399  2.8675
 4351TIP3   OH234467   0.715   5.369   1.360  0.0605 -0.0462 -0.1266
 4351TIP3    H134468   0.728   5.460   1.387 -1.7031  0.8720 -2.1089
 4351TIP3    H234469   0.620   5.356   1.360  0.2136 -1.4825 -1.1194
 4352TIP3   OH234470   4.379   1.757  12.519 -0.2203 -0.1369  0.3213
 4352TIP3    H134471   4.443   1.770  12.449 -1.2678  1.2584 -0.4324
 4352TIP3    H234472   4.418   1.800  12.595 -0.6972  1.6977 -0.4207
 4353TIP3   OH234473   6.638   0.623   1.196  0.9703 -0.1883 -0.8500
 4353TIP3    H134474   6.643   0.718   1.203 -0.3022 -0.2056  2.1042
 4353TIP3    H234475   6.552   0.606   1.158  0.8672 -0.1228 -0.6525
 4354TIP3   OH234476   5.055   5.496   3.121  0.3375  0.4421 -0.1520
 4354TIP3    H134477   5.066   5.401   3.113 -0.1084  0.0904  2.4917
 4354TIP3    H234478   4.965   5.511   3.092  0.4191  0.0719 -0.6201
 4355TIP3   OH234479   5.534   2.462   1.622 -0.1832  0.4760  0.5435
 4355TIP3    H134480   5.532   2.382   1.570 -0.1983  0.5567  0.4169
 4355TIP3    H234481   5.509   2.435   1.710 -0.0464  0.3180  0.5347
 4356TIP3   OH234482   4.677   5.187  14.839  0.0600  0.3477 -0.3275
 4356TIP3    H134483   4.760   5.214  14.878  0.8638 -1.1294 -0.9202
 4356TIP3    H234484   4.701   5.148  14.755 -1.3394  0.7659 -0.9568
 4357TIP3   OH234485   4.520   5.254  13.341  0.2168  0.2303 -0.1632
 4357TIP3    H134486   4.568   5.174  13.362 -0.7054 -0.6675 -1.3352
 4357TIP3    H234487   4.547   5.316  13.408  1.7802 -0.7214  0.1450
 4358TIP3   OH234488   0.913   1.801  16.284 -0.1464 -0.2558 -0.5413
 4358TIP3    H134489   0.868   1.749  16.349  0.2281 -0.7958 -0.7077
 4358TIP3    H234490   0.844   1.845  16.235 -0.4723 -0.7551 -0.5302
 4359TIP3   OH234491   4.724   4.514   2.361 -0.6975 -0.1928 -0.4964
 4359TIP3    H134492   4.738   4.426   2.324 -1.4658 -0.9250  0.8946
 4359TIP3    H234493   4.629   4.528   2.355 -0.4167  1.4337 -2.5591
 4360TIP3   OH234494   2.130   0.315   4.245  0.4424 -0.4105 -0.4118
 4360TIP3    H134495   2.187   0.339   4.172 -0.9566  0.1647 -1.3537
 4360TIP3    H234496   2.072   0.248   4.208 -1.2483  0.9419 -0.2873
 4361TIP3   OH234497   2.991   5.122  17.089  0.0947 -0.5877 -0.0266
 4361TIP3    H134498   2.956   5.189  17.147 -0.4945 -0.8460 -0.0758
 4361TIP3    H234499   2.963   5.039  17.128  0.1994 -0.7840 -0.3620
 4362TIP3   OH234500   3.793   2.467   5.036 -0.0684  0.3291 -0.1197
 4362TIP3    H134501   3.754   2.464   4.949 -1.5922 -2.1792  0.5543
 4362TIP3    H234502   3.883   2.437   5.023 -0.2300  0.1476 -0.8601
 4363TIP3   OH234503   2.982   4.092  11.420  0.6477  0.3266 -0.6158
 4363TIP3    H134504   3.037   4.144  11.478  0.4726 -0.3897  0.2256
 4363TIP3    H234505   2.899   4.083  11.468 -0.5859  2.1891 -2.2582
 4364TIP3   OH234506   5.812   0.228  13.396 -0.3043 -0.0094  0.6373
 4364TIP3    H134507   5.863   0.156  13.434  1.9918  1.0951 -0.1640
 4364TIP3    H234508   5.832   0.225  13.303 -0.8200  1.1766  0.4651
 4365TIP3   OH234509   4.052   4.502  11.016 -0.3057  0.2797  0.2151
 4365TIP3    H134510   3.966   4.511  10.976  0.0278  1.6536 -0.2222
 4365TIP3    H234511   4.106   4.462  10.948 -0.6071 -0.7391  0.5443
 4366TIP3   OH234512   3.802   0.174   4.744  0.7351 -0.3662 -0.2864
 4366TIP3    H134513   3.804   0.083   4.774 -2.8842  0.1390  1.9876
 4366TIP3    H234514   3.748   0.173   4.665  1.2057 -0.2226 -0.6196
 4367TIP3   OH234515   1.935   6.103   3.082  0.0466  0.1335 -0.3882
 4367TIP3    H134516   1.931   6.040   3.154  0.1834  1.3015  0.6767
 4367TIP3    H234517   2.019   6.085   3.039 -0.5525 -1.3381 -1.0187
 4368TIP3   OH234518   0.468   1.869   6.327 -0.3768  0.5000 -0.8138
 4368TIP3    H134519   0.469   1.774   6.332 -0.4488  0.5115 -0.5505
 4368TIP3    H234520   0.440   1.888   6.237 -2.8879  0.2556 -0.1758
 4369TIP3   OH234521   0.534   0.748  16.864  0.1290 -0.2454  0.0507
 4369TIP3    H134522   0.515   0.678  16.802  1.4919 -0.4809 -0.1113
 4369TIP3    H234523   0.556   0.703  16.945 -2.0596  0.0627  0.8970
 4370TIP3   OH234524   2.061   1.795   5.092  0.7452 -0.0822 -0.4469
 4370TIP3    H134525   2.068   1.875   5.144 -0.6650 -0.6803  0.7266
 4370TIP3    H234526   1.978   1.804   5.046 -0.0823 -1.4100  0.7094
 4371TIP3   OH234527   5.971   4.753  13.598  0.5053  0.4079 -0.1485
 4371TIP3    H134528   5.903   4.747  13.665 -0.5384  1.8197 -1.0166
 4371TIP3    H234529   6.051   4.728  13.643 -0.4936 -0.8231  1.0445
 4372TIP3   OH234530   6.720   6.544   0.499 -0.3459 -0.2931 -0.0377
 4372TIP3    H134531   6.674   6.573   0.578  0.7376 -1.8790  1.2491
 4372TIP3    H234532   6.683   6.458   0.481 -1.9693  0.8171 -2.4834
 4373TIP3   OH234533   3.842   5.296  15.891 -0.0479  0.1231  0.0244
 4373TIP3    H134534   3.818   5.344  15.812  1.4924 -0.0849 -0.6140
 4373TIP3    H234535   3.785   5.332  15.959  0.8069  2.7005 -0.4728
 4374TIP3   OH234536   6.763   0.205  13.269  0.1935  0.3051  0.3293
 4374TIP3    H134537   6.743   0.268  13.200 -0.0537 -0.9675 -0.8065
 4374TIP3    H234538   6.800   0.130  13.222  0.1279 -0.5378  1.5967
 4375TIP3   OH234539   0.373   4.480   4.664  0.3368  0.2339  0.7170
 4375TIP3    H134540   0.355   4.426   4.740 -0.4153  0.9272  1.0445
 4375TIP3    H234541   0.448   4.438   4.621 -1.5184 -2.3068 -0.2521
 4376TIP3   OH234542   1.194   6.295  13.944  0.1910 -0.2298 -0.2484
 4376TIP3    H134543   1.101   6.298  13.921  0.6638  1.5506 -2.1872
 4376TIP3    H234544   1.236   6.357  13.885  2.7044 -1.2657  0.3101
 4377TIP3   OH234545   4.257   4.801   4.212  0.4517 -0.5060 -0.8809
 4377TIP3    H134546   4.185   4.761   4.164 -2.7486 -0.1254  2.9977
 4377TIP3    H234547   4.264   4.890   4.177 -0.4945 -0.7674 -1.7598
 4378TIP3   OH234548   2.614   6.064  12.304  0.7015  0.3193 -0.1988
 4378TIP3    H134549   2.617   6.086  12.211 -1.2694  2.0148  0.0618
 4378TIP3    H234550   2.603   6.148  12.349 -1.8171 -0.6588  1.2634
 4379TIP3   OH234551   3.415   5.400  12.274  0.8072 -0.3207  0.3693
 4379TIP3    H134552   3.386   5.442  12.193  0.4066 -0.7216  0.3089
 4379TIP3    H234553   3.366   5.445  12.343 -0.1482 -1.1422  0.2518
 4380TIP3   OH234554   5.192   5.675   4.889  0.0101  0.1472  0.1381
 4380TIP3    H134555   5.243   5.751   4.862  0.3773 -0.0456  0.2865
 4380TIP3    H234556   5.252   5.623   4.941 -0.6482  0.4286  1.2006
 4381TIP3   OH234557   1.222   4.866  11.663  0.0688  0.9612  0.1198
 4381TIP3    H134558   1.136   4.865  11.621 -0.6885  0.4849  1.6387
 4381TIP3    H234559   1.210   4.920  11.741  0.6134 -0.7114  1.4056
 4382TIP3   OH234560   2.042   0.584   2.290  0.4327  0.4074  0.3631
 4382TIP3    H134561   2.007   0.520   2.352  0.6731 -0.5589 -0.4822
 4382TIP3    H234562   2.004   0.560   2.206  2.1379  0.0987 -0.3501
 4383TIP3   OH234563   6.413   2.232  14.662 -0.5726 -0.1086  0.1913
 4383TIP3    H134564   6.473   2.252  14.590 -1.6894  1.9389 -0.2344
 4383TIP3    H234565   6.385   2.317  14.695 -1.6482 -1.0088  1.7470
 4384TIP3   OH234566   4.233   3.779   2.969  0.3581  0.1177  0.1992
 4384TIP3    H134567   4.196   3.754   3.053  0.0592  1.1384  0.3849
 4384TIP3    H234568   4.309   3.833   2.992 -0.1578  1.0212 -0.1724
 4385TIP3   OH234569   3.957   5.456  13.205 -0.0062  0.3151  0.5213
 4385TIP3    H134570   3.945   5.397  13.279  0.1740 -0.3834  0.0009
 4385TIP3    H234571   3.872   5.459  13.162  0.1790 -0.1760  0.1080
 4386TIP3   OH234572   4.306   4.369   5.748 -0.9281 -0.3055  0.3929
 4386TIP3    H134573   4.222   4.345   5.708 -1.0937  0.1446  0.4721
 4386TIP3    H234574   4.372   4.344   5.682 -0.9413 -2.6322  1.1624
 4387TIP3   OH234575   6.559   5.294   0.164  0.1333 -0.5337 -0.1566
 4387TIP3    H134576   6.550   5.334   0.078  1.0391  2.4204  0.9967
 4387TIP3    H234577   6.653   5.278   0.174 -0.0668 -1.7539 -0.0423
 4388TIP3   OH234578   3.452   1.720   5.037 -0.1919 -0.5296  0.2859
 4388TIP3    H134579   3.546   1.701   5.032  0.7952  3.4258  0.2565
 4388TIP3    H234580   3.440   1.759   5.124 -1.9904 -1.5351  0.5365
 4389TIP3   OH234581   2.219   3.847   0.861  0.2013 -0.3613 -0.1896
 4389TIP3    H134582   2.254   3.803   0.784 -2.2279 -2.9321  0.0053
 4389TIP3    H234583   2.144   3.897   0.828 -0.1717 -0.5686  0.3316
 4390TIP3   OH234584   2.249   3.024  14.269  0.1517  0.2862  0.0722
 4390TIP3    H134585   2.292   3.052  14.188  0.3503 -0.9787 -0.2815
 4390TIP3    H234586   2.294   3.073  14.338  0.7896  0.4835 -0.4746
 4391TIP3   OH234587   3.072   3.956   0.246 -0.7006 -0.6396  0.1241
 4391TIP3    H134588   3.106   3.929   0.161 -0.1153  1.4319 -0.3429
 4391TIP3    H234589   2.979   3.973   0.231 -0.0251  2.8024 -1.0007
 4392TIP3   OH234590   3.618   2.237  16.341 -0.4128  0.2112 -0.3252
 4392TIP3    H134591   3.649   2.277  16.422  0.7816 -1.0866 -0.1008
 4392TIP3    H234592   3.661   2.287  16.271 -0.8100  0.8186 -0.1394
 4393TIP3   OH234593   5.458   5.186   1.430  0.3789  0.2520 -0.6365
 4393TIP3    H134594   5.487   5.095   1.442  0.7801  0.0809 -2.5612
 4393TIP3    H234595   5.540   5.235   1.421  0.1583  0.8176  0.2949
 4394TIP3   OH234596   1.792   1.017   5.775  0.3409 -0.1709  0.1329
 4394TIP3    H134597   1.864   0.954   5.766 -1.0255 -1.9710  0.9405
 4394TIP3    H234598   1.741   1.006   5.695  1.2307  1.5300 -0.7108
 4395TIP3   OH234599   0.791   6.251  17.252  0.2427 -0.0125 -0.0051
 4395TIP3    H134600   0.728   6.300  17.305 -1.7649 -1.5220 -0.8686
 4395TIP3    H234601   0.813   6.310  17.180  2.6019  1.8649  2.0751
 4396TIP3   OH234602   3.004   3.703  11.557 -0.0157  0.1278 -0.3358
 4396TIP3    H134603   3.081   3.760  11.549 -0.2353  0.7328  1.4537
 4396TIP3    H234604   2.929   3.763  11.557 -0.3397 -0.2679  0.0678
 4397TIP3   OH234605   3.831   5.877   3.494 -0.1431 -0.2509 -0.0234
 4397TIP3    H134606   3.772   5.851   3.565 -0.3039 -0.9116 -0.3871
 4397TIP3    H234607   3.784   5.854   3.414  1.3189 -2.5820 -0.3188
 4398TIP3   OH234608   0.915   3.831   0.100 -0.5308  0.6789  0.2330
 4398TIP3    H134609   0.828   3.853   0.065 -0.5318 -0.6519 -0.6956
 4398TIP3    H234610   0.975   3.852   0.028 -0.3384 -0.4321  0.0497
 4399TIP3   OH234611   4.675   5.446   5.982  0.1884  0.3128  0.1734
 4399TIP3    H134612   4.768   5.439   5.961  0.4964 -0.8195  1.6885
 4399TIP3    H234613   4.673   5.501   6.061 -0.6590  2.1629 -1.0601
 4400TIP3   OH234614   0.139   5.304   4.722 -0.0401 -0.1473  0.2115
 4400TIP3    H134615   0.073   5.295   4.653 -0.8497  0.6664  0.8596
 4400TIP3    H234616   0.214   5.346   4.679  0.6340 -2.2950 -0.8606
 4401TIP3   OH234617   0.135   5.839   0.143  0.0134 -0.5689 -0.0252
 4401TIP3    H134618   0.160   5.754   0.180 -0.4729 -1.0116 -0.6952
 4401TIP3    H234619   0.047   5.855   0.177  0.1409 -0.2838  0.1756
 4402TIP3   OH234620   0.481   5.649   0.946 -0.2450 -0.3491 -0.2282
 4402TIP3    H134621   0.424   5.607   1.011 -0.1133  0.1822  0.2442
 4402TIP3    H234622   0.479   5.591   0.871 -1.1379 -0.5144 -0.0900
 4403TIP3   OH234623   0.341   1.394  10.923  0.1421 -0.5936  0.0130
 4403TIP3    H134624   0.421   1.341  10.918  0.1589 -0.4657 -1.7189
 4403TIP3    H234625   0.344   1.448  10.844 -2.5337 -1.8375 -1.0305
 4404TIP3   OH234626   3.683   3.970  12.769  0.3867 -0.4000  0.3834
 4404TIP3    H134627   3.680   3.944  12.861 -1.4865 -0.5442  0.3161
 4404TIP3    H234628   3.704   3.890  12.722 -0.1884 -0.6769  0.5855
 4405TIP3   OH234629   1.189   3.251   3.456 -0.3677 -0.4243 -0.1743
 4405TIP3    H134630   1.219   3.337   3.486  1.5903 -0.8386 -0.8039
 4405TIP3    H234631   1.140   3.216   3.530  0.2007  0.5751  0.7066
 4406TIP3   OH234632   5.531   3.047   4.493 -0.0515  0.5113 -0.0987
 4406TIP3    H134633   5.539   2.977   4.428  0.1554  0.6558 -0.2337
 4406TIP3    H234634   5.591   3.115   4.461 -0.8000  1.0515 -0.3747
 4407TIP3   OH234635   3.419   4.081   4.980  0.0374  0.2189 -0.3623
 4407TIP3    H134636   3.408   4.140   5.056  1.4712  0.5796 -0.3975
 4407TIP3    H234637   3.380   4.129   4.907 -1.9530 -0.4088  0.2274
 4408TIP3   OH234638   3.535   4.934   1.579 -0.6638 -0.0402  0.1256
 4408TIP3    H134639   3.507   4.937   1.487  0.4703 -0.5729 -0.2569
 4408TIP3    H234640   3.526   4.842   1.603 -0.8588  0.0826  0.5259
 4409TIP3   OH234641   4.291   4.218   3.003  0.2972 -0.7012 -0.0233
 4409TIP3    H134642   4.226   4.191   3.068  0.6965 -0.3988  0.5096
 4409TIP3    H234643   4.323   4.136   2.965  0.0705 -0.8811  0.1689
 4410TIP3   OH234644   6.763   3.458  11.886  0.3315  0.3872  0.1681
 4410TIP3    H134645   6.719   3.539  11.914  0.2304  0.1333  0.7515
 4410TIP3    H234646   6.778   3.409  11.967 -0.1068 -0.4347 -0.2400
 4411TIP3   OH234647   6.044   3.176   5.593  0.1382  0.3794 -0.9963
 4411TIP3    H134648   6.048   3.089   5.633 -2.4248  0.3576 -0.5970
 4411TIP3    H234649   6.015   3.234   5.664 -2.9387  0.6223 -2.2749
 4412TIP3   OH234650   3.578   3.389   2.282  0.0795  0.3596  0.1232
 4412TIP3    H134651   3.505   3.355   2.334 -0.7452  0.9862 -0.5870
 4412TIP3    H234652   3.561   3.357   2.194  1.9476 -1.4590  0.3348
 4413TIP3   OH234653   1.554   1.695   5.345 -0.4265 -0.0862  0.3121
 4413TIP3    H134654   1.641   1.665   5.318 -1.0265 -1.9794  0.3422
 4413TIP3    H234655   1.522   1.627   5.403 -1.7412  0.8344  0.7153
 4414TIP3   OH234656   2.257   3.684  14.867 -0.2591  0.1967 -0.2054
 4414TIP3    H134657   2.176   3.642  14.837  0.0089 -0.3254 -0.2256
 4414TIP3    H234658   2.308   3.612  14.905 -0.7745  0.9251  1.9501
 4415TIP3   OH234659   3.799   0.402   1.225 -0.1690 -1.2856  0.2226
 4415TIP3    H134660   3.849   0.400   1.144 -3.1491  0.9491 -1.9364
 4415TIP3    H234661   3.863   0.421   1.294  2.1766 -0.7418 -1.9870
 4416TIP3   OH234662   5.581   1.056  11.434  0.2561  0.3239  0.2603
 4416TIP3    H134663   5.535   0.972  11.429 -0.5796  0.8618 -1.9361
 4416TIP3    H234664   5.612   1.072  11.345  0.4486  2.3270  0.6447
 4417TIP3   OH234665   5.369   2.079  16.840  0.4942  0.1291  0.2387
 4417TIP3    H134666   5.294   2.067  16.782  0.2513 -0.6246  0.6999
 4417TIP3    H234667   5.423   2.002  16.827  0.4204 -0.0676  1.0271
 4418TIP3   OH234668   2.843   3.619  12.397  0.0216 -0.1155 -0.4550
 4418TIP3    H134669   2.790   3.689  12.358  0.6829  0.0927 -0.9969
 4418TIP3    H234670   2.856   3.556  12.326 -0.1146 -0.5260 -0.1194
 4419TIP3   OH234671   2.173   6.369   2.150 -0.5091 -0.5131 -0.1377
 4419TIP3    H134672   2.165   6.435   2.081 -2.4925 -0.6805 -0.1286
 4419TIP3    H234673   2.236   6.305   2.116 -0.5494  0.0292 -1.2694
 4420TIP3   OH234674   6.401   1.833   2.237  0.0046  0.5222  0.0045
 4420TIP3    H134675   6.485   1.825   2.282 -0.2588  0.7984  0.5637
 4420TIP3    H234676   6.409   1.912   2.185 -0.3257  1.2403  1.0105
 4421TIP3   OH234677   5.149   1.913  17.076 -0.2895  0.5501  0.9912
 4421TIP3    H134678   5.200   1.994  17.068  0.1773  0.3218  1.5699
 4421TIP3    H234679   5.213   1.847  17.102 -0.9950  0.3957  2.4231
 4422TIP3   OH234680   2.101   4.360  14.042  0.0557  0.0552  0.0399
 4422TIP3    H134681   2.189   4.331  14.020  0.0572 -0.7352  1.0116
 4422TIP3    H234682   2.046   4.284  14.026  0.0225 -0.5023  2.4227
 4423TIP3   OH234683   0.009   1.478   2.715 -0.1014  0.0941 -0.6127
 4423TIP3    H134684   0.075   1.533   2.757  0.2228  0.5273 -1.6523
 4423TIP3    H234685   0.041   1.389   2.724  0.0847  0.2061 -0.1668
 4424TIP3   OH234686   5.860   5.423  13.857  0.0247  0.2986 -0.5797
 4424TIP3    H134687   5.828   5.455  13.772 -3.0213  1.1892  0.7893
 4424TIP3    H234688   5.859   5.501  13.913 -0.7883 -0.8144  1.0024
 4425TIP3   OH234689   0.532   6.032  11.579  0.5263  0.4923 -0.3679
 4425TIP3    H134690   0.546   6.121  11.549 -1.3075  1.1966  0.6939
 4425TIP3    H234691   0.613   6.007  11.622  0.2275  2.6337  1.5791
 4426TIP3   OH234692   0.347   6.622   5.775  0.1258  0.1854  0.2894
 4426TIP3    H134693   0.295   6.633   5.855 -0.3625  0.1479 -0.0213
 4426TIP3    H234694   0.401   6.700   5.771 -2.3068  1.9116 -1.1574
 4427TIP3   OH234695   6.071   4.017   6.232  0.0632 -0.2707  0.0333
 4427TIP3    H134696   5.995   4.043   6.179  0.4569  0.4453 -0.1873
 4427TIP3    H234697   6.033   3.988   6.315 -0.6207 -2.0995 -0.8635
 4428TIP3   OH234698   0.022   1.650  12.432  0.1560  0.1575 -0.0993
 4428TIP3    H134699  -0.065   1.658  12.393 -0.2086 -4.1315 -0.5688
 4428TIP3    H234700   0.082   1.658  12.358 -0.0589 -0.2821 -0.3224
 4429TIP3   OH234701   0.143   1.203   1.058  0.1810 -0.4705 -0.5006
 4429TIP3    H134702   0.190   1.279   1.025 -0.5136  0.0002 -0.4357
 4429TIP3    H234703   0.138   1.143   0.984  0.8377 -0.5003 -0.5193
 4430TIP3   OH234704   4.750   1.749  10.562  0.0470  0.5519 -0.3199
 4430TIP3    H134705   4.655   1.763  10.558  0.0393  0.4245 -0.6039
 4430TIP3    H234706   4.787   1.815  10.503  0.1558  0.7980  0.0214
 4431TIP3   OH234707   2.089   6.415  14.575 -0.0353 -0.4149  0.3116
 4431TIP3    H134708   2.137   6.436  14.494 -0.8341  0.3184  0.0085
 4431TIP3    H234709   2.157   6.408  14.642  0.5493  0.0876 -0.2118
 4432TIP3   OH234710   2.280   1.383   6.056  0.3926  0.5079  0.6598
 4432TIP3    H134711   2.275   1.392   5.961  2.4670 -0.3538  0.4279
 4432TIP3    H234712   2.272   1.472   6.090 -0.1379  0.8401 -0.3198
 4433TIP3   OH234713   2.783   1.569   4.233  0.0072  0.0157 -0.0261
 4433TIP3    H134714   2.785   1.655   4.276 -2.0122  0.5814 -0.9424
 4433TIP3    H234715   2.693   1.539   4.245 -0.1618 -0.5832 -2.3213
 4434TIP3   OH234716   1.492   3.790  14.670  0.3599  0.3013 -0.3009
 4434TIP3    H134717   1.581   3.785  14.703  0.5733  0.9510 -0.7404
 4434TIP3    H234718   1.445   3.842  14.735  0.8696  1.8994 -1.1444
 4435TIP3   OH234719   4.330   2.719   3.561 -0.1897  0.1048 -0.7389
 4435TIP3    H134720   4.277   2.677   3.628 -0.0963  0.2235 -0.5902
 4435TIP3    H234721   4.310   2.672   3.480  0.0697 -0.3545 -0.5362
 4436TIP3   OH234722   6.085   5.199   5.144  0.0752  0.1295  0.4950
 4436TIP3    H134723   5.990   5.211   5.144  0.0342 -0.1926  1.1142
 4436TIP3    H234724   6.098   5.111   5.109  0.0246 -0.6703  2.3798
 4437TIP3   OH234725   2.145   1.819  11.988 -0.1856  0.2015  0.4941
 4437TIP3    H134726   2.175   1.806  12.078 -0.1123 -0.2905  0.4010
 4437TIP3    H234727   2.224   1.840  11.938 -0.2777  0.8311  0.6098
 4438TIP3   OH234728   6.409   1.742  11.197 -0.4671  0.3428 -0.0235
 4438TIP3    H134729   6.326   1.701  11.221 -0.7445 -0.5451 -2.3235
 4438TIP3    H234730   6.402   1.832  11.231 -0.9490 -0.6425  2.7289
 4439TIP3   OH234731   2.475   4.904  13.107  0.0229 -0.4708 -0.0333
 4439TIP3    H134732   2.391   4.889  13.063  0.5273 -0.8485 -0.8905
 4439TIP3    H234733   2.497   4.819  13.146  0.1069 -0.4230  0.0238
 4440TIP3   OH234734   4.497   6.344  11.137  0.4676 -0.1950  0.6446
 4440TIP3    H134735   4.468   6.273  11.080 -1.7177  0.4787  0.8480
 4440TIP3    H234736   4.538   6.299  11.212 -1.0383 -1.2700  0.8608
 4441TIP3   OH234737   5.836   6.360   4.186 -0.6828 -0.7864  0.1630
 4441TIP3    H134738   5.853   6.407   4.268 -2.1776  0.0972  0.0058
 4441TIP3    H234739   5.786   6.422   4.133  0.6253 -1.1797 -1.6210
 4442TIP3   OH234740   2.573   3.971   3.668  0.1939 -0.7834 -0.1761
 4442TIP3    H134741   2.487   4.007   3.691 -0.3025 -1.2191 -1.3162
 4442TIP3    H234742   2.623   4.047   3.639  0.4197 -0.4243  1.0911
 4443TIP3   OH234743   2.198   5.380  13.039  0.2653 -0.2412 -0.7642
 4443TIP3    H134744   2.114   5.335  13.047 -1.1980  2.1489 -1.5340
 4443TIP3    H234745   2.232   5.385  13.128 -1.1547  0.0386 -0.2084
 4444TIP3   OH234746   5.232   2.072  15.665  0.4667  0.5694  1.0173
 4444TIP3    H134747   5.161   2.049  15.725 -0.7479  0.6219 -0.3430
 4444TIP3    H234748   5.227   2.006  15.596 -1.0068  2.8820 -1.2629
 4445TIP3   OH234749   3.541   3.782  11.986  0.4449  0.0205  0.2468
 4445TIP3    H134750   3.575   3.708  12.035 -0.5169 -0.4374  0.2408
 4445TIP3    H234751   3.614   3.844  11.982  0.6865 -0.1178  1.8565
 4446TIP3   OH234752   4.408   0.251  12.822  0.2052  0.3593  0.1765
 4446TIP3    H134753   4.434   0.342  12.812  0.3419  0.3022  0.0187
 4446TIP3    H234754   4.427   0.231  12.914 -1.2618  0.9413  0.6202
 4447TIP3   OH234755   6.361   1.396  17.003  0.2373  0.3764 -0.1764
 4447TIP3    H134756   6.317   1.360  17.079  1.0424  0.3002  0.2664
 4447TIP3    H234757   6.324   1.349  16.928  0.0694 -0.1693  0.2454
 4448TIP3   OH234758   4.556   6.143  16.583  0.0904  0.0757  0.2986
 4448TIP3    H134759   4.555   6.105  16.671 -1.2646  0.3401  0.4173
 4448TIP3    H234760   4.635   6.107  16.542 -0.1072 -1.2915  1.0738
 4449TIP3   OH234761   5.712   6.552   4.018  0.4596  1.1899  0.1678
 4449TIP3    H134762   5.648   6.613   4.054  1.0050  1.4348  0.7416
 4449TIP3    H234763   5.672   6.519   3.937 -1.9992 -1.4231  2.2455
 4450TIP3   OH234764   3.102   5.706  16.589  0.2236 -0.6744 -0.1690
 4450TIP3    H134765   3.114   5.741  16.677  0.2451 -1.0106 -0.0378
 4450TIP3    H234766   3.159   5.628  16.586  1.1112 -0.0234 -0.8551
 4451TIP3   OH234767   0.502   6.521  17.234  0.1316  0.5202  0.2527
 4451TIP3    H134768   0.485   6.595  17.293  2.2453 -1.2183  3.3551
 4451TIP3    H234769   0.589   6.539  17.197 -0.6706  1.0018 -1.5113
 4452TIP3   OH234770   0.665   4.712  13.268 -0.1208 -0.0271  0.2367
 4452TIP3    H134771   0.652   4.617  13.262  0.1100  0.0034 -0.8546
 4452TIP3    H234772   0.656   4.744  13.179  0.5102  0.8965  0.4847
 4453TIP3   OH234773   0.490   1.142   1.198  0.6802  0.1377 -0.1253
 4453TIP3    H134774   0.470   1.147   1.104 -0.0494  0.1543  0.0278
 4453TIP3    H234775   0.545   1.064   1.207 -2.0977 -1.9306 -0.0933
 4454TIP3   OH234776   1.050   3.487   1.009 -0.1093 -0.1842 -0.7470
 4454TIP3    H134777   1.143   3.505   0.996 -0.2859  2.2938  0.6429
 4454TIP3    H234778   1.047   3.399   1.047  1.6101 -0.5179 -1.3185
 4455TIP3   OH234779   2.797   2.303  14.504  0.7989  0.0758  0.1774
 4455TIP3    H134780   2.831   2.366  14.440 -0.7098 -0.7724 -1.5608
 4455TIP3    H234781   2.813   2.218  14.463 -0.9945 -0.4544  0.4927
 4456TIP3   OH234782   3.412   4.366   5.825 -0.4421  0.0783  0.1161
 4456TIP3    H134783   3.338   4.321   5.784  1.0528  0.2748 -3.0645
 4456TIP3    H234784   3.390   4.459   5.821 -0.6220  0.0508  0.4610
 4457TIP3   OH234785   2.316   4.443  16.687 -0.4874  0.5195  0.7695
 4457TIP3    H134786   2.286   4.530  16.659 -0.5162  0.3349  0.2065
 4457TIP3    H234787   2.255   4.418  16.756 -1.9508 -0.0314 -0.6496
 4458TIP3   OH234788   4.819   3.316   5.304  0.3294 -0.3444 -0.1116
 4458TIP3    H134789   4.862   3.373   5.368  2.5339  1.1022 -2.6558
 4458TIP3    H234790   4.861   3.337   5.221 -1.9931 -2.4848 -2.0111
 4459TIP3   OH234791   0.990   6.189  16.370  0.1371  0.5445  0.2124
 4459TIP3    H134792   1.058   6.242  16.329  1.2118 -0.8393  0.1336
 4459TIP3    H234793   0.950   6.140  16.297 -0.5624  0.9237  0.3318
 4460TIP3   OH234794   5.569   6.370  15.420  0.2154 -0.2420 -0.0609
 4460TIP3    H134795   5.492   6.426  15.406 -0.4187 -1.3175 -1.1738
 4460TIP3    H234796   5.573   6.315  15.341 -0.2884 -3.0069  1.6733
 4461TIP3   OH234797   4.875   5.357   3.454 -0.2283 -0.1301  0.0438
 4461TIP3    H134798   4.832   5.365   3.539 -0.3808  0.9993 -0.1229
 4461TIP3    H234799   4.803   5.339   3.393 -0.3130  0.5490 -0.0593
 4462TIP3   OH234800   6.269   0.117   1.769 -0.1100 -0.4064 -0.2729
 4462TIP3    H134801   6.233   0.031   1.751  0.3856 -0.6877  0.0506
 4462TIP3    H234802   6.197   0.166   1.810 -0.2069 -0.8668  0.1117
 4463TIP3   OH234803   6.286   0.437  14.953  0.3118  0.6001 -0.9467
 4463TIP3    H134804   6.366   0.450  15.005  0.0641 -0.0929 -0.3692
 4463TIP3    H234805   6.220   0.490  14.998 -0.6187 -2.1790  1.2178
 4464TIP3   OH234806   6.156   3.587   1.884  0.0716 -0.2960 -0.4142
 4464TIP3    H134807   6.108   3.666   1.908  1.9434  0.0661  2.8047
 4464TIP3    H234808   6.111   3.554   1.806 -2.5477  2.3405 -0.2074
 4465TIP3   OH234809   3.752   2.736  13.127  0.2160 -0.1040 -0.0473
 4465TIP3    H134810   3.681   2.789  13.163 -0.8392 -0.6604 -1.2411
 4465TIP3    H234811   3.714   2.649  13.116  1.8812 -1.1403  1.7486
 4466TIP3   OH234812   5.307   5.887  15.164  0.0737 -0.0268  0.2411
 4466TIP3    H134813   5.231   5.942  15.143  0.0252  1.6040  3.9097
 4466TIP3    H234814   5.280   5.839  15.242  2.2967 -0.5809  0.7302
 4467TIP3   OH234815   2.736   3.522   0.518  0.2400  0.2087  0.1119
 4467TIP3    H134816   2.735   3.532   0.423  2.6327  0.4817  0.0653
 4467TIP3    H234817   2.645   3.500   0.540 -0.4038  0.2455 -2.1979
 4468TIP3   OH234818   2.897   2.290   0.386  0.6489  0.0879 -0.5143
 4468TIP3    H134819   2.939   2.205   0.394 -0.6008 -0.4846  0.2700
 4468TIP3    H234820   2.850   2.302   0.469 -0.5774  0.7575 -1.2613
 4469TIP3   OH234821   5.345   0.708   1.112  0.5358 -0.6759 -0.4381
 4469TIP3    H134822   5.291   0.642   1.068  0.0870  0.0345 -0.9794
 4469TIP3    H234823   5.385   0.661   1.186 -1.9116 -0.9281  0.8491
 4470TIP3   OH234824   4.279   2.678   5.669 -0.1066 -0.0007 -0.1031
 4470TIP3    H134825   4.198   2.680   5.721 -0.1999 -0.1087 -0.2455
 4470TIP3    H234826   4.285   2.767   5.633 -0.9621 -0.4107 -1.3231
 4471TIP3   OH234827   2.867   1.852  11.749 -0.0541  0.2814 -0.4586
 4471TIP3    H134828   2.831   1.919  11.691 -0.8321 -0.1715 -0.5173
 4471TIP3    H234829   2.822   1.771  11.723  0.5208 -0.1699 -0.0709
 4472TIP3   OH234830   4.478   3.048  15.033 -0.5089 -0.0973  0.6506
 4472TIP3    H134831   4.500   2.988  14.962  3.1515  1.2705  0.4034
 4472TIP3    H234832   4.408   3.102  14.997  0.7875  0.1452 -1.7536
 4473TIP3   OH234833   4.579   0.685  11.497  0.3860 -0.3268 -0.1598
 4473TIP3    H134834   4.562   0.596  11.468  1.7785 -0.5655 -0.3085
 4473TIP3    H234835   4.671   0.684  11.526  0.4184  1.0404 -0.1488
 4474TIP3   OH234836   4.817   5.390   0.077 -0.0752 -0.1186  0.0593
 4474TIP3    H134837   4.747   5.342   0.122  0.7245 -1.0633  0.3315
 4474TIP3    H234838   4.891   5.387   0.138  0.3416  0.5126 -0.3964
 4475TIP3   OH234839   6.442   3.004  15.062  0.1195 -0.5946 -0.0941
 4475TIP3    H134840   6.511   2.968  15.119 -1.3604 -0.9641  1.5401
 4475TIP3    H234841   6.397   3.069  15.116 -0.7300 -0.2542 -1.1809
 4476TIP3   OH234842   5.772   6.349  12.485  0.2591  0.0061  0.2236
 4476TIP3    H134843   5.737   6.278  12.540 -0.8460  0.8784  0.6670
 4476TIP3    H234844   5.864   6.356  12.512  0.4031 -1.2888  0.1334
 4477TIP3   OH234845   4.139   0.646  15.312  0.1822 -0.1118 -0.5089
 4477TIP3    H134846   4.221   0.687  15.286 -0.3821  0.5931 -1.2239
 4477TIP3    H234847   4.071   0.707  15.284 -0.5364  0.1914  1.6931
 4478TIP3   OH234848   4.399   2.684  15.927 -0.6258 -0.4031 -0.0616
 4478TIP3    H134849   4.363   2.597  15.947 -0.7793 -0.6095 -1.1708
 4478TIP3    H234850   4.488   2.681  15.962 -0.7793 -0.8466  0.3073
 4479TIP3   OH234851   4.572   4.953   0.702  0.3603 -0.1485 -0.5268
 4479TIP3    H134852   4.637   4.966   0.772 -0.0991 -0.5668 -0.0129
 4479TIP3    H234853   4.595   5.018   0.636  1.9109 -0.9135 -0.7881
 4480TIP3   OH234854   0.421   6.157   2.535 -0.3455 -0.0914  0.3524
 4480TIP3    H134855   0.342   6.103   2.540 -0.0247 -0.5293  0.8266
 4480TIP3    H234856   0.406   6.227   2.598 -0.8394  0.4863 -0.3937
 4481TIP3   OH234857   1.856   1.804   0.547 -0.0316 -0.0736 -0.7669
 4481TIP3    H134858   1.857   1.898   0.562  0.1836 -0.3691  1.2526
 4481TIP3    H234859   1.922   1.769   0.606  0.2430 -1.4675 -1.8528
 4482TIP3   OH234860   5.727   2.505   4.797 -0.3117  0.8574 -0.1667
 4482TIP3    H134861   5.729   2.433   4.735  0.0486  2.5852 -2.2689
 4482TIP3    H234862   5.637   2.507   4.830 -2.0030  2.6875 -4.2272
 4483TIP3   OH234863   4.525   4.581   0.876  0.1371  0.5860 -0.1731
 4483TIP3    H134864   4.542   4.487   0.870  0.0084  0.5645 -0.1985
 4483TIP3    H234865   4.596   4.621   0.826  0.0386  0.4895 -0.3920
 4484TIP3   OH234866   0.353   6.124  14.968  1.1941  0.9248 -0.3777
 4484TIP3    H134867   0.269   6.109  15.011  1.3737 -0.0104 -0.3231
 4484TIP3    H234868   0.353   6.217  14.946 -0.6457  0.5963 -2.0119
 4485TIP3   OH234869   0.084   4.776   5.854 -0.7961  0.5266 -0.3083
 4485TIP3    H134870   0.004   4.807   5.898 -0.5796  1.7440 -0.7251
 4485TIP3    H234871   0.155   4.824   5.897 -0.4072  0.3225 -0.7192
 4486TIP3   OH234872   2.368   4.735   5.528 -0.5534  0.2087 -0.1082
 4486TIP3    H134873   2.362   4.797   5.455 -0.6090 -1.3828 -1.5299
 4486TIP3    H234874   2.459   4.705   5.526 -0.5071  0.2820  0.6218
 4487TIP3   OH234875   1.758   3.905   1.323  0.6570 -0.5614  0.0440
 4487TIP3    H134876   1.681   3.911   1.267  0.0742 -1.3330  0.7471
 4487TIP3    H234877   1.778   3.812   1.328 -0.8133 -0.8584  3.0666
 4488TIP3   OH234878   5.224   4.300   0.175 -0.3206 -0.4753 -0.1953
 4488TIP3    H134879   5.152   4.328   0.230 -1.3627 -3.0162 -0.1316
 4488TIP3    H234880   5.291   4.269   0.236 -1.3571 -3.0108 -0.2122
 4489TIP3   OH234881   6.188   5.390   6.013 -0.0886  0.3457 -0.1433
 4489TIP3    H134882   6.116   5.345   5.968  0.7382  1.5762 -2.9432
 4489TIP3    H234883   6.145   5.454   6.069 -1.1828 -0.8810  0.4661
 4490TIP3   OH234884   3.750   0.089  15.731 -0.2895  0.2454 -0.2102
 4490TIP3    H134885   3.785   0.001  15.747 -0.9224 -0.1313 -0.8389
 4490TIP3    H234886   3.735   0.092  15.637 -1.0127  0.7465 -0.0849
 4491TIP3   OH234887   3.011   1.870  12.749  0.5477 -0.6630  0.4119
 4491TIP3    H134888   3.078   1.902  12.688  0.3611  1.0012  1.0248
 4491TIP3    H234889   3.048   1.888  12.836 -0.9577  1.0030  0.7660
 4492TIP3   OH234890   5.796   3.363   2.639  0.3530  0.2116  0.0828
 4492TIP3    H134891   5.717   3.310   2.629 -0.3600  1.4180 -0.8481
 4492TIP3    H234892   5.808   3.370   2.734  0.2071 -1.1983  0.2363
 4493TIP3   OH234893   2.493   0.670   1.172  0.3955 -0.1140 -0.3936
 4493TIP3    H134894   2.417   0.623   1.138 -0.1179  1.0012 -0.8274
 4493TIP3    H234895   2.564   0.606   1.169 -0.5838 -1.2855  0.3480
 4494TIP3   OH234896   1.484   2.086  13.419 -0.2944 -0.0509  0.0900
 4494TIP3    H134897   1.469   1.999  13.382 -0.2394  0.1333 -0.3741
 4494TIP3    H234898   1.510   2.070  13.510  0.0179 -0.5354 -0.0815
 4495TIP3   OH234899   2.451   4.066   1.744  0.3164  0.3254  0.5806
 4495TIP3    H134900   2.430   4.082   1.836  3.6095  2.1775  1.1767
 4495TIP3    H234901   2.431   4.149   1.700 -1.9996 -0.7932 -0.6373
 4496TIP3   OH234902   6.740   5.290   3.323 -0.1647  0.0100  0.0225
 4496TIP3    H134903   6.696   5.340   3.255  1.9625 -1.1739 -2.3830
 4496TIP3    H234904   6.687   5.211   3.334  0.8003 -1.0407 -2.2800
 4497TIP3   OH234905   1.315   6.303   2.229  0.2501 -0.3822 -0.2037
 4497TIP3    H134906   1.283   6.343   2.148  1.2984 -0.5094 -0.6999
 4497TIP3    H234907   1.410   6.318   2.227  0.2054  0.3177  1.4006
 4498TIP3   OH234908   0.204   0.590  16.420  0.1326 -0.2504 -0.3716
 4498TIP3    H134909   0.223   0.653  16.489 -2.2351 -0.9445  1.0504
 4498TIP3    H234910   0.247   0.509  16.448  1.3317  0.1359 -1.0657
 4499TIP3   OH234911   6.507   0.274   4.387 -0.5824  0.1992 -0.2294
 4499TIP3    H134912   6.414   0.290   4.374 -0.2114  1.2408 -1.9398
 4499TIP3    H234913   6.544   0.361   4.401  0.2351 -0.1376 -0.2645
 4500TIP3   OH234914   6.466   2.445   3.724 -0.5197 -0.6366  0.2273
 4500TIP3    H134915   6.525   2.466   3.651  0.6934  2.1395  1.8598
 4500TIP3    H234916   6.392   2.400   3.683  1.0555 -1.0650 -2.3837
 4501TIP3   OH234917   4.781   4.444  14.838 -0.7533 -0.6541 -0.9130
 4501TIP3    H134918   4.852   4.416  14.781  0.6733 -1.2380  1.0389
 4501TIP3    H234919   4.810   4.529  14.873 -1.2353 -0.6654 -0.4725
 4502TIP3   OH234920   2.068   1.973  15.556  0.1465  0.0569 -0.0932
 4502TIP3    H134921   2.001   2.033  15.524  0.9272  2.1027  1.8592
 4502TIP3    H234922   2.150   2.007  15.519  0.6445  0.4945  1.3466
 4503TIP3   OH234923   3.240   2.242   1.275  0.1204 -0.3913 -0.6209
 4503TIP3    H134924   3.314   2.186   1.253  0.2390 -0.0357 -1.1342
 4503TIP3    H234925   3.192   2.253   1.193 -1.6645 -2.2508  0.0788
 4504TIP3   OH234926   1.370   5.428  12.834 -0.3575 -0.3374 -0.3153
 4504TIP3    H134927   1.412   5.502  12.879 -1.6790 -1.0144  2.1893
 4504TIP3    H234928   1.441   5.385  12.787  1.1745  0.2933  1.3354
 4505TIP3   OH234929   0.401   2.188  14.325  0.1373 -0.6781 -0.2005
 4505TIP3    H134930   0.492   2.216  14.313 -0.0010  0.1685  0.5934
 4505TIP3    H234931   0.355   2.225  14.250  0.2741 -0.2323 -0.0712
 4506TIP3   OH234932   3.082   0.157   1.982 -0.0095 -0.3697  0.0210
 4506TIP3    H134933   3.092   0.140   2.076 -1.6954 -0.9758  0.1213
 4506TIP3    H234934   3.163   0.203   1.958 -0.5836  2.1235  2.3083
 4507TIP3   OH234935   1.777   0.538  13.215  0.3630 -0.6645 -0.2656
 4507TIP3    H134936   1.760   0.477  13.143 -1.4311 -0.6887  0.1326
 4507TIP3    H234937   1.698   0.535  13.268  0.6860  1.1794  0.3904
 4508TIP3   OH234938   5.600   3.009  15.042  0.3409  0.8234 -0.1410
 4508TIP3    H134939   5.556   2.928  15.067  0.7857  0.3984 -0.7055
 4508TIP3    H234940   5.669   3.020  15.107  1.0559  0.0904 -0.7655
 4509TIP3   OH234941   2.247   0.194  16.646 -0.2090  0.0700 -0.5407
 4509TIP3    H134942   2.323   0.218  16.593 -1.3058  1.4760 -1.5420
 4509TIP3    H234943   2.214   0.114  16.607 -0.2049  0.3606 -1.1564
 4510TIP3   OH234944   0.615   0.995  15.907  0.4055  0.2772 -1.4330
 4510TIP3    H134945   0.680   0.960  15.968 -0.8935  2.8718  1.7503
 4510TIP3    H234946   0.632   1.090  15.906 -2.1762  0.8141 -1.8620
 4511TIP3   OH234947   6.302   0.477   0.513  0.1047  0.0207  0.5165
 4511TIP3    H134948   6.355   0.555   0.535 -2.8762  1.9315  1.5041
 4511TIP3    H234949   6.286   0.486   0.419  0.4853  0.1257  0.4582
 4512TIP3   OH234950   5.299   2.579  16.831 -0.4005  0.1236 -0.1476
 4512TIP3    H134951   5.366   2.528  16.876 -0.9166 -2.0214 -1.6860
 4512TIP3    H234952   5.260   2.633  16.899  1.0245 -0.6127  1.3057
 4513TIP3   OH234953   1.579   1.783   5.681 -0.1941 -0.1067  0.3132
 4513TIP3    H134954   1.638   1.719   5.722  0.5675 -0.0907 -0.7198
 4513TIP3    H234955   1.528   1.731   5.618 -1.5366 -0.1796  1.4190
 4514TIP3   OH234956   4.127   1.168   0.013  0.3173 -0.0909  0.4269
 4514TIP3    H134957   4.217   1.152   0.040  0.6681  1.4394  0.2683
 4514TIP3    H234958   4.135   1.200  -0.077 -0.3074  0.7690  0.6661
 4515TIP3   OH234959   0.873   3.355  15.811 -0.4309 -0.7205 -0.1210
 4515TIP3    H134960   0.858   3.271  15.856  1.5039 -1.2121 -0.3245
 4515TIP3    H234961   0.830   3.344  15.726 -2.1391 -0.6288  0.6823
 4516TIP3   OH234962   2.151   4.736  17.169  0.0563  0.1855 -0.0842
 4516TIP3    H134963   2.165   4.722  17.263  0.6496  1.7078  0.0788
 4516TIP3    H234964   2.226   4.787  17.141 -0.9124  1.1390 -1.0452
 4517TIP3   OH234965   6.614   4.211   3.622  0.1753 -0.5341 -0.3540
 4517TIP3    H134966   6.677   4.276   3.653 -0.0245  0.4186 -1.8398
 4517TIP3    H234967   6.529   4.248   3.646  0.1121 -1.3506  0.7752
 4518TIP3   OH234968   6.085   4.947   5.062  0.6178  0.0885  0.1559
 4518TIP3    H134969   6.032   4.892   5.005  1.1653  1.1856 -1.4636
 4518TIP3    H234970   6.168   4.957   5.016  1.9258 -0.7785  2.1777
 4519TIP3   OH234971   0.924   0.768  17.063  0.4106 -0.3473  0.3397
 4519TIP3    H134972   0.937   0.803  16.975 -1.5438 -0.3913 -0.0146
 4519TIP3    H234973   0.970   0.684  17.063  0.8076 -0.1398 -0.4937
 4520TIP3   OH234974   5.888   5.585   5.809  0.2468 -0.0519 -0.0785
 4520TIP3    H134975   5.953   5.631   5.862 -1.2520  0.8660  1.0562
 4520TIP3    H234976   5.815   5.647   5.801 -1.0337 -1.4979 -0.1828
 4521TIP3   OH234977   2.212   6.171  16.105 -0.7119 -0.5373  0.1878
 4521TIP3    H134978   2.299   6.131  16.100  0.5070  1.9547 -0.6345
 4521TIP3    H234979   2.201   6.193  16.198 -1.3090 -2.4617  0.6066
 4522TIP3   OH234980   3.678   2.788   0.490  0.5650  0.6681  0.2593
 4522TIP3    H134981   3.668   2.695   0.471  0.9828  0.4258  1.1923
 4522TIP3    H234982   3.773   2.803   0.492  0.5139  1.4734 -1.5199
 4523TIP3   OH234983   2.149   6.740  12.995  0.1736  0.2093  0.4389
 4523TIP3    H134984   2.135   6.677  12.925 -0.6429 -0.3572  1.0822
 4523TIP3    H234985   2.091   6.813  12.975  0.6077  0.4487  0.0549
 4524TIP3   OH234986   5.068   3.506  13.616 -0.3491  0.0278 -0.4855
 4524TIP3    H134987   5.140   3.470  13.563  0.0107 -0.2304  0.1710
 4524TIP3    H234988   5.022   3.565  13.556  0.5957  0.4376 -0.8225
 4525TIP3   OH234989   4.138   1.453  13.784  0.1392 -0.0203  0.0837
 4525TIP3    H134990   4.201   1.396  13.739  0.7923  0.1774  0.7396
 4525TIP3    H234991   4.191   1.518  13.829 -0.6059  1.6046 -1.2616
 4526TIP3   OH234992   6.155   4.445   5.892 -0.1276  0.5616 -0.9979
 4526TIP3    H134993   6.174   4.498   5.814 -1.1554  0.9806 -0.9866
 4526TIP3    H234994   6.241   4.419   5.925  0.3173 -0.3080 -2.7278
 4527TIP3   OH234995   1.724   0.024  12.429 -0.1222 -0.0258 -0.5149
 4527TIP3    H134996   1.690   0.059  12.347  0.3612 -0.1868 -0.7875
 4527TIP3    H234997   1.817   0.010  12.412 -0.3086 -1.4949 -0.4490
 4528TIP3   OH234998   0.825   2.136  11.154  0.3965  0.6747 -0.0253
 4528TIP3    H134999   0.735   2.113  11.132 -0.0798  1.5383  0.9401
 4528TIP3    H235000   0.864   2.053  11.181  0.4175 -0.0318 -2.0447
 4529TIP3   OH235001   4.704   2.082  15.843 -0.8710  0.3122  0.5874
 4529TIP3    H135002   4.721   2.167  15.886  0.5912  1.8263 -2.6371
 4529TIP3    H235003   4.610   2.071  15.850 -1.1978  2.5267  0.5999
 4530TIP3   OH235004   4.150   6.455   0.057  0.0684  0.5037 -0.2830
 4530TIP3    H135005   4.196   6.493   0.133 -0.2430  1.1023 -0.3816
 4530TIP3    H235006   4.062   6.493   0.062  0.0330  0.5087 -0.9189
 4531TIP3   OH235007   2.966   5.324   2.527 -0.5906  0.2693 -1.1385
 4531TIP3    H135008   2.955   5.328   2.622  1.6119  0.5993 -0.8268
 4531TIP3    H235009   2.878   5.310   2.492 -1.6416  1.4568  0.8732
 4532TIP3   OH235010   1.999   3.738   2.684  0.9276 -0.1682 -0.6401
 4532TIP3    H135011   1.956   3.773   2.763 -0.1315  0.1035 -1.3213
 4532TIP3    H235012   2.000   3.643   2.698 -0.5582 -0.2494 -0.9089
 4533TIP3   OH235013   2.912   2.328  16.512  0.8416  0.6237 -0.6618
 4533TIP3    H135014   2.965   2.256  16.477 -0.8389 -0.1537 -1.7490
 4533TIP3    H235015   2.885   2.378  16.435 -1.6348 -0.2007 -0.4270
 4534TIP3   OH235016   2.211   1.044  13.630  0.4264 -0.2545 -0.6889
 4534TIP3    H135017   2.269   1.118  13.650  1.1300 -0.9967  0.0963
 4534TIP3    H235018   2.201   1.047  13.535  1.1498  0.3375 -0.7572
 4535TIP3   OH235019   4.932   3.733  15.052  0.0122 -0.0111 -0.3495
 4535TIP3    H135020   5.009   3.724  14.995  1.0792 -0.8551  1.1329
 4535TIP3    H235021   4.921   3.827  15.063  2.3904  0.1769  1.3015
 4536TIP3   OH235022   1.177   2.452   1.961  0.2760  0.1312 -0.1184
 4536TIP3    H135023   1.149   2.512   1.892  0.9263  0.9671  0.3312
 4536TIP3    H235024   1.227   2.507   2.022 -0.6342 -0.4905  1.2415
 4537TIP3   OH235025   2.785   5.301   1.363  0.5624 -0.3463  0.4029
 4537TIP3    H135026   2.785   5.377   1.422 -0.4497  0.9005 -1.1364
 4537TIP3    H235027   2.744   5.231   1.415  0.7629  0.3745  1.5724
 4538TIP3   OH235028   2.064   5.644  16.102  0.5102  0.1677 -0.7350
 4538TIP3    H135029   1.999   5.659  16.171  1.0739  0.7268 -0.3099
 4538TIP3    H235030   2.025   5.577  16.046 -0.6965  0.9315 -0.8455
 4539TIP3   OH235031   4.811   6.008  12.880  0.6024  0.9497 -0.0455
 4539TIP3    H135032   4.903   5.985  12.894  1.4429  3.2062 -1.3083
 4539TIP3    H235033   4.797   6.085  12.935 -0.8106  0.1302  0.7832
 4540TIP3   OH235034   5.293   5.410  12.292  0.4518 -0.1035 -0.3429
 4540TIP3    H135035   5.358   5.383  12.356  0.4071  0.9034  0.1463
 4540TIP3    H235036   5.321   5.498  12.266 -2.2891  1.6768  2.1112
 4541TIP3   OH235037   3.995   1.589  12.722  0.4868 -0.0658 -0.5219
 4541TIP3    H135038   4.047   1.670  12.725  1.4392 -0.6651 -0.2577
 4541TIP3    H235039   4.024   1.546  12.641 -0.0667 -0.1143 -0.6968
 4542TIP3   OH235040   3.971   5.261  15.547 -0.7948 -0.6551 -0.8142
 4542TIP3    H135041   4.014   5.186  15.587 -0.1221 -0.2184 -0.6907
 4542TIP3    H235042   3.909   5.223  15.484 -2.7772 -1.3947  1.4521
 4543TIP3   OH235043   3.768   6.578   1.700 -0.4090  0.5286  0.4116
 4543TIP3    H135044   3.839   6.597   1.638 -0.3883  4.8797  1.4396
 4543TIP3    H235045   3.689   6.586   1.648 -0.2828  0.0093  0.1343
 4544TIP3   OH235046   6.647   3.133  11.177 -0.0645 -0.4985 -0.1483
 4544TIP3    H135047   6.708   3.158  11.107 -0.2860 -0.5173 -0.3474
 4544TIP3    H235048   6.636   3.039  11.168  0.7387 -0.6785  0.5801
 4545TIP3   OH235049   1.220   0.306   2.811  0.2539 -0.2706  0.0276
 4545TIP3    H135050   1.195   0.262   2.730 -1.1636  1.2757 -0.4295
 4545TIP3    H235051   1.225   0.399   2.788  3.6715 -0.1257  0.8173
 4546TIP3   OH235052   6.028   5.855  13.507 -0.0752  0.3210  0.7839
 4546TIP3    H135053   6.111   5.819  13.477 -0.0221  0.8297  0.2996
 4546TIP3    H235054   6.019   5.937  13.458 -1.3044 -0.1775  0.1526
 4547TIP3   OH235055   5.612   6.109   1.435 -0.4323 -0.1133 -0.5345
 4547TIP3    H135056   5.661   6.189   1.419 -1.5765  0.2641 -2.4860
 4547TIP3    H235057   5.601   6.069   1.348 -0.2337 -2.1899  0.3249
 4548TIP3   OH235058   1.190   1.039  14.820 -0.2794 -0.0325  0.2641
 4548TIP3    H135059   1.169   1.116  14.767 -1.7109 -0.8214 -0.3738
 4548TIP3    H235060   1.264   1.067  14.874 -0.9947  1.9097  0.3319
 4549TIP3   OH235061   6.140   3.289   4.420  0.2721 -0.1315 -0.0596
 4549TIP3    H135062   6.127   3.353   4.489  1.8904  1.5891 -1.2449
 4549TIP3    H235063   6.121   3.204   4.461  0.3060  0.8998  2.1996
 4550TIP3   OH235064   2.202   3.439  17.133 -0.3632 -0.0540 -0.2137
 4550TIP3    H135065   2.209   3.445  17.228 -0.7740 -1.6208 -0.0574
 4550TIP3    H235066   2.191   3.346  17.116 -1.6643  0.3436 -1.7134
 4551TIP3   OH235067   6.381   5.864   5.023 -0.1706  0.3536  0.2621
 4551TIP3    H135068   6.314   5.796   5.030  0.5641 -0.4809 -0.4699
 4551TIP3    H235069   6.376   5.893   4.931 -0.9249  1.7863  0.7230
 4552TIP3   OH235070   3.568   2.022   1.943 -0.4100  0.0303  0.5675
 4552TIP3    H135071   3.628   1.997   2.013  1.7566 -0.8859 -1.4762
 4552TIP3    H235072   3.489   1.972   1.959  0.1386 -0.3637  2.1809
 4553TIP3   OH235073   5.903   4.637   3.438  0.0736  0.4718  0.4514
 4553TIP3    H135074   5.990   4.675   3.426 -0.1200  1.2291  1.3648
 4553TIP3    H235075   5.894   4.628   3.533  0.0251 -1.6774  0.3067
 4554TIP3   OH235076   6.005   6.058   4.338 -0.0160 -0.5102 -0.0677
 4554TIP3    H135077   5.964   6.138   4.371 -1.6003 -0.7496 -1.3133
 4554TIP3    H235078   6.008   5.999   4.413 -1.0575 -0.1176  0.2983
 4555TIP3   OH235079   4.801   3.865  11.891  0.1985 -0.1175  0.1332
 4555TIP3    H135080   4.750   3.784  11.888  0.4965 -0.3096  0.2210
 4555TIP3    H235081   4.884   3.842  11.850  0.2429  0.1747  0.0613
 4556TIP3   OH235082   0.034   2.480   3.157 -0.1809 -0.2662  0.1286
 4556TIP3    H135083   0.083   2.554   3.193 -1.0071  0.2490  0.2152
 4556TIP3    H235084   0.043   2.411   3.223  2.7464 -1.1944 -1.0624
 4557TIP3   OH235085   0.292   4.075  11.724  0.2298  0.0627 -0.7041
 4557TIP3    H135086   0.268   4.167  11.739  0.6368  0.1850 -0.7671
 4557TIP3    H235087   0.251   4.052  11.641 -1.4850 -0.4101  0.2353
 4558TIP3   OH235088   4.115   5.696   4.460 -0.2089  0.1248 -0.3717
 4558TIP3    H135089   4.145   5.638   4.390  1.8793  1.1111 -0.3833
 4558TIP3    H235090   4.135   5.784   4.428  0.7291  0.6014  1.4158
 4559TIP3   OH235091   1.007   2.476   5.167  0.2494  0.3386  0.0029
 4559TIP3    H135092   1.031   2.500   5.256 -2.7810 -0.4428  1.1495
 4559TIP3    H235093   1.088   2.440   5.129  1.9393  1.8453  1.9494
 4560TIP3   OH235094   5.070   4.614   1.326  0.6918 -0.3528  0.1100
 4560TIP3    H135095   5.042   4.591   1.237 -0.4487 -0.0079  0.3505
 4560TIP3    H235096   5.113   4.536   1.360  1.2827 -0.4308 -0.8043
 4561TIP3   OH235097   2.595   4.006  17.269 -0.4266 -0.0843  0.0132
 4561TIP3    H135098   2.504   3.989  17.246 -0.5827  2.3279 -1.5660
 4561TIP3    H235099   2.589   4.064  17.346 -0.3523  1.2617 -0.9484
 4562TIP3   OH235100   2.310   3.760   3.405  1.1302 -0.5063 -0.1436
 4562TIP3    H135101   2.308   3.666   3.422  0.8325 -0.4078  0.3983
 4562TIP3    H235102   2.223   3.791   3.429  0.7778 -0.2964 -1.6225
 4563TIP3   OH235103   3.773   3.429   5.065  0.2415  0.6071  0.3423
 4563TIP3    H135104   3.728   3.461   4.987  1.2473 -0.3032 -0.6500
 4563TIP3    H235105   3.858   3.474   5.062  0.8448 -0.5211  0.0950
 4564TIP3   OH235106   5.635   3.202  13.633  0.0455  0.0766 -0.1071
 4564TIP3    H135107   5.566   3.146  13.598  1.9377 -1.4424 -1.6062
 4564TIP3    H235108   5.673   3.151  13.705 -1.0963  1.4272  1.5458
 4565TIP3   OH235109   1.904   2.484  12.660  0.2750  0.1601 -0.7974
 4565TIP3    H135110   1.834   2.549  12.670 -1.1866 -1.4039 -0.3208
 4565TIP3    H235111   1.926   2.486  12.567 -1.3541 -0.1921 -1.2265
 4566TIP3   OH235112   2.195   4.196  13.120  0.0304  0.3970  0.0605
 4566TIP3    H135113   2.175   4.268  13.060  0.5165  0.6065  0.1445
 4566TIP3    H235114   2.215   4.239  13.203 -0.2991  0.1268  0.2847
 4567TIP3   OH235115   5.278   2.099   1.038  0.2371  0.4741  0.3087
 4567TIP3    H135116   5.202   2.155   1.021 -0.5875  0.3513  3.0454
 4567TIP3    H235117   5.345   2.160   1.070  0.2390  0.2256  0.7830
 4568TIP3   OH235118   5.004   4.064   4.822  0.0077  0.0793 -0.3225
 4568TIP3    H135119   5.066   4.026   4.759  1.1003  2.6734 -0.9178
 4568TIP3    H235120   5.038   4.037   4.907  1.9799  1.3422 -0.6436
 4569TIP3   OH235121   4.485   6.388   2.770 -0.2149 -0.4351  0.0429
 4569TIP3    H135122   4.509   6.345   2.852  2.1710  2.3645  1.0078
 4569TIP3    H235123   4.568   6.406   2.727 -0.9656  2.8115 -0.3547
 4570TIP3   OH235124   4.770   3.573  12.896  0.1314  0.3509 -0.2696
 4570TIP3    H135125   4.838   3.506  12.884  0.2749  0.1503  1.4454
 4570TIP3    H235126   4.695   3.524  12.930 -0.5312  0.7443 -1.1331
 4571TIP3   OH235127   6.523   3.783  13.974  0.3845  0.5011  0.9031
 4571TIP3    H135128   6.486   3.809  13.890 -1.7400 -1.7718  1.0165
 4571TIP3    H235129   6.577   3.707  13.954 -0.7129 -0.5102  1.6032
 4572TIP3   OH235130   5.565   1.454  15.013  0.4686  0.1157  0.3305
 4572TIP3    H135131   5.591   1.381  14.957 -0.9794 -0.0781 -0.1346
 4572TIP3    H235132   5.478   1.429  15.045  0.4690  1.0996  1.1242
 4573TIP3   OH235133   0.833   4.045   1.957  0.6071 -0.1668  0.0614
 4573TIP3    H135134   0.805   4.073   2.044  1.4129  0.3251  0.1766
 4573TIP3    H235135   0.900   4.109   1.932  1.0920 -0.8791 -0.5002
 4574TIP3   OH235136   5.185   6.015  14.663 -0.1749 -0.5850  0.1846
 4574TIP3    H135137   5.259   6.053  14.616  0.8060  2.6003  3.9059
 4574TIP3    H235138   5.109   6.063  14.631  0.3539  0.8990  1.0888
 4575TIP3   OH235139   6.263   4.137  11.458  0.4533  0.2293 -0.5759
 4575TIP3    H135140   6.340   4.108  11.410  0.9610  0.5942  0.0031
 4575TIP3    H235141   6.265   4.087  11.540  1.5887  2.1368  0.6323
 4576TIP3   OH235142   5.567   3.161  11.844 -0.0414 -0.3984 -0.4420
 4576TIP3    H135143   5.616   3.186  11.923 -0.4264  1.2579 -0.6977
 4576TIP3    H235144   5.488   3.215  11.847  0.9600  1.3832 -3.0680
 4577TIP3   OH235145   6.231   1.361   4.305  0.6697  0.2124 -0.0602
 4577TIP3    H135146   6.278   1.436   4.269  1.0782 -0.2160 -0.4300
 4577TIP3    H235147   6.239   1.370   4.400  0.6793  0.6553 -0.1035
 4578TIP3   OH235148   1.453   6.054   3.641 -0.0357 -0.2743 -0.3554
 4578TIP3    H135149   1.536   6.093   3.668  0.0825 -0.4532 -0.4581
 4578TIP3    H235150   1.419   6.115   3.575 -0.8171  0.7012  0.9018
 4579TIP3   OH235151   6.733   1.383  17.100 -0.0426 -0.2673  0.3192
 4579TIP3    H135152   6.750   1.291  17.118  1.6852  0.1618  1.0460
 4579TIP3    H235153   6.763   1.395  17.010 -2.0315 -0.7909 -0.4774
 4580TIP3   OH235154   6.336   1.195   1.665 -0.3091 -0.5637  1.1333
 4580TIP3    H135155   6.291   1.278   1.674 -2.6144 -1.6578  0.3384
 4580TIP3    H235156   6.338   1.159   1.754 -1.3901 -0.6723  1.1226
 4581TIP3   OH235157   0.668   5.209   3.283 -0.5935 -0.4148 -0.4901
 4581TIP3    H135158   0.716   5.284   3.317 -0.1181 -1.2978  0.8300
 4581TIP3    H235159   0.602   5.248   3.224 -0.4068  1.0275  0.2124
 4582TIP3   OH235160   3.925   3.146  16.086  0.5681  0.1138  0.2196
 4582TIP3    H135161   3.962   3.232  16.064 -0.2927 -0.1299 -2.5760
 4582TIP3    H235162   3.990   3.083  16.054 -0.2511 -0.2682 -0.7399
 4583TIP3   OH235163   4.993   2.154  14.485 -0.0137 -0.4130  0.1580
 4583TIP3    H135164   4.910   2.107  14.477 -0.4224  0.1810  0.7348
 4583TIP3    H235165   4.975   2.224  14.548  0.9885 -0.4025  0.4519
 4584TIP3   OH235166   4.687   2.456  16.717 -0.1432 -0.2070  0.2646
 4584TIP3    H135167   4.782   2.457  16.700 -0.2960  0.6343 -0.6513
 4584TIP3    H235168   4.679   2.418  16.804  1.1574  1.0756  1.0097
 4585TIP3   OH235169   5.079   1.788   4.124 -0.0548  0.2765 -0.0586
 4585TIP3    H135170   5.076   1.851   4.197  0.6671  0.8378 -0.4988
 4585TIP3    H235171   5.074   1.842   4.046 -1.5555 -0.3751 -0.4401
 4586TIP3   OH235172   0.445   3.799   2.575  0.1541 -0.2389  0.0971
 4586TIP3    H135173   0.493   3.738   2.518  1.1122  0.1151  0.5020
 4586TIP3    H235174   0.375   3.746   2.614 -0.1712 -0.6234 -0.9639
 4587TIP3   OH235175   0.167   3.227   1.735  0.0929 -0.3996 -0.2681
 4587TIP3    H135176   0.227   3.191   1.669  1.6871  0.7519  0.4779
 4587TIP3    H235177   0.190   3.320   1.740 -2.2646  0.2673 -0.4314
 4588TIP3   OH235178   6.642   2.819  14.555 -0.4456 -0.1177  0.8494
 4588TIP3    H135179   6.574   2.854  14.612 -1.0869  0.5820 -0.3059
 4588TIP3    H235180   6.649   2.727  14.579 -0.7361  0.1515  2.0118
 4589TIP3   OH235181   0.484   6.772   2.677  0.3705 -0.3418  0.0668
 4589TIP3    H135182   0.486   6.677   2.687 -1.3973 -0.3129  1.3246
 4589TIP3    H235183   0.434   6.803   2.753  1.4546  1.6577  0.0371
 4590TIP3   OH235184   3.841   4.820   4.292  0.0751 -0.0756  0.8561
 4590TIP3    H135185   3.813   4.813   4.383  0.6697 -0.7192  1.0010
 4590TIP3    H235186   3.904   4.892   4.291 -0.6070  0.5301  0.7720
 4591TIP3   OH235187   3.697   4.104   3.066  0.4113 -0.0763 -0.4296
 4591TIP3    H135188   3.740   4.109   2.981 -0.6479  0.6481 -0.9397
 4591TIP3    H235189   3.640   4.027   3.060 -0.9044  0.9202 -0.9823
 4592TIP3   OH235190   3.689   2.539  13.697  0.3755 -0.0192  0.4471
 4592TIP3    H135191   3.654   2.610  13.751 -0.3315 -1.9158  2.5806
 4592TIP3    H235192   3.777   2.524  13.732  0.1978 -0.7650  0.5746
 4593TIP3   OH235193   0.263   5.151  13.011  0.1300 -0.8697  0.1772
 4593TIP3    H135194   0.261   5.156  12.915  0.2704  0.6716  0.2412
 4593TIP3    H235195   0.177   5.183  13.039  0.0274 -1.4686  0.5738
 4594TIP3   OH235196   4.249   6.776   0.098  0.1774  0.4680  0.0104
 4594TIP3    H135197   4.206   6.725   0.167  0.9047  0.6924  0.6414
 4594TIP3    H235198   4.323   6.818   0.142  2.1540 -1.3077 -1.4286
 4595TIP3   OH235199   2.638   4.118  13.663 -0.4815 -0.0783 -0.5150
 4595TIP3    H135200   2.677   4.144  13.747  0.0741 -0.4084 -0.6611
 4595TIP3    H235201   2.545   4.107  13.682 -0.4093  0.1338 -0.0109
 4596TIP3   OH235202   2.908   0.614  14.394 -0.7871 -0.2534  0.4574
 4596TIP3    H135203   2.951   0.578  14.471  2.3638 -1.1705 -1.5602
 4596TIP3    H235204   2.979   0.651  14.342 -2.5762 -0.8784 -2.6399
 4597TIP3   OH235205   2.984   6.541  10.375 -0.0527 -1.0761 -0.3035
 4597TIP3    H135206   3.072   6.505  10.366  0.0430 -1.1705  0.9165
 4597TIP3    H235207   2.944   6.525  10.290  2.0094  1.5558 -1.9265
 4598TIP3   OH235208   2.461   4.518  15.571  0.4819  0.1395 -0.0146
 4598TIP3    H135209   2.426   4.603  15.546  2.6208  0.8276 -0.8918
 4598TIP3    H235210   2.545   4.537  15.614  0.8258 -1.4941  0.1304
 4599TIP3   OH235211   4.555   5.776  16.101 -0.6478 -0.0997 -0.0292
 4599TIP3    H135212   4.555   5.843  16.032 -3.1864  0.3465  0.2872
 4599TIP3    H235213   4.468   5.737  16.095 -0.6368 -0.6387  2.3827
 4600TIP3   OH235214   4.938   5.142  11.622  0.5898 -0.2667 -0.1871
 4600TIP3    H135215   4.993   5.079  11.668 -0.0101 -0.0484  0.8513
 4600TIP3    H235216   4.851   5.129  11.660  0.4331  1.0909 -0.0598
 4601TIP3   OH235217   2.673   4.106  12.260 -0.3471 -0.5665 -0.0199
 4601TIP3    H135218   2.662   4.157  12.340 -1.3966 -2.6122  1.2166
 4601TIP3    H235219   2.763   4.123  12.233 -1.6382  5.0175 -2.0120
 4602TIP3   OH235220   0.057   6.252   5.236  0.1792  0.4223 -0.0105
 4602TIP3    H135221  -0.008   6.320   5.253 -1.1862 -1.1178  1.2364
 4602TIP3    H235222   0.012   6.191   5.177  0.8081 -0.2179  0.1660
 4603TIP3   OH235223   0.318   0.036   3.557  0.2161 -0.0173 -0.1648
 4603TIP3    H135224   0.374   0.110   3.582 -0.8479  0.7538  0.0745
 4603TIP3    H235225   0.229   0.069   3.573 -0.3102 -1.0786 -0.8414
 4604TIP3   OH235226   6.558   5.986  11.847 -0.2446 -0.6229  0.0465
 4604TIP3    H135227   6.555   5.891  11.845 -0.9291 -0.5919 -1.0977
 4604TIP3    H235228   6.617   6.010  11.776 -0.8790 -0.1691 -0.3347
 4605TIP3   OH235229   0.364   1.831   0.978 -0.7307  0.6217  0.5765
 4605TIP3    H135230   0.319   1.746   0.978  1.2886 -0.6824 -3.1714
 4605TIP3    H235231   0.381   1.849   0.885  1.5298  3.7012  1.4341
 4606TIP3   OH235232   0.676   3.608  14.056 -0.0916 -0.6258  0.2775
 4606TIP3    H135233   0.704   3.574  13.971  0.5233  0.0745  0.1835
 4606TIP3    H235234   0.652   3.531  14.107 -2.4209 -0.9635 -1.1724
 4607TIP3   OH235235   2.146   2.701  15.425 -0.0347 -0.2434  0.2406
 4607TIP3    H135236   2.086   2.693  15.499  0.5726 -0.2330  0.7514
 4607TIP3    H235237   2.122   2.629  15.366 -0.1658 -0.6001  0.7206
 4608TIP3   OH235238   5.606   4.389   1.624  0.4596  0.2496  0.2863
 4608TIP3    H135239   5.565   4.337   1.554 -2.0662  1.9539  0.3532
 4608TIP3    H235240   5.642   4.325   1.684 -1.0253 -1.4113 -0.5029
 4609TIP3   OH235241   4.303   1.274  13.629  0.0729  0.3763  0.6307
 4609TIP3    H135242   4.281   1.181  13.622  0.7933  0.1425  1.3503
 4609TIP3    H235243   4.251   1.316  13.560 -0.8661 -0.4462  0.8122
 4610TIP3   OH235244   3.704   0.308  10.211  0.2360  0.2133  0.3222
 4610TIP3    H135245   3.660   0.231  10.176 -1.5734 -0.3123  3.3591
 4610TIP3    H235246   3.654   0.330  10.290  1.3791  3.8354  0.2103
 4611TIP3   OH235247   0.175   1.053   1.581 -0.0005 -0.1595 -0.1583
 4611TIP3    H135248   0.151   1.053   1.674  1.2055 -1.1506  0.1710
 4611TIP3    H235249   0.269   1.071   1.580 -0.0961  0.3491 -1.2248
 4612TIP3   OH235250   3.486   5.055  12.192 -0.6523  0.0282 -0.0148
 4612TIP3    H135251   3.472   5.116  12.120 -1.3749  0.2301  0.2879
 4612TIP3    H235252   3.543   5.102  12.253 -0.6231  0.1272 -0.1175
 4613TIP3   OH235253   2.817   5.960  15.066  0.7791  0.6021 -0.1564
 4613TIP3    H135254   2.759   5.892  15.101 -0.4773  1.7515  0.0906
 4613TIP3    H235255   2.767   6.041  15.075  1.0383  1.2034 -3.1723
 4614TIP3   OH235256   3.018   0.960  13.252  0.1039 -0.4256  0.1293
 4614TIP3    H135257   3.089   0.942  13.313 -1.4973 -0.4176  2.1022
 4614TIP3    H235258   2.950   1.001  13.306 -1.4176 -0.4465 -1.6682
 4615TIP3   OH235259   2.591   6.296   5.738  0.1164 -0.2950 -0.2668
 4615TIP3    H135260   2.546   6.221   5.777  1.2771 -0.5526  0.6433
 4615TIP3    H235261   2.541   6.372   5.769  0.5666 -0.5423  1.1665
 4616TIP3   OH235262   5.307   2.517   2.537  0.4314  0.0579 -0.1833
 4616TIP3    H135263   5.314   2.460   2.614 -0.7171  0.3388  0.1388
 4616TIP3    H235264   5.389   2.502   2.489  0.0763 -1.9969 -0.2209
 4617TIP3   OH235265   6.433   3.876  12.633 -0.2386 -0.0486  0.2753
 4617TIP3    H135266   6.376   3.874  12.710 -1.7410  1.4333 -0.7412
 4617TIP3    H235267   6.465   3.966  12.628  2.9623 -0.9728  1.2549
 4618TIP3   OH235268   0.267   2.707  16.073 -0.2088  0.3493  0.2708
 4618TIP3    H135269   0.288   2.620  16.108 -1.5133 -0.1600 -0.1485
 4618TIP3    H235270   0.173   2.717  16.089 -0.9328  0.0720 -3.0738
 4619TIP3   OH235271   2.680   4.825   4.156  0.0183 -0.1634  0.3974
 4619TIP3    H135272   2.602   4.808   4.209  0.7315 -1.1709  1.1579
 4619TIP3    H235273   2.696   4.742   4.111  0.1222  0.3208 -0.4783
 4620TIP3   OH235274   0.855   4.287  14.533 -0.1801  0.3376  0.0841
 4620TIP3    H135275   0.904   4.321  14.608  0.6356 -0.5948 -0.0076
 4620TIP3    H235276   0.922   4.260  14.471 -0.8288 -0.4012 -0.3073
 4621TIP3   OH235277   1.812   1.071   4.273 -0.0200 -0.6207  0.3224
 4621TIP3    H135278   1.902   1.045   4.253  0.5025  1.0203  0.3870
 4621TIP3    H235279   1.811   1.082   4.368 -0.5607 -1.5195  0.4355
 4622TIP3   OH235280   1.247   3.199   1.519 -0.1860  0.4006  0.3265
 4622TIP3    H135281   1.304   3.265   1.478 -1.1872  1.2835  0.3178
 4622TIP3    H235282   1.173   3.191   1.460 -2.0724  2.3016  2.2586
 4623TIP3   OH235283   6.330   4.944   3.870 -0.1332 -0.0401  0.2970
 4623TIP3    H135284   6.346   4.998   3.793  1.5533  0.6632  1.0950
 4623TIP3    H235285   6.300   5.006   3.937  3.4687  0.3378  1.7460
 4624TIP3   OH235286   5.586   0.756   4.563 -0.7519  0.1909  0.0273
 4624TIP3    H135287   5.632   0.838   4.545 -2.2665  1.4219  1.4028
 4624TIP3    H235288   5.596   0.744   4.658 -0.8523 -1.0376 -0.1064
 4625TIP3   OH235289   6.554   2.947   0.811  0.0452  0.2167 -0.2698
 4625TIP3    H135290   6.568   2.981   0.899  2.1994 -1.5709  0.1628
 4625TIP3    H235291   6.615   2.995   0.756  0.1614 -0.0834 -0.4064
 4626TIP3   OH235292   1.051   2.021  15.430  0.6120 -0.1836 -0.5213
 4626TIP3    H135293   0.997   1.954  15.473  0.5908  1.0398  1.5092
 4626TIP3    H235294   0.992   2.062  15.367 -0.2115 -0.3109  0.1376
 4627TIP3   OH235295   5.286   1.962  14.174  0.6421  0.4937 -0.1232
 4627TIP3    H135296   5.348   1.891  14.188 -1.0720 -0.7720  1.5938
 4627TIP3    H235297   5.274   1.965  14.079  0.6247 -1.6702 -0.2319
 4628TIP3   OH235298   2.732   3.383  13.441  0.5305  0.6124  0.4943
 4628TIP3    H135299   2.643   3.368  13.409  1.2363 -2.5227 -0.2686
 4628TIP3    H235300   2.726   3.366  13.535 -0.0418  2.6054  0.8736
 4629TIP3   OH235301   3.133   5.689  13.766 -0.1335 -0.5465 -0.7315
 4629TIP3    H135302   3.077   5.673  13.690 -0.7354 -0.9632 -0.2132
 4629TIP3    H235303   3.140   5.784  13.772  0.3677 -0.5185 -1.6225
 4630TIP3   OH235304   2.349   2.469  12.263 -0.2797 -1.0064 -0.4263
 4630TIP3    H135305   2.320   2.552  12.301  0.1405 -0.6122 -0.9602
 4630TIP3    H235306   2.341   2.406  12.335  0.2248 -0.3280  0.2344
 4631TIP3   OH235307   5.152   6.261   1.701 -0.3875  0.6551 -0.2211
 4631TIP3    H135308   5.218   6.246   1.634  0.2485  1.7709  0.1263
 4631TIP3    H235309   5.103   6.337   1.671  0.8704  2.1266  1.2336
 4632TIP3   OH235310   0.375   6.172  14.313 -0.0963  0.4568  0.4344
 4632TIP3    H135311   0.387   6.154  14.406  2.3417 -0.9363 -0.0435
 4632TIP3    H235312   0.323   6.099  14.281  1.3942 -0.5720  0.2659
 4633TIP3   OH235313   4.723   5.354   2.847  0.2939 -0.4779 -0.3449
 4633TIP3    H135314   4.720   5.420   2.917  1.0238 -0.3613 -0.4172
 4633TIP3    H235315   4.782   5.392   2.782 -0.4157 -0.5636 -1.0550
 4634TIP3   OH235316   0.326   6.596   0.795 -0.1623 -0.7252 -0.0135
 4634TIP3    H135317   0.315   6.502   0.781 -2.0251 -0.4861 -0.3784
 4634TIP3    H235318   0.306   6.635   0.710 -0.5711  0.0641  0.4370
 4635TIP3   OH235319   4.444   2.533   2.732 -0.1753  0.1665 -0.1974
 4635TIP3    H135320   4.376   2.489   2.682 -0.7699  1.0391 -0.1728
 4635TIP3    H235321   4.523   2.482   2.714 -1.1312 -1.9435  1.2191
 4636TIP3   OH235322   2.385   6.047  16.817 -0.6178 -0.3956  0.4518
 4636TIP3    H135323   2.386   5.968  16.764  1.3825  0.5860 -1.0964
 4636TIP3    H235324   2.432   6.023  16.897 -1.2003 -1.1253  0.5773
 4637TIP3   OH235325   3.593   5.517   1.427 -0.2813 -0.1882 -0.3137
 4637TIP3    H135326   3.603   5.612   1.432  1.0875 -0.2673 -1.1146
 4637TIP3    H235327   3.682   5.483   1.431 -0.7880 -1.4929  0.6654
 4638TIP3   OH235328   3.302   3.253  14.959 -0.9590 -0.6076  0.1589
 4638TIP3    H135329   3.295   3.163  14.927 -0.3636 -0.6226  0.0441
 4638TIP3    H235330   3.227   3.299  14.921  0.1448 -0.4233 -1.9998
 4639TIP3   OH235331   1.571   4.280   1.749  0.1016  0.1275  0.2732
 4639TIP3    H135332   1.600   4.323   1.829 -1.4949  2.6869 -0.3730
 4639TIP3    H235333   1.489   4.236   1.774 -0.8884  1.6829 -0.0358
 4640TIP3   OH235334   0.443   5.257   1.319  0.6434  0.5627  0.2676
 4640TIP3    H135335   0.402   5.172   1.334  2.3334 -0.3807 -0.1661
 4640TIP3    H235336   0.392   5.296   1.248  0.3847 -0.4842 -0.1435
 4641TIP3   OH235337   4.031   5.605  16.184 -0.0463  0.2151  0.3790
 4641TIP3    H135338   4.045   5.511  16.195 -0.1298  0.3276  1.5365
 4641TIP3    H235339   3.979   5.612  16.103  1.6524 -0.5795 -0.8441
 4642TIP3   OH235340   1.686   1.174   0.429  0.4666  0.3202  0.2668
 4642TIP3    H135341   1.752   1.191   0.362  0.2866  0.6615  0.1745
 4642TIP3    H235342   1.603   1.181   0.382  0.3089  1.3284  0.6886
 4643TIP3   OH235343   2.356   1.778  10.823  0.1868  0.3347 -0.3263
 4643TIP3    H135344   2.357   1.869  10.792  1.0959  0.3175 -0.3714
 4643TIP3    H235345   2.307   1.782  10.905  1.6798  1.1771  0.5589
 4644TIP3   OH235346   4.973   5.471  13.017  0.4640 -0.5678 -0.5961
 4644TIP3    H135347   5.054   5.522  13.006 -0.5165  1.0663 -0.6186
 4644TIP3    H235348   4.999   5.395  13.069  2.0198 -0.1189 -0.6649
 4645TIP3   OH235349   0.112   1.988  14.898 -0.0382  0.2499  0.3089
 4645TIP3    H135350   0.109   2.064  14.957  0.7762 -0.6134  1.5151
 4645TIP3    H235351   0.155   2.021  14.819 -1.0199  1.3978  0.2074
 4646TIP3   OH235352   2.840   4.148  11.867  0.2850 -0.3024  0.9242
 4646TIP3    H135353   2.751   4.128  11.838  0.3881 -0.0641  0.4428
 4646TIP3    H235354   2.869   4.067  11.909 -0.1011 -0.4362  0.9409
 4647TIP3   OH235355   5.562   0.025   1.025  0.2412 -0.5463  0.1368
 4647TIP3    H135356   5.598  -0.061   1.007  0.9318 -1.1516  3.6516
 4647TIP3    H235357   5.476   0.008   1.064  0.3736  0.3243  0.8474
 4648TIP3   OH235358   5.050   4.002   5.309 -0.1931 -0.6565  0.0655
 4648TIP3    H135359   4.991   4.067   5.346  0.4485  0.9072 -1.4766
 4648TIP3    H235360   5.134   4.019   5.353  0.1713  0.1449 -0.8877
 4649TIP3   OH235361   5.288   1.828  16.583 -0.0469  0.5097 -0.0011
 4649TIP3    H135362   5.287   1.828  16.487 -0.0888 -0.6550 -0.0101
 4649TIP3    H235363   5.199   1.853  16.608  0.0222  1.0332 -0.2547
 4650TIP3   OH235364   2.731   5.722  11.789  0.7756 -0.7545  0.1582
 4650TIP3    H135365   2.681   5.655  11.836  0.0696 -0.0864  0.3736
 4650TIP3    H235366   2.668   5.792  11.772  1.7997  0.4403  1.0890
 4651TIP3   OH235367   3.328   0.073   2.567  0.6682 -0.0893  0.1532
 4651TIP3    H135368   3.315   0.038   2.479 -2.2877  0.2601  0.3553
 4651TIP3    H235369   3.357   0.164   2.553 -2.3180  0.8616 -0.6244
 4652TIP3   OH235370   3.648   1.225   4.961  0.5306  0.0325 -0.1622
 4652TIP3    H135371   3.562   1.261   4.978  1.0727  1.1813  0.2495
 4652TIP3    H235372   3.642   1.134   4.988 -1.1229 -0.4708 -2.0029
 4653TIP3   OH235373   2.337   3.597   2.451 -0.2954  0.0993  0.1994
 4653TIP3    H135374   2.319   3.581   2.359  1.7322 -0.1085 -0.2161
 4653TIP3    H235375   2.348   3.510   2.489  0.1832  0.2104  0.3264
 4654TIP3   OH235376   3.593   4.015  13.254 -0.3725 -0.3215  0.0249
 4654TIP3    H135377   3.667   4.015  13.315  0.2509 -2.0972 -0.6735
 4654TIP3    H235378   3.518   3.990  13.309  0.0347 -1.0998  0.2512
 4655TIP3   OH235379   1.630   6.709  14.245 -0.2183 -0.0376 -0.2131
 4655TIP3    H135380   1.567   6.695  14.174  0.2945  0.5380 -0.7914
 4655TIP3    H235381   1.668   6.622  14.260  0.1934 -0.0272 -1.1494
 4656TIP3   OH235382   3.257   1.001   2.671 -0.3033  0.3649 -0.4144
 4656TIP3    H135383   3.186   0.998   2.607  0.6336 -1.1637 -1.4571
 4656TIP3    H235384   3.313   1.073   2.642 -1.3609  1.5564  0.3947
 4657TIP3   OH235385   2.045   1.482   2.795  0.1993 -0.2422 -1.4612
 4657TIP3    H135386   1.992   1.482   2.874  0.5995  3.1170 -1.0568
 4657TIP3    H235387   2.051   1.390   2.770 -2.9002 -1.0932  0.3831
 4658TIP3   OH235388   0.888   4.597  13.643 -0.3632  0.2797 -0.2369
 4658TIP3    H135389   0.904   4.517  13.592  0.8730  0.1773  0.2644
 4658TIP3    H235390   0.965   4.604  13.701 -0.3327  1.9552 -0.4300
 4659TIP3   OH235391   1.076   6.415  15.177  0.1020 -0.2501 -0.7014
 4659TIP3    H135392   1.117   6.416  15.264  0.3770  0.7173 -0.8331
 4659TIP3    H235393   1.037   6.328  15.171 -0.2869 -0.1929  0.5648
 4660TIP3   OH235394   1.021   2.865   1.510  0.3787  0.0498 -0.2864
 4660TIP3    H135395   0.983   2.781   1.484  0.9664  0.3648 -2.3408
 4660TIP3    H235396   0.955   2.930   1.483 -0.1951  0.2752  1.5375
 4661TIP3   OH235397   3.706   5.038   0.117 -0.0066  0.7113  0.4663
 4661TIP3    H135398   3.633   4.999   0.068  0.7373  1.3785 -1.2606
 4661TIP3    H235399   3.697   5.132   0.102  0.4297  0.9123  1.4016
 4662TIP3   OH235400   3.882   2.593   3.770 -0.2586  0.5953 -0.2291
 4662TIP3    H135401   3.808   2.593   3.709  1.0210  2.6238 -1.9299
 4662TIP3    H235402   3.910   2.502   3.775 -0.9847  0.2459 -1.9641
 4663TIP3   OH235403   1.355   0.066  15.776 -0.0343  0.1867 -0.2653
 4663TIP3    H135404   1.395   0.142  15.734  0.7026 -2.0898 -4.1811
 4663TIP3    H235405   1.283   0.041  15.717  0.5604 -2.8501  0.1344
 4664TIP3   OH235406   0.438   4.696  15.596 -0.3051  0.6668 -0.1996
 4664TIP3    H135407   0.509   4.711  15.535 -1.7530  2.1691 -1.6121
 4664TIP3    H235408   0.362   4.677  15.541 -0.6644 -3.0596  1.2874
 4665TIP3   OH235409   1.072   1.512   4.331 -0.2284 -0.1925  0.1740
 4665TIP3    H135410   1.034   1.424   4.319 -0.1210  0.0248 -2.3618
 4665TIP3    H235411   1.001   1.564   4.369 -0.3435 -1.2984  1.5642
 4666TIP3   OH235412   6.197   0.729  17.174  0.6911  0.4036  0.5109
 4666TIP3    H135413   6.184   0.806  17.230  2.1731  0.7427  0.4529
 4666TIP3    H235414   6.290   0.734  17.149 -0.2804  1.5281 -3.8021
 4667TIP3   OH235415   2.220   6.161   1.924  0.2547 -0.3811  1.2677
 4667TIP3    H135416   2.311   6.156   1.955  0.7400 -1.0073 -0.1694
 4667TIP3    H235417   2.219   6.236   1.865  0.2992 -1.3978 -0.0682
 4668TIP3   OH235418   5.306   3.245   4.560  0.1389  0.3238 -0.1199
 4668TIP3    H135419   5.358   3.174   4.598 -2.0074 -1.2825 -0.0089
 4668TIP3    H235420   5.256   3.279   4.634 -1.5737 -0.5771 -0.8051
 4669TIP3   OH235421   4.219   3.940  12.565  0.5479 -0.4388  0.1469
 4669TIP3    H135422   4.243   3.854  12.532  0.6965 -0.6274  0.7360
 4669TIP3    H235423   4.148   3.968  12.507  0.0928 -1.2114  0.3145
 4670TIP3   OH235424   4.378   3.095  17.084 -0.0960 -0.4183  0.2480
 4670TIP3    H135425   4.432   3.167  17.115 -1.1966  0.1081  1.0389
 4670TIP3    H235426   4.312   3.137  17.029  1.1797 -1.2247 -1.9903
 4671TIP3   OH235427   1.157   2.537   3.366  0.3048 -0.6382 -0.5108
 4671TIP3    H135428   1.139   2.447   3.392  0.4309 -1.0305 -1.7060
 4671TIP3    H235429   1.252   2.544   3.368  0.2527 -0.0944  0.9247
 4672TIP3   OH235430   4.792   6.076   0.987 -0.0741  0.1582 -0.1975
 4672TIP3    H135431   4.775   5.994   0.941  0.2457  0.5686 -1.0686
 4672TIP3    H235432   4.709   6.097   1.030 -0.6047  0.1402 -1.1965
 4673TIP3   OH235433   0.388   2.818  14.140  0.3951  0.0781 -0.4708
 4673TIP3    H135434   0.369   2.870  14.062  0.3581  0.5136 -0.1761
 4673TIP3    H235435   0.429   2.880  14.200  0.2338 -0.2021 -0.0694
 4674TIP3   OH235436   1.276   3.894   1.309  0.1896 -0.1604  0.4174
 4674TIP3    H135437   1.347   3.843   1.349 -0.3968 -0.3054  1.3034
 4674TIP3    H235438   1.197   3.845   1.329 -0.0989 -0.5286 -1.4450
 4675TIP3   OH235439   2.622   2.852  16.051  0.4639  0.2041 -0.8048
 4675TIP3    H135440   2.699   2.795  16.059 -0.2824 -0.5811  1.8904
 4675TIP3    H235441   2.549   2.791  16.038 -0.3880  0.3813  2.3938
 4676TIP3   OH235442   0.862   5.421  11.542 -0.5832 -0.0400  0.2636
 4676TIP3    H135443   0.919   5.410  11.465 -1.1750  1.8716 -0.5230
 4676TIP3    H235444   0.833   5.512  11.536 -1.7664 -0.2671  2.0123
 4677TIP3   OH235445   4.385   1.432  15.967  0.4161 -0.0597 -0.1423
 4677TIP3    H135446   4.448   1.401  15.901  0.4371  1.2082 -0.7513
 4677TIP3    H235447   4.342   1.507  15.926  0.7789  1.0871  1.4644
 4678TIP3   OH235448   4.024   5.312  15.029 -0.1526 -0.3593 -0.1771
 4678TIP3    H135449   3.937   5.274  15.033  0.1499 -1.1296 -0.6324
 4678TIP3    H235450   4.041   5.323  14.936  0.1187  0.0571 -0.0791
 4679TIP3   OH235451   0.980   5.133  12.529  0.0468  0.2284 -0.0834
 4679TIP3    H135452   1.048   5.134  12.596  0.2709  1.1601 -0.2990
 4679TIP3    H235453   1.005   5.063  12.469  2.0809  1.9179 -1.3649
 4680TIP3   OH235454   4.435   5.273   2.442  0.8102  0.0746 -0.2973
 4680TIP3    H135455   4.462   5.205   2.381  1.8088 -1.6441  1.9153
 4680TIP3    H235456   4.341   5.281   2.429  0.8827 -0.7856 -1.4989
 4681TIP3   OH235457   0.596   1.882   1.257  0.1707  0.5603 -0.5638
 4681TIP3    H135458   0.628   1.816   1.195 -0.0838 -1.1477  1.0451
 4681TIP3    H235459   0.514   1.846   1.290  0.5597  1.1706  1.1630
 4682TIP3   OH235460   4.065   3.005   0.883  0.6086 -0.0638 -0.3304
 4682TIP3    H135461   4.139   3.046   0.927  1.3180  0.1885 -1.6981
 4682TIP3    H235462   4.041   3.067   0.814  0.5483 -1.1244 -1.2981
 4683TIP3   OH235463   4.613   1.164  10.635 -0.0220  0.2970 -0.2745
 4683TIP3    H135464   4.547   1.197  10.575 -0.1092 -0.0900 -0.3986
 4683TIP3    H235465   4.695   1.173  10.587 -0.1099 -0.1612 -0.5239
 4684TIP3   OH235466   3.378   4.194   3.081  0.2011  0.0364  0.3267
 4684TIP3    H135467   3.468   4.173   3.103  0.2040  0.0822  0.3593
 4684TIP3    H235468   3.382   4.283   3.045  0.3296 -0.3832 -0.7377
 4685TIP3   OH235469   1.662   1.072   2.448  0.5679  0.2934  0.0761
 4685TIP3    H135470   1.613   1.128   2.508 -1.3604  1.1675 -2.1698
 4685TIP3    H235471   1.722   1.132   2.403  0.8479 -0.0553 -0.0192
 4686TIP3   OH235472   5.442   0.135  17.222 -0.1227  0.2187 -0.3386
 4686TIP3    H135473   5.489   0.083  17.288 -1.7280  0.2997  0.9581
 4686TIP3    H235474   5.387   0.071  17.176 -1.9131  0.6268  1.0894
 4687TIP3   OH235475   0.230   3.566   2.096  0.3807 -0.0271  0.8437
 4687TIP3    H135476   0.192   3.644   2.055  0.4888 -0.8956 -1.0601
 4687TIP3    H235477   0.322   3.588   2.111  0.3515  0.2983  0.5486
 4688TIP3   OH235478   4.598   2.351  11.689  0.0450 -0.1593  0.0656
 4688TIP3    H135479   4.616   2.377  11.779 -1.4118 -0.2520  0.4163
 4688TIP3    H235480   4.525   2.289  11.696  0.3105 -0.6382 -1.1310
 4689TIP3   OH235481   2.711   3.252   4.227 -0.0542 -0.5618 -0.2214
 4689TIP3    H135482   2.740   3.266   4.318  1.3711  1.1032 -0.8795
 4689TIP3    H235483   2.626   3.295   4.223  0.2194  0.0220  0.1330
 4690TIP3   OH235484   0.967   6.395   5.896 -0.0115 -0.5184  0.7597
 4690TIP3    H135485   0.936   6.312   5.859  1.7448 -1.5000  1.3146
 4690TIP3    H235486   1.054   6.406   5.859  0.7771 -0.2284  2.5749
 4691TIP3   OH235487   6.197   4.775  15.451  0.3316  0.4377 -0.1715
 4691TIP3    H135488   6.126   4.839  15.455 -0.1610  0.0487 -1.8042
 4691TIP3    H235489   6.277   4.828  15.446  0.1133  0.8828  0.7627
 4692TIP3   OH235490   3.045   0.304  11.587 -0.3020  0.0739  0.5980
 4692TIP3    H135491   3.087   0.225  11.552 -1.6311 -2.1223  3.5033
 4692TIP3    H235492   3.077   0.311  11.676 -3.0647  0.5416  1.6730
 4693TIP3   OH235493   1.979   6.614   2.102  0.1073 -0.0848  0.4584
 4693TIP3    H135494   2.028   6.666   2.038  1.5663 -2.6479 -0.6844
 4693TIP3    H235495   2.035   6.613   2.180  0.4452 -0.5458  0.2134
 4694TIP3   OH235496   0.294   0.355   3.887  0.4736  0.2776  0.4528
 4694TIP3    H135497   0.388   0.341   3.873  0.0917  0.6187 -4.3271
 4694TIP3    H235498   0.256   0.268   3.887  0.5601  0.1878 -1.5136
 4695TIP3   OH235499   3.768   1.751   0.073  0.0983 -0.6323  0.3355
 4695TIP3    H135500   3.830   1.684   0.101 -0.6225 -1.0688  0.9044
 4695TIP3    H235501   3.784   1.761  -0.021  0.2627 -1.5356  0.2649
 4696TIP3   OH235502   5.932   4.027  11.227  0.4391 -0.4880  0.3036
 4696TIP3    H135503   5.979   4.018  11.144 -0.7453  1.4629 -0.6685
 4696TIP3    H235504   5.842   4.002  11.207  0.1557 -0.0799  1.0103
 4697TIP3   OH235505   5.452   3.777   4.803 -0.4425  0.1834  0.2537
 4697TIP3    H135506   5.489   3.719   4.737  0.8551 -0.5580  1.5640
 4697TIP3    H235507   5.357   3.768   4.794 -0.2642 -0.9352 -0.6056
 4698TIP3   OH235508   6.276   0.573  16.142  0.1039 -0.0780  0.0749
 4698TIP3    H135509   6.253   0.529  16.223 -1.6693  1.3391  0.3991
 4698TIP3    H235510   6.372   0.570  16.139  0.1391 -1.6022  1.3477
 4699TIP3   OH235511   2.308   5.411  13.295 -0.0686 -0.1707 -0.4871
 4699TIP3    H135512   2.371   5.483  13.296 -0.8220  0.4977 -0.5625
 4699TIP3    H235513   2.258   5.421  13.376 -1.0461  0.1783 -1.1228
 4700TIP3   OH235514   5.542   2.276   1.415 -0.1385 -0.1490 -0.2027
 4700TIP3    H135515   5.519   2.289   1.323  0.7283  0.4192 -0.3420
 4700TIP3    H235516   5.533   2.182   1.429  0.7211 -0.3820 -1.1426
 4701TIP3   OH235517   1.401   5.876   3.052 -0.2812  0.5283  0.4456
 4701TIP3    H135518   1.482   5.892   3.005 -0.1254  1.4585  0.9910
 4701TIP3    H235519   1.418   5.798   3.105  0.0427  0.3608  0.0978
 4702TIP3   OH235520   1.743   5.380  12.917  0.6808  0.0898 -0.4542
 4702TIP3    H135521   1.761   5.337  12.833  0.8473  1.8756 -1.3748
 4702TIP3    H235522   1.784   5.323  12.982  1.5960 -0.7217 -1.6846
 4703TIP3   OH235523   0.273   6.404   5.220 -0.1227 -0.6747 -0.4077
 4703TIP3    H135524   0.243   6.486   5.180  0.2673  0.1279  0.8885
 4703TIP3    H235525   0.196   6.347   5.220 -1.3181  0.8252  1.5547
 4704TIP3   OH235526   0.098   2.271  14.409  0.9107  1.0011 -0.1563
 4704TIP3    H135527   0.097   2.353  14.359  1.3035  1.2527  0.2551
 4704TIP3    H235528   0.190   2.253  14.425  0.8020  0.7251  0.1678
 4705TIP3   OH235529   0.050   0.057  13.873 -0.9442 -0.1531  0.3681
 4705TIP3    H135530   0.026  -0.015  13.931  0.2098  1.2932  2.8422
 4705TIP3    H235531   0.080   0.015  13.793  0.4010 -2.5009  1.9645
 4706TIP3   OH235532   6.536   1.615  14.537 -0.1802 -0.2223 -0.5059
 4706TIP3    H135533   6.456   1.665  14.556 -0.9755 -0.8486 -2.0819
 4706TIP3    H235534   6.556   1.572  14.620 -1.2337  0.2742  0.0396
 4707TIP3   OH235535   0.738   2.141  16.636  0.0311  0.0312 -0.0258
 4707TIP3    H135536   0.648   2.112  16.626  0.7214 -2.2256 -0.3318
 4707TIP3    H235537   0.740   2.185  16.721 -1.0538 -1.2712  0.7087
 4708TIP3   OH235538   0.963   3.124  11.350 -0.1776  0.1253  0.7485
 4708TIP3    H135539   1.033   3.169  11.302 -1.4444  1.2980 -0.0790
 4708TIP3    H235540   0.969   3.033  11.322  0.1916  0.4662 -0.3363
 4709TIP3   OH235541   2.008   4.403  14.521  0.0643 -0.3487 -0.7455
 4709TIP3    H135542   1.988   4.313  14.545 -1.0249 -1.2062 -4.3278
 4709TIP3    H235543   2.069   4.395  14.448 -0.0414  1.8176 -1.1316
 4710TIP3   OH235544   1.268   5.371   5.353  0.2644 -0.6626 -0.0568
 4710TIP3    H135545   1.253   5.465   5.341  1.9907 -0.2242  0.8755
 4710TIP3    H235546   1.363   5.360   5.341  0.3227 -2.0370  1.3172
 4711TIP3   OH235547   4.497   6.626   4.422 -0.0080  0.0692 -0.2021
 4711TIP3    H135548   4.534   6.662   4.502  1.5407  0.3415 -0.9958
 4711TIP3    H235549   4.476   6.704   4.369 -1.6248 -0.0847  0.1629
 4712TIP3   OH235550   4.182   4.774   6.276 -0.1065 -0.0491 -0.3563
 4712TIP3    H135551   4.114   4.807   6.217  0.9479  0.1456 -1.4981
 4712TIP3    H235552   4.264   4.791   6.230  0.6726 -1.1090  0.5892
 4713TIP3   OH235553   6.067   1.575   4.509  0.5310 -0.3983 -0.1740
 4713TIP3    H135554   6.088   1.497   4.459 -1.8110 -1.9449  1.0750
 4713TIP3    H235555   6.116   1.566   4.591  0.8031 -0.2008 -0.3149
 4714TIP3   OH235556   1.458   0.048   6.122  0.0961 -0.6961  0.1683
 4714TIP3    H135557   1.369   0.067   6.152  0.5050  0.8124  0.5131
 4714TIP3    H235558   1.448  -0.028   6.065 -1.3122 -0.9776  0.7486
 4715TIP3   OH235559   1.021   4.162   1.361  0.1411  0.2880  0.2410
 4715TIP3    H135560   0.933   4.189   1.334 -0.3928 -0.8128  0.8041
 4715TIP3    H235561   1.080   4.215   1.307 -0.8604  0.9828 -0.2087
 4716TIP3   OH235562   1.680   6.287  14.576 -0.2408  0.1342 -0.1909
 4716TIP3    H135563   1.588   6.278  14.599 -0.4401  0.1318 -0.9685
 4716TIP3    H235564   1.716   6.344  14.644 -0.5590 -0.7399  0.7493
 4717TIP3   OH235565   1.978   2.818   0.439  0.0459  0.0932 -0.1680
 4717TIP3    H135566   1.956   2.789   0.527 -1.5600  0.0126 -0.5597
 4717TIP3    H235567   2.071   2.838   0.443  0.1390 -0.4954  1.3766
 4718TIP3   OH235568   6.426   1.446  11.422 -0.0820 -0.5767 -0.5738
 4718TIP3    H135569   6.483   1.377  11.455 -0.2657 -0.6254 -0.3615
 4718TIP3    H235570   6.446   1.522  11.477  0.9974 -0.0960 -1.5639
 4719TIP3   OH235571   6.557   3.211  12.497 -0.2703  0.2596  0.3652
 4719TIP3    H135572   6.491   3.274  12.527  0.1084  0.7140  0.2647
 4719TIP3    H235573   6.622   3.210  12.567  0.7926  1.5811 -0.5437
 4720TIP3   OH235574   5.421   2.057   2.035  0.5255 -0.1056 -0.2566
 4720TIP3    H135575   5.329   2.076   2.016  0.5136 -1.0021 -1.2128
 4720TIP3    H235576   5.465   2.065   1.950  1.0460 -1.1727 -0.1053
 4721TIP3   OH235577   1.395   6.361  15.937  0.3597  0.0218 -0.1636
 4721TIP3    H135578   1.441   6.424  15.992  1.4265  0.8239 -1.8634
 4721TIP3    H235579   1.363   6.295  15.997  4.2766 -0.9254  1.1811
 4722TIP3   OH235580   3.671   0.713   6.021  0.0435  0.4347  0.0755
 4722TIP3    H135581   3.758   0.729   6.057 -0.3076  1.4076  0.4984
 4722TIP3    H235582   3.620   0.790   6.044 -1.4673 -0.8981  1.4509
 4723TIP3   OH235583   4.420   6.475  13.513  0.5919 -0.6583  0.8285
 4723TIP3    H135584   4.387   6.528  13.585  1.8460 -1.2428  1.8802
 4723TIP3    H235585   4.437   6.389  13.552  0.9088 -1.1064 -0.2584
 4724TIP3   OH235586   6.402   4.984  14.496 -0.3470  0.3808  0.0319
 4724TIP3    H135587   6.456   5.007  14.421 -0.6902 -2.1788 -1.1170
 4724TIP3    H235588   6.452   4.917  14.542 -0.8657  0.7480  1.1544
 4725TIP3   OH235589   0.884   2.421   6.616 -0.6711  0.3131  0.6214
 4725TIP3    H135590   0.914   2.467   6.694  0.5217 -0.2744  0.5298
 4725TIP3    H235591   0.870   2.331   6.645  0.7627 -0.1516 -0.0350
 4726TIP3   OH235592   0.026   6.713   5.629 -0.3252  0.2777  0.1485
 4726TIP3    H135593   0.087   6.769   5.677 -0.8264  0.0115  1.1247
 4726TIP3    H235594   0.041   6.625   5.665 -0.0300 -0.0998 -0.8742
 4727TIP3   OH235595   0.352   4.167  16.750  0.0166  0.0481 -0.1241
 4727TIP3    H135596   0.351   4.072  16.757 -0.1962  0.1482  1.8756
 4727TIP3    H235597   0.318   4.185  16.663  1.7207 -1.7246 -1.2260
 4728TIP3   OH235598   3.767   4.507  12.141  0.3535 -0.8509 -0.7396
 4728TIP3    H135599   3.673   4.517  12.161  0.7829  0.9148  0.6448
 4728TIP3    H235600   3.793   4.428  12.188  0.2832  0.6070  1.9131
 4729TIP3   OH235601   2.671   6.489  13.129 -0.0726 -0.0504  0.0681
 4729TIP3    H135602   2.726   6.456  13.059 -1.7082  1.0503 -1.8463
 4729TIP3    H235603   2.732   6.524  13.194  1.4819 -0.6200 -1.0475
 4730TIP3   OH235604   1.819   2.675   1.763  0.3437  0.0926 -0.1690
 4730TIP3    H135605   1.755   2.605   1.750  0.1630  0.1579  0.3452
 4730TIP3    H235606   1.815   2.726   1.682  0.4139 -0.4420 -0.5099
 4731TIP3   OH235607   4.599   1.109   4.045  0.1720  0.1001  0.0807
 4731TIP3    H135608   4.668   1.075   3.988  0.7783 -1.0942  1.4416
 4731TIP3    H235609   4.518   1.072   4.011  0.6347 -1.4227  0.5293
 4732TIP3   OH235610   1.540   6.355  15.005  0.2762  0.1980  0.2656
 4732TIP3    H135611   1.521   6.427  15.066  0.2093  0.0653  0.3990
 4732TIP3    H235612   1.500   6.383  14.923  0.2969  0.3397  0.3021
 4733TIP3   OH235613   6.036   2.351   3.340  0.6497  0.6017 -0.0909
 4733TIP3    H135614   6.059   2.368   3.249 -1.0152  0.4116 -0.5787
 4733TIP3    H235615   6.092   2.410   3.390  1.0759  1.2454 -1.2733
 4734TIP3   OH235616   0.640   2.538  13.555 -0.6568  0.4071  0.0046
 4734TIP3    H135617   0.702   2.539  13.481  2.2573 -3.1241  2.0256
 4734TIP3    H235618   0.567   2.485  13.524 -0.8729  1.3850 -1.2207
 4735TIP3   OH235619   2.989   5.394  12.966 -0.4597  0.0889 -0.4435
 4735TIP3    H135620   2.929   5.322  12.944 -0.4467  0.0513 -0.3589
 4735TIP3    H235621   3.012   5.378  13.058 -0.5320  0.2549 -0.3963
 4736TIP3   OH235622   3.204   1.295   0.761  0.0756  0.0937  0.7499
 4736TIP3    H135623   3.186   1.216   0.812 -1.1965  0.0215  0.2203
 4736TIP3    H235624   3.119   1.339   0.754  0.5897  1.0430  0.2494
 4737TIP3   OH235625   3.249   1.657   2.175 -0.5040 -0.0229 -1.1797
 4737TIP3    H135626   3.299   1.723   2.224 -1.0813 -2.1339  2.5918
 4737TIP3    H235627   3.314   1.592   2.148 -0.5821 -0.4355 -0.3894
 4738TIP3   OH235628   0.334   2.846   0.452 -0.2955  0.3334 -0.3292
 4738TIP3    H135629   0.336   2.772   0.392  1.3920 -0.1092  0.2191
 4738TIP3    H235630   0.401   2.906   0.420  0.6845  0.0575  1.1058
 4739TIP3   OH235631   3.354   0.526  11.089 -0.0087  0.1188 -0.3834
 4739TIP3    H135632   3.286   0.474  11.133 -0.8642  0.6731 -1.0208
 4739TIP3    H235633   3.436   0.495  11.128 -0.6583 -0.1531  0.8284
 4740TIP3   OH235634   6.358   3.660  11.961 -0.3391 -0.3966 -0.2572
 4740TIP3    H135635   6.355   3.724  12.033 -0.6964  0.1930 -0.7827
 4740TIP3    H235636   6.335   3.711  11.883  1.6786 -0.6387 -1.0842
 4741TIP3   OH235637   3.666   0.906   5.015  0.4474  0.2346  0.5023
 4741TIP3    H135638   3.754   0.942   5.003  1.6327 -2.6594 -0.3311
 4741TIP3    H235639   3.666   0.871   5.104  0.7389 -1.0825  0.0176
 4742TIP3   OH235640   2.680   2.074  11.654  0.2027  0.2929 -0.1126
 4742TIP3    H135641   2.585   2.081  11.662  0.1159  2.2709 -2.0493
 4742TIP3    H235642   2.713   2.095  11.742 -1.1223 -2.2536  1.0930
 4743TIP3   OH235643   5.657   4.976  11.922  0.0165  0.1930  0.0889
 4743TIP3    H135644   5.729   5.025  11.961  0.5089  0.9293 -1.6182
 4743TIP3    H235645   5.660   5.000  11.829 -1.1543 -1.3537 -0.3876
 4744TIP3   OH235646   1.594   1.973   4.409  0.3555 -0.0983 -0.5543
 4744TIP3    H135647   1.650   1.973   4.332 -0.1356 -1.3139 -0.9333
 4744TIP3    H235648   1.528   1.906   4.391 -0.4206  0.3652  0.4540
 4745TIP3   OH235649   2.232   6.520   4.348 -0.2036  0.0692 -0.1423
 4745TIP3    H135650   2.231   6.482   4.436 -2.2799  0.0340 -0.1475
 4745TIP3    H235651   2.249   6.446   4.290 -0.5804 -0.2222  0.1148
 4746TIP3   OH235652   2.734   6.085  11.246  0.2984 -0.3423  0.3029
 4746TIP3    H135653   2.756   6.036  11.325  1.2318  0.8127  0.7837
 4746TIP3    H235654   2.638   6.084  11.243  0.1908  0.5809  2.0922
 4747TIP3   OH235655   4.453   3.920  11.688  0.3020  0.2350 -0.1604
 4747TIP3    H135656   4.490   3.843  11.644  0.5285  0.7983 -0.9835
 4747TIP3    H235657   4.416   3.973  11.617  1.6697  1.7149  0.1729
 4748TIP3   OH235658   1.189   3.983   0.574  0.0391 -0.1539  0.1803
 4748TIP3    H135659   1.147   4.031   0.503  0.9135  1.2172  0.5546
 4748TIP3    H235660   1.267   3.944   0.533  0.9951  1.3167  0.5186
 4749TIP3   OH235661   3.212   0.389   3.494  0.3604  0.0133  0.0090
 4749TIP3    H135662   3.248   0.431   3.416  0.3711 -0.2679 -0.1366
 4749TIP3    H235663   3.201   0.297   3.470  0.1866 -0.0382  0.2765
 4750TIP3   OH235664   2.323   4.127   5.531  0.1114  0.2538 -0.0412
 4750TIP3    H135665   2.292   4.143   5.620 -0.4974  0.2017 -0.2380
 4750TIP3    H235666   2.407   4.082   5.542 -0.9442 -1.6952  0.5323
 4751TIP3   OH235667   0.449   3.061   4.519  0.5847 -0.0944  0.0536
 4751TIP3    H135668   0.388   3.115   4.469  0.9090  1.1601  0.9275
 4751TIP3    H235669   0.532   3.066   4.470  0.4169 -0.4188 -0.2617
 4752TIP3   OH235670   1.109   3.337   2.646  0.2993 -0.2913 -0.2730
 4752TIP3    H135671   1.167   3.289   2.706 -0.2967  1.1200  1.5380
 4752TIP3    H235672   1.021   3.316   2.677 -0.0138  0.4786 -0.6269
 4753TIP3   OH235673   0.283   3.802   1.495  0.3363 -0.5104 -0.2350
 4753TIP3    H135674   0.243   3.881   1.528 -0.5202 -1.3205  0.7188
 4753TIP3    H235675   0.364   3.793   1.545  0.9229  0.2551 -1.0204
 4754TIP3   OH235676   4.772   1.020   5.142  0.5140  0.2916  0.5020
 4754TIP3    H135677   4.807   0.933   5.160  1.6955  0.8312  0.9058
 4754TIP3    H235678   4.744   1.053   5.227  1.0802  0.7274  0.5235
 4755TIP3   OH235679   5.059   4.613   4.923 -0.1444 -0.1521 -0.1116
 4755TIP3    H135680   5.069   4.531   4.971  1.1267  0.3953  0.6129
 4755TIP3    H235681   5.055   4.680   4.991 -1.0721  0.4162 -0.6945
 4756TIP3   OH235682   1.431   1.032  16.878 -0.4532  0.5031 -0.8747
 4756TIP3    H135683   1.463   0.942  16.884  1.3725  1.0688 -1.5162
 4756TIP3    H235684   1.473   1.077  16.951 -0.9677  0.9618 -0.8530
 4757TIP3   OH235685   3.333   3.673   3.418  0.7732  0.0479 -0.2435
 4757TIP3    H135686   3.426   3.666   3.440  1.1491  1.5827 -1.1748
 4757TIP3    H235687   3.288   3.674   3.502  1.8755  2.3809  0.4093
 4758TIP3   OH235688   4.376   1.438  12.007 -0.4758  0.3863 -0.3508
 4758TIP3    H135689   4.356   1.532  12.002 -0.9211  0.4147  1.3852
 4758TIP3    H235690   4.422   1.419  11.925 -0.5781  2.0695 -0.8341
 4759TIP3   OH235691   6.156   5.239  16.023 -0.0278 -0.0298 -0.2163
 4759TIP3    H135692   6.234   5.204  15.979  0.4544  0.1012  0.5091
 4759TIP3    H235693   6.162   5.205  16.113 -1.1762 -0.5783 -0.3317
 4760TIP3   OH235694   5.446   4.860  16.519 -0.1709  0.2182 -0.6288
 4760TIP3    H135695   5.392   4.799  16.467 -1.0847  0.8581 -0.4426
 4760TIP3    H235696   5.527   4.869  16.468 -0.7657  0.2712 -1.5877
 4761TIP3   OH235697   3.493   5.264  15.707 -0.5361  0.0678  0.1748
 4761TIP3    H135698   3.446   5.229  15.632  3.0147  0.4286 -2.4762
 4761TIP3    H235699   3.537   5.188  15.746 -2.4313 -0.1366  2.1047
 4762TIP3   OH235700   4.066   2.182   3.545 -0.3438  0.5706 -0.2856
 4762TIP3    H135701   4.028   2.095   3.549 -0.8264  0.6424 -2.1421
 4762TIP3    H235702   4.042   2.215   3.458  0.0141  2.4685  0.2715
 4763TIP3   OH235703   3.294   6.259  15.236  0.0349  0.1467 -0.1328
 4763TIP3    H135704   3.238   6.213  15.174  0.8027 -0.4513 -0.3916
 4763TIP3    H235705   3.351   6.192  15.274  0.7581  0.7694 -0.0667
 4764TIP3   OH235706   1.365   4.176  11.424 -0.2880  0.0388 -0.1080
 4764TIP3    H135707   1.450   4.218  11.409 -0.6053  1.1744  1.1154
 4764TIP3    H235708   1.311   4.244  11.464 -1.2749 -1.1250  0.6187
 4765TIP3   OH235709   5.569   2.042  12.378 -0.1050  0.7172  0.0965
 4765TIP3    H135710   5.490   2.002  12.413  0.7295 -0.4013  0.7765
 4765TIP3    H235711   5.570   2.017  12.286 -0.3444  0.4041  0.1755
 4766TIP3   OH235712   0.488   3.844   5.242  0.0821 -0.4327 -0.3092
 4766TIP3    H135713   0.529   3.866   5.159 -0.6078  1.5565 -0.1833
 4766TIP3    H235714   0.434   3.920   5.263 -0.0819 -1.0551  1.7659
 4767TIP3   OH235715   5.489   5.316   4.801 -0.0918  0.0369  0.7227
 4767TIP3    H135716   5.419   5.251   4.807 -0.5244  0.3543 -0.5584
 4767TIP3    H235717   5.570   5.264   4.800 -0.4977 -0.8903 -3.8391
 4768TIP3   OH235718   4.441   4.735  15.545  0.3346  0.3364  0.2295
 4768TIP3    H135719   4.421   4.828  15.554  0.4290  0.3578  0.2164
 4768TIP3    H235720   4.382   4.691  15.606 -0.0707  0.3640 -0.1412
 4769TIP3   OH235721   0.628   4.167  14.737 -0.1973  0.1739  0.1480
 4769TIP3    H135722   0.706   4.152  14.790 -1.4661 -1.0029  1.7644
 4769TIP3    H235723   0.610   4.260  14.747  1.3167  0.6128 -0.7722
 4770TIP3   OH235724   2.010   3.580   4.028  0.5674  0.2546  0.0360
 4770TIP3    H135725   2.037   3.497   3.988  0.3834  1.4770 -2.9033
 4770TIP3    H235726   2.087   3.611   4.075  0.9578 -1.0967  0.3167
 4771TIP3   OH235727   5.048   5.427   1.075  0.2568  0.5224  0.3949
 4771TIP3    H135728   4.975   5.365   1.087  0.1166  0.5268 -0.3619
 4771TIP3    H235729   5.076   5.448   1.164  1.6681 -2.2059  0.7222
 4772TIP3   OH235730   3.270   6.735  14.716 -0.5786 -1.1331  0.3475
 4772TIP3    H135731   3.348   6.786  14.694  0.0261 -0.1454  4.1537
 4772TIP3    H235732   3.301   6.645  14.721 -0.5711 -1.2859 -1.6502
 4773TIP3   OH235733   1.887   3.056  16.443  0.1037 -0.1178 -0.8833
 4773TIP3    H135734   1.841   3.132  16.407 -2.4116 -0.7617  0.7500
 4773TIP3    H235735   1.959   3.094  16.494 -0.7751  1.1457 -0.5476
 4774TIP3   OH235736   2.843   2.519   4.736 -0.0940  0.3518  0.3275
 4774TIP3    H135737   2.769   2.568   4.772 -1.2186 -1.5134  0.6899
 4774TIP3    H235738   2.918   2.544   4.790 -0.4233  2.2963 -0.0652
 4775TIP3   OH235739   1.303   5.570  17.175 -0.0236 -0.1373 -0.0486
 4775TIP3    H135740   1.294   5.645  17.234 -1.3769 -0.7523  0.5807
 4775TIP3    H235741   1.306   5.494  17.233 -1.6248 -0.7780 -0.7502
 4776TIP3   OH235742   4.210   1.212  13.285 -1.0347 -0.0850 -0.9120
 4776TIP3    H135743   4.186   1.300  13.255  0.0518  0.7774  0.6264
 4776TIP3    H235744   4.138   1.185  13.342 -0.5846  0.5467 -0.0208
 4777TIP3   OH235745   1.449   1.304   5.460 -0.2014  0.2316 -0.4605
 4777TIP3    H135746   1.357   1.282   5.469 -0.7588  2.9338  1.8611
 4777TIP3    H235747   1.461   1.383   5.513  3.9344 -1.2860  1.3753
 4778TIP3   OH235748   6.643   5.043   1.213 -0.4157 -0.0801  0.4004
 4778TIP3    H135749   6.710   5.024   1.146 -0.7161  0.5834 -0.1025
 4778TIP3    H235750   6.686   5.021   1.296  0.1940 -0.2956  0.0416
 4779TIP3   OH235751   0.463   4.125   0.322 -0.2154 -0.4432 -0.6220
 4779TIP3    H135752   0.456   4.156   0.231 -0.6139 -1.8913 -1.1159
 4779TIP3    H235753   0.467   4.030   0.314 -4.5132 -1.0051  1.0330
 4780TIP3   OH235754   6.326   0.303   0.737  0.1945  0.5276 -0.1877
 4780TIP3    H135755   6.325   0.364   0.663  0.4393  0.6476 -0.0936
 4780TIP3    H235756   6.261   0.337   0.798 -1.5495 -0.7317 -1.2655
 4781TIP3   OH235757   5.327   2.493  12.858 -0.3213  0.0189  0.3521
 4781TIP3    H135758   5.313   2.583  12.886  1.3104  0.1992  0.6681
 4781TIP3    H235759   5.412   2.494  12.814 -0.5429 -1.2598 -0.1628
 4782TIP3   OH235760   5.871   0.474   1.493 -0.2444  1.0207 -0.2356
 4782TIP3    H135761   5.881   0.391   1.538 -0.4651  2.0049  1.7130
 4782TIP3    H235762   5.956   0.517   1.502 -0.4166  1.4069 -0.4040
 4783TIP3   OH235763   5.309   0.406  14.322  0.1674  0.3729  0.2241
 4783TIP3    H135764   5.290   0.497  14.298  1.1931  0.9163  1.3873
 4783TIP3    H235765   5.397   0.409  14.358 -0.3668 -0.8098  1.7325
 4784TIP3   OH235766   0.020   5.621   3.657  0.0392 -0.1051 -0.2211
 4784TIP3    H135767  -0.007   5.710   3.679  0.2108 -0.4105  1.3789
 4784TIP3    H235768   0.100   5.632   3.606  1.4162  0.6781  1.9431
 4785TIP3   OH235769   4.273   5.892  16.495 -0.9051 -0.9151 -0.1304
 4785TIP3    H135770   4.362   5.906  16.462 -0.7871  2.0689  1.0744
 4785TIP3    H235771   4.252   5.973  16.542 -3.9514 -1.8588  0.3863
 4786TIP3   OH235772   2.337   3.678   0.053 -0.0103  0.0305 -0.5410
 4786TIP3    H135773   2.291   3.731  -0.012 -1.0456 -0.3442 -0.1455
 4786TIP3    H235774   2.272   3.614   0.082  0.5914 -0.1580  0.4559
 4787TIP3   OH235775   3.778   4.165  13.130 -0.3689 -0.3003 -0.8060
 4787TIP3    H135776   3.693   4.182  13.171 -0.4769 -0.3013 -1.0300
 4787TIP3    H235777   3.786   4.233  13.063 -0.0203 -0.0587 -0.5290
 4788TIP3   OH235778   0.693   2.657   5.825 -0.4131  0.4061 -0.2719
 4788TIP3    H135779   0.614   2.658   5.880 -0.8230 -2.2341 -0.6714
 4788TIP3    H235780   0.659   2.652   5.736  0.2031 -0.4174 -0.4666
 4789TIP3   OH235781   3.360   5.576   1.291  0.2078 -0.2462 -0.0908
 4789TIP3    H135782   3.329   5.666   1.285 -0.4263 -0.5554 -3.2024
 4789TIP3    H235783   3.455   5.582   1.289  0.2219  0.3785  1.4138
 4790TIP3   OH235784   1.579   6.762   4.306  0.2488 -0.0882 -0.1699
 4790TIP3    H135785   1.560   6.825   4.375  0.5375  1.0204 -1.0718
 4790TIP3    H235786   1.669   6.733   4.323 -0.0022 -0.5338  0.4398
 4791TIP3   OH235787   3.133   2.389  14.151  0.1408 -0.0672 -0.0006
 4791TIP3    H135788   3.226   2.408  14.137  0.0567 -0.0184 -0.5006
 4791TIP3    H235789   3.092   2.474  14.160  0.2672 -0.1070  1.0621
 4792TIP3   OH235790   6.526   4.252   2.252  0.0089  0.0539  0.3820
 4792TIP3    H135791   6.520   4.185   2.184 -1.8753  2.0477 -1.5854
 4792TIP3    H235792   6.614   4.288   2.243  0.4576 -1.0219  0.3625
 4793TIP3   OH235793   1.141   5.420  14.348 -0.6592  1.1044 -0.2030
 4793TIP3    H135794   1.101   5.350  14.297 -0.1647  1.1579 -0.6748
 4793TIP3    H235795   1.185   5.475  14.283  1.5220  0.1772  0.4075
 4794TIP3   OH235796   5.193   3.269  17.168  0.0388 -0.3168 -0.1708
 4794TIP3    H135797   5.149   3.232  17.092  1.1742 -0.5123 -0.7603
 4794TIP3    H235798   5.190   3.200  17.234 -0.2706 -0.4299 -0.3018
 4795TIP3   OH235799   5.300   1.292  17.157 -0.3997  0.1312 -0.1949
 4795TIP3    H135800   5.216   1.331  17.180  0.8055  1.6931  1.9592
 4795TIP3    H235801   5.350   1.363  17.118  0.0169 -0.7383 -1.3197
 4796TIP3   OH235802   5.759   3.573  11.585  0.3282  0.5237 -0.0839
 4796TIP3    H135803   5.843   3.563  11.540  0.3782 -0.8314  0.2618
 4796TIP3    H235804   5.778   3.551  11.676 -0.3612  0.4100  0.0345
 4797TIP3   OH235805   2.815   6.232  15.453 -0.1403 -0.1321 -0.5191
 4797TIP3    H135806   2.759   6.218  15.529 -2.9678 -0.7788 -2.5531
 4797TIP3    H235807   2.894   6.271  15.489 -1.1608 -0.7464  2.7683
 4798TIP3   OH235808   5.762   2.412   1.474  0.1669 -0.5442  0.1140
 4798TIP3    H135809   5.711   2.448   1.547 -0.2981 -0.7242 -0.1166
 4798TIP3    H235810   5.706   2.343   1.438  0.1357 -0.0429 -0.8074
 4799TIP3   OH235811   5.995   6.288  12.024  0.1201 -0.2329 -0.3653
 4799TIP3    H135812   6.038   6.363  11.983  2.1543 -1.2593 -0.2476
 4799TIP3    H235813   5.902   6.309  12.022  0.5184  1.6113 -1.6825
 4800TIP3   OH235814   5.340   1.296  13.454 -0.3496 -0.5564 -0.3548
 4800TIP3    H135815   5.398   1.220  13.446 -0.8218 -0.8013 -1.5968
 4800TIP3    H235816   5.379   1.347  13.525  1.8898 -0.3021 -1.6440
 4801TIP3   OH235817   4.358   2.748   6.129  0.0359  0.0577  0.0334
 4801TIP3    H135818   4.306   2.750   6.209 -0.3062  1.4362 -0.1998
 4801TIP3    H235819   4.435   2.801   6.149 -1.0073  2.1139 -1.1544
 4802TIP3   OH235820   0.392   0.174  12.632  0.3807 -0.6951  0.1423
 4802TIP3    H135821   0.310   0.153  12.587  0.8778  1.8462 -2.2367
 4802TIP3    H235822   0.459   0.127  12.583  0.4761 -2.3492  1.7617
 4803TIP3   OH235823   4.354   2.852  11.242 -0.1831  0.2444 -0.3074
 4803TIP3    H135824   4.278   2.799  11.221  0.6669 -1.3208  0.4151
 4803TIP3    H235825   4.359   2.851  11.337  0.0097  1.4349 -0.2807
 4804TIP3   OH235826   1.752   4.103  15.109 -0.2771  0.4911 -0.3207
 4804TIP3    H135827   1.766   4.026  15.164 -0.7053 -0.1887 -1.1439
 4804TIP3    H235828   1.784   4.078  15.023  2.0223  2.1352 -0.0479
 4805TIP3   OH235829   3.221   1.080  14.995  0.5748  0.0528 -0.0125
 4805TIP3    H135830   3.204   1.119  15.081 -1.6123 -0.4897 -0.1402
 4805TIP3    H235831   3.170   1.132  14.934 -2.7024 -2.9693 -0.1632
 4806TIP3   OH235832   6.710   2.943   0.021 -0.5178 -0.1595  0.0462
 4806TIP3    H135833   6.700   3.025  -0.028 -0.7161  0.0659  0.4557
 4806TIP3    H235834   6.620   2.912   0.034 -0.4090 -1.0583 -1.1115
 4807TIP3   OH235835   3.254   6.218   3.737 -0.4053  0.0778 -0.2084
 4807TIP3    H135836   3.258   6.184   3.826 -0.1974  0.3114 -0.1283
 4807TIP3    H235837   3.282   6.309   3.744  2.9588 -0.7553 -0.9456
 4808TIP3   OH235838   4.407   6.104  13.388 -0.8073 -0.2636 -0.5553
 4808TIP3    H135839   4.355   6.035  13.347  1.9680 -2.4457 -0.7528
 4808TIP3    H235840   4.387   6.096  13.482 -1.7359 -0.1826 -0.7378
 4809TIP3   OH235841   4.909   4.903   0.575  0.1700  0.3402 -0.4067
 4809TIP3    H135842   4.884   4.975   0.518  0.3304  0.3469 -0.4698
 4809TIP3    H235843   4.844   4.834   0.558 -0.1152  0.5519 -0.1809
 4810TIP3   OH235844   4.050   2.151   2.311  0.0716 -0.0226 -0.4977
 4810TIP3    H135845   4.011   2.227   2.354 -0.4283 -0.0988 -0.8012
 4810TIP3    H235846   4.038   2.079   2.373 -0.1474 -0.0123 -0.5252
 4811TIP3   OH235847   2.968   6.473   5.093  0.2475 -0.2448  0.0407
 4811TIP3    H135848   2.958   6.422   5.012 -1.9126  0.7883 -0.4240
 4811TIP3    H235849   2.920   6.422   5.159  0.6753 -0.3138  0.2991
 4812TIP3   OH235850   1.806   0.202   1.605 -0.0172  0.3464  0.0054
 4812TIP3    H135851   1.753   0.167   1.677 -0.9631  0.9780 -0.3697
 4812TIP3    H235852   1.742   0.228   1.539  0.7422  1.5498 -0.2739
 4813TIP3   OH235853   0.819   3.034  13.707  0.3463  0.0780 -0.1596
 4813TIP3    H135854   0.747   3.081  13.665 -0.3641 -0.2646  0.6504
 4813TIP3    H235855   0.782   3.002  13.789  1.6693  0.6801  0.7136
 4814TIP3   OH235856   0.855   4.490   4.477  0.1725  0.0640  0.5179
 4814TIP3    H135857   0.865   4.428   4.405  0.3079 -0.9947  1.4265
 4814TIP3    H235858   0.768   4.528   4.463  0.3176  0.0860 -0.3670
 4815TIP3   OH235859   6.610   4.217   3.992  0.4853 -0.5403 -0.1244
 4815TIP3    H135860   6.675   4.283   3.966  1.3119 -1.2793  0.0048
 4815TIP3    H235861   6.639   4.189   4.079 -2.5775  2.3772  2.1024
 4816TIP3   OH235862   0.175   2.509   0.396 -0.6812  0.1724  0.7701
 4816TIP3    H135863   0.105   2.550   0.446  1.7789  1.8262  3.1077
 4816TIP3    H235864   0.137   2.497   0.309 -4.1483  0.0350  2.1256
 4817TIP3   OH235865   1.190   6.510  13.765 -0.0197  0.2712 -0.3461
 4817TIP3    H135866   1.275   6.552  13.778  1.4677 -1.2990 -3.6883
 4817TIP3    H235867   1.134   6.579  13.730  0.3085  0.9999  0.5450
 4818TIP3   OH235868   6.503   5.673  15.744 -0.1285  0.0943  0.2383
 4818TIP3    H135869   6.585   5.687  15.698  0.4518  2.0240  1.7157
 4818TIP3    H235870   6.524   5.689  15.836 -1.9759 -0.2490  0.7641
 4819TIP3   OH235871   0.450   4.114  14.134  0.2781 -0.5746 -0.1447
 4819TIP3    H135872   0.536   4.132  14.170  0.8640  0.2995 -1.8891
 4819TIP3    H235873   0.448   4.159  14.050 -2.6340  1.1738  0.6906
 4820TIP3   OH235874   6.458   4.547  15.866  0.0161 -0.0689  0.0595
 4820TIP3    H135875   6.444   4.453  15.858 -1.7355  0.1145  0.5894
 4820TIP3    H235876   6.482   4.575  15.777 -0.1654 -0.9023 -0.2605
 4821TIP3   OH235877   6.642   0.881  12.039 -0.1840 -0.2639 -0.0107
 4821TIP3    H135878   6.727   0.859  12.076 -0.4832 -1.4023  0.0466
 4821TIP3    H235879   6.631   0.974  12.056  1.7807  0.3023 -1.5031
 4822TIP3   OH235880   2.350   4.103  10.800 -0.0549  0.1452  0.0012
 4822TIP3    H135881   2.408   4.111  10.725  1.2220 -3.9126  0.3033
 4822TIP3    H235882   2.307   4.018  10.788 -2.2062  0.7631  2.3315
 4823TIP3   OH235883   3.841   5.084   4.633 -0.0872  0.0260  0.1582
 4823TIP3    H135884   3.849   4.998   4.594  0.4440  0.5363 -0.8895
 4823TIP3    H235885   3.790   5.070   4.713  0.3942 -1.3140  0.2403
 4824TIP3   OH235886   3.633   0.784   0.660 -0.6657 -0.8071 -0.3555
 4824TIP3    H135887   3.577   0.737   0.722  0.4041  1.1004  2.2181
 4824TIP3    H235888   3.580   0.792   0.581 -2.4802 -2.4795  0.6087
 4825TIP3   OH235889   3.932   4.279   4.490  0.1643 -0.6402  0.6049
 4825TIP3    H135890   3.980   4.360   4.504  1.1599 -1.2072  0.6137
 4825TIP3    H235891   3.883   4.266   4.571 -2.6611  1.6071 -0.5641
 4826TIP3   OH235892   5.264   6.308  10.434  0.0347 -0.7811 -0.6821
 4826TIP3    H135893   5.198   6.311  10.365 -0.2076 -1.3728 -0.4765
 4826TIP3    H235894   5.220   6.268  10.509  0.3792 -0.4072 -0.2728
 4827TIP3   OH235895   4.465   5.838  12.624 -0.2005 -0.2125  0.4648
 4827TIP3    H135896   4.439   5.746  12.610 -1.6944 -0.1474  2.4279
 4827TIP3    H235897   4.517   5.836  12.704  0.7166  0.5368 -0.0990
 4828TIP3   OH235898   3.751   5.686  16.206 -0.3372 -0.3039 -0.2191
 4828TIP3    H135899   3.764   5.727  16.120  0.4386 -1.0360 -0.4656
 4828TIP3    H235900   3.801   5.740  16.267 -2.1561  1.1502  0.0726
 4829TIP3   OH235901   2.331   6.290   0.653  0.1586 -0.2884  0.2690
 4829TIP3    H135902   2.326   6.226   0.724  0.8127 -0.6251  0.0191
 4829TIP3    H235903   2.239   6.312   0.634 -0.0138  0.0913  1.4600
 4830TIP3   OH235904   6.503   3.762   2.080 -0.4990  0.7683  0.4182
 4830TIP3    H135905   6.529   3.762   1.988 -1.0206 -0.6082  0.2332
 4830TIP3    H235906   6.563   3.700   2.122 -1.8335 -0.5643  0.4668
 4831TIP3   OH235907   4.168   0.735   4.980  0.0828  0.1000 -0.5773
 4831TIP3    H135908   4.089   0.729   4.926  0.0243 -4.3958 -0.3661
 4831TIP3    H235909   4.240   0.732   4.916  0.0753  0.6164 -0.6143
 4832TIP3   OH235910   0.859   5.414  16.894  0.6742  0.1145  0.3816
 4832TIP3    H135911   0.806   5.381  16.821  0.9279 -1.2131  0.7768
 4832TIP3    H235912   0.799   5.469  16.944 -0.0780 -0.6104  0.2970
 4833TIP3   OH235913   2.911   2.289  12.054  0.0613  0.3462  0.1871
 4833TIP3    H135914   2.850   2.356  12.083  1.0850  1.0313  0.8065
 4833TIP3    H235915   2.947   2.322  11.972 -1.0148 -0.4618 -0.6425
 4834TIP3   OH235916   5.927   3.852  15.700 -0.2840 -0.0664 -0.7334
 4834TIP3    H135917   5.939   3.940  15.737  1.9562 -1.1880  1.5901
 4834TIP3    H235918   5.873   3.807  15.764  1.4210 -1.2796 -0.0552
 4835TIP3   OH235919   0.829   3.700  11.613 -0.1578  0.0221  0.1510
 4835TIP3    H135920   0.867   3.729  11.531  0.3586 -0.9200  0.0411
 4835TIP3    H235921   0.775   3.773  11.642  0.8641  0.9611 -0.2461
 4836TIP3   OH235922   1.457   2.200  16.991 -0.6943 -0.2228  0.9471
 4836TIP3    H135923   1.545   2.195  17.027 -0.1825 -0.2278 -0.2599
 4836TIP3    H235924   1.402   2.155  17.055  0.3133 -0.9789  1.2985
 4837TIP3   OH235925   1.528   3.891  12.936 -0.3074  0.5820  0.0165
 4837TIP3    H135926   1.578   3.936  12.869 -0.2835  0.9546  0.2808
 4837TIP3    H235927   1.577   3.811  12.954  0.7034  1.3788  0.9331
 4838TIP3   OH235928   5.816   3.664  12.174  0.3137 -0.5361  0.2340
 4838TIP3    H135929   5.736   3.622  12.203 -0.0378  0.1193  0.2358
 4838TIP3    H235930   5.796   3.758  12.176  0.2735 -0.4332 -2.0871
 4839TIP3   OH235931   0.090   4.940  12.246 -0.3800  0.2986  0.5597
 4839TIP3    H135932   0.132   4.877  12.188  1.3884  0.6734  1.3507
 4839TIP3    H235933   0.039   4.886  12.307  0.0317 -0.2840  0.3984
 4840TIP3   OH235934   3.745   3.842   1.872 -0.5017  0.5409  0.0032
 4840TIP3    H135935   3.760   3.820   1.964  2.4532  1.0916 -0.2415
 4840TIP3    H235936   3.782   3.769   1.823 -1.7426  0.4053 -0.7847
 4841TIP3   OH235937   2.428   5.835  15.566 -0.6733  0.0298 -0.7044
 4841TIP3    H135938   2.355   5.817  15.626  0.5261  0.8091  1.0727
 4841TIP3    H235939   2.445   5.751  15.524 -2.5548 -0.1785 -1.1560
 4842TIP3   OH235940   1.825   5.067   3.845  0.0320  0.3524  0.0066
 4842TIP3    H135941   1.786   5.154   3.851  1.4817  1.1032 -0.8722
 4842TIP3    H235942   1.828   5.049   3.751  1.2326  0.0725  0.0884
 4843TIP3   OH235943   2.500   4.677   1.572 -0.5890  0.3484 -0.0195
 4843TIP3    H135944   2.492   4.632   1.488  0.7140 -0.6209  0.3389
 4843TIP3    H235945   2.420   4.654   1.619  0.2062 -2.0782  0.3238
 4844TIP3   OH235946   5.531   1.565   2.596 -0.3303 -0.1833 -0.0902
 4844TIP3    H135947   5.503   1.598   2.511 -0.6782  0.6612  0.3419
 4844TIP3    H235948   5.560   1.643   2.643  2.4799 -0.9487 -0.3877
 4845TIP3   OH235949   1.309   5.030   2.095 -0.6076 -0.4811  0.7408
 4845TIP3    H135950   1.305   4.939   2.122  0.8061 -1.1715 -1.1690
 4845TIP3    H235951   1.391   5.062   2.133 -1.1376  0.0466  1.4716
 4846TIP3   OH235952   1.442   4.783   3.570  0.1810  0.4785  0.0042
 4846TIP3    H135953   1.434   4.818   3.481 -3.0111 -0.1592 -0.0855
 4846TIP3    H235954   1.445   4.860   3.626 -2.0815  1.0092 -0.4814
 4847TIP3   OH235955   0.203   0.635   1.307  0.0621 -0.0587 -0.1425
 4847TIP3    H135956   0.142   0.623   1.234  0.1281  0.2295 -0.2458
 4847TIP3    H235957   0.287   0.654   1.265  0.6451 -2.1342 -0.0675
 4848TIP3   OH235958   4.764   5.269  14.153 -0.2644 -0.1778  0.3078
 4848TIP3    H135959   4.687   5.326  14.161  1.9424  3.3602 -1.0782
 4848TIP3    H235960   4.822   5.300  14.222  0.3994 -2.0378  0.6266
 4849TIP3   OH235961   0.032   2.801  12.689 -0.0085 -0.2078 -0.0664
 4849TIP3    H135962  -0.028   2.871  12.661 -0.6952 -0.6281  0.3272
 4849TIP3    H235963   0.055   2.755  12.609  3.6621  2.8524 -1.0363
 4850TIP3   OH235964   3.378   1.321   1.819  0.3039 -0.0103 -0.0420
 4850TIP3    H135965   3.336   1.258   1.760  0.4934  0.0439 -0.2382
 4850TIP3    H235966   3.340   1.405   1.796  1.1521  0.1800 -0.8411
 4851TIP3   OH235967   0.708   1.636  15.137  0.7408  0.1022  0.4450
 4851TIP3    H135968   0.726   1.555  15.184  0.8661 -1.0731 -1.5286
 4851TIP3    H235969   0.786   1.690  15.153  0.4391  0.0915  2.1873
 4852TIP3   OH235970   3.420   3.310  10.837 -0.2581 -0.1660  0.1225
 4852TIP3    H135971   3.458   3.294  10.923 -0.2368  1.9279  0.5513
 4852TIP3    H235972   3.329   3.283  10.846  0.4868 -3.1335 -0.2633
 4853TIP3   OH235973   6.359   2.758   0.333  0.1164  0.0390 -0.4917
 4853TIP3    H135974   6.271   2.794   0.329 -0.4256 -0.8121  2.0589
 4853TIP3    H235975   6.357   2.682   0.275 -0.4917  0.6072 -1.2382
 4854TIP3   OH235976   4.465   5.927   4.323 -0.2490 -0.4467  0.6657
 4854TIP3    H135977   4.488   5.834   4.320 -0.4765 -0.5409 -3.0300
 4854TIP3    H235978   4.549   5.972   4.324 -0.1088 -0.7001  0.4335
 4855TIP3   OH235979   2.223   0.773   3.708  0.1594 -0.1562  0.2049
 4855TIP3    H135980   2.203   0.714   3.636 -0.9556  0.2624  0.1566
 4855TIP3    H235981   2.181   0.856   3.684  1.0168  0.4309  0.6469
 4856TIP3   OH235982   0.005   6.146   3.020  0.2280 -0.1061 -0.0122
 4856TIP3    H135983  -0.063   6.096   2.975  0.6562  0.2781 -1.1003
 4856TIP3    H235984   0.079   6.086   3.026 -0.5517 -0.9840  2.3129
 4857TIP3   OH235985   4.534   2.249  16.552 -0.6817 -0.3276 -0.3882
 4857TIP3    H135986   4.467   2.288  16.608 -2.9115 -1.3528 -2.1620
 4857TIP3    H235987   4.567   2.174  16.601 -1.4051 -0.2668  0.1976
 4858TIP3   OH235988   1.808   5.286  12.653 -0.0245  0.5559 -0.5342
 4858TIP3    H135989   1.868   5.312  12.583  0.0555 -1.7408 -1.3994
 4858TIP3    H235990   1.808   5.190  12.650 -0.5312  0.3929  2.1995
 4859TIP3   OH235991   4.556   2.289   5.362  0.2028 -0.2030 -0.5020
 4859TIP3    H135992   4.493   2.217   5.365 -0.4968  0.3752 -1.0208
 4859TIP3    H235993   4.609   2.278   5.441  1.0232 -2.1017 -1.2492
 4860TIP3   OH235994   1.106   3.953   5.890 -0.6809 -0.3880  0.3804
 4860TIP3    H135995   1.159   3.950   5.970  0.7313  0.8390 -0.4456
 4860TIP3    H235996   1.156   3.903   5.826  0.0881  1.6171 -0.6926
 4861TIP3   OH235997   0.882   4.982   2.467 -0.1943  0.8051  0.2813
 4861TIP3    H135998   0.838   5.026   2.394  1.3661 -0.8841 -1.7886
 4861TIP3    H235999   0.810   4.945   2.518 -1.3144  1.2410 -0.8976
 4862TIP3   OH236000   5.047   4.276   2.459  0.4965 -0.0381  0.5403
 4862TIP3    H136001   4.962   4.276   2.415  0.3611  1.4306  0.7726
 4862TIP3    H236002   5.067   4.183   2.472 -0.2327 -0.4493 -1.1071
 4863TIP3   OH236003   3.290   3.217   7.015 -0.3154  0.2582  0.7033
 4863TIP3    H136004   3.311   3.311   7.014 -1.8675  0.6666 -1.9475
 4863TIP3    H236005   3.305   3.188   6.925 -0.0166 -2.0495  1.4236
 4864TIP3   OH236006   1.137   6.437  11.239  0.4216 -0.3676 -0.0858
 4864TIP3    H136007   1.125   6.473  11.151  0.0074  0.9295  0.4773
 4864TIP3    H236008   1.224   6.468  11.265 -0.5388  1.5964  0.9898
 4865TIP3   OH236009   2.775   2.024  12.796 -0.2990  0.0906  0.1370
 4865TIP3    H136010   2.844   1.971  12.755 -1.5734 -1.0870 -0.5788
 4865TIP3    H236011   2.756   1.980  12.879 -0.4643  0.1644  0.1395
 4866TIP3   OH236012   4.759   5.566   0.473  0.4287 -0.5137 -0.0805
 4866TIP3    H136013   4.718   5.488   0.510  1.5446 -1.9672 -1.7639
 4866TIP3    H236014   4.703   5.592   0.401  2.3853 -2.6651 -2.5608
 4867TIP3   OH236015   3.854   5.668  12.431  0.0753  0.1955  0.1422
 4867TIP3    H136016   3.937   5.716  12.437  0.2652  0.0233 -0.8772
 4867TIP3    H236017   3.835   5.665  12.338 -1.2826  0.5437  0.3966
 4868TIP3   OH236018   6.192   5.446   0.324  0.3219  0.2928  0.1944
 4868TIP3    H136019   6.237   5.362   0.326  0.8266  0.3235 -3.2120
 4868TIP3    H236020   6.105   5.426   0.289  0.8126  1.2165 -1.6944
 4869TIP3   OH236021   2.571   0.707   4.556 -0.4398 -0.1415  0.3069
 4869TIP3    H136022   2.615   0.679   4.636  1.2806 -1.1026 -0.9162
 4869TIP3    H236023   2.587   0.636   4.493  0.3376  1.6130 -1.6155
 4870TIP3   OH236024   6.640   6.766   3.613 -0.0514  0.2434 -0.5543
 4870TIP3    H136025   6.557   6.807   3.637  0.3983  0.2139  1.1708
 4870TIP3    H236026   6.674   6.731   3.695  1.2191 -0.5914 -1.4010
 4871TIP3   OH236027   3.893   5.794   2.908 -0.1754 -0.2348 -0.3284
 4871TIP3    H136028   3.881   5.874   2.959 -1.9234 -0.3945 -0.4358
 4871TIP3    H236029   3.879   5.821   2.817  1.6018 -0.2173 -0.6287
 4872TIP3   OH236030   3.364   6.395   5.253 -0.1020  0.2997 -0.1813
 4872TIP3    H136031   3.437   6.351   5.298 -0.1166 -0.5251 -0.9491
 4872TIP3    H236032   3.312   6.433   5.324  1.1264  0.9990  0.3736
 4873TIP3   OH236033   2.469   2.271  11.446  0.1543 -0.1312 -0.1332
 4873TIP3    H136034   2.559   2.287  11.474  0.0489 -0.0863  0.1782
 4873TIP3    H236035   2.415   2.319  11.509 -0.0695  0.3062 -0.6478
 4874TIP3   OH236036   4.002   1.153   2.951 -0.3714  0.1180 -0.7024
 4874TIP3    H136037   4.054   1.191   3.023 -0.3901 -1.2790  0.0797
 4874TIP3    H236038   3.944   1.224   2.924 -0.9696  0.4334  1.2583
 4875TIP3   OH236039   2.318   6.554   3.759 -0.3713  0.5405 -0.4879
 4875TIP3    H136040   2.273   6.480   3.718  0.0241  0.2010 -0.3137
 4875TIP3    H236041   2.334   6.525   3.849  0.4126  0.5653 -0.6164
 4876TIP3   OH236042   3.038   0.965   0.130 -0.0820 -0.5907 -0.1878
 4876TIP3    H136043   3.121   0.975   0.084  0.4894 -1.7882  0.5311
 4876TIP3    H236044   3.063   0.940   0.219 -1.1720  0.8806  0.5771
 4877TIP3   OH236045   6.572   4.166   4.933 -0.1716 -0.3480  0.4301
 4877TIP3    H136046   6.559   4.258   4.909 -0.7975 -1.1927 -3.0515
 4877TIP3    H236047   6.483   4.132   4.945 -0.1775 -1.1001 -1.3489
 4878TIP3   OH236048   3.061   6.177   3.470  0.1520  0.5076  0.1393
 4878TIP3    H136049   3.118   6.101   3.482 -0.1035 -0.0168 -1.6913
 4878TIP3    H236050   3.116   6.241   3.425 -0.4403  0.2919 -0.9263
 4879TIP3   OH236051   2.616   5.557   1.194  0.3698  0.1687 -0.1427
 4879TIP3    H136052   2.694   5.579   1.245 -1.0157  1.6128  1.4788
 4879TIP3    H236053   2.543   5.590   1.246 -1.4163 -1.8152 -1.2221
 4880TIP3   OH236054   0.569   1.119   0.033 -0.2567  0.5219  0.4814
 4880TIP3    H136055   0.561   1.024   0.021  0.8287  0.2634  1.5816
 4880TIP3    H236056   0.587   1.130   0.126  1.4946  1.6485  0.0697
 4881TIP3   OH236057   6.155   1.687   1.191 -0.0577  0.2463  0.6072
 4881TIP3    H136058   6.113   1.768   1.220 -0.5790  1.3819 -2.8482
 4881TIP3    H236059   6.248   1.710   1.185 -0.2564  0.7982 -0.7695
 4882TIP3   OH236060   5.926   6.591  15.809 -0.0761 -0.4698  0.0215
 4882TIP3    H136061   5.993   6.642  15.764 -0.1078 -0.8612 -0.4777
 4882TIP3    H236062   5.948   6.599  15.902  0.4582 -0.3092 -0.1171
 4883TIP3   OH236063   1.707   2.394  11.107  0.1723  0.1886 -0.3750
 4883TIP3    H136064   1.684   2.478  11.066  0.1139  0.6592  0.5963
 4883TIP3    H236065   1.685   2.329  11.041 -0.2629  0.9026 -0.9553
 4884TIP3   OH236066   2.962   6.664  10.985 -0.2437 -0.0076 -0.3172
 4884TIP3    H136067   3.049   6.705  10.982  0.1912 -0.7434  1.2404
 4884TIP3    H236068   2.975   6.579  10.941  0.5057 -1.1981  2.0521
 4885TIP3   OH236069   2.268   6.194  13.253  0.3641 -0.4652 -0.3099
 4885TIP3    H136070   2.175   6.190  13.274  0.3434 -1.5214 -0.5125
 4885TIP3    H236071   2.287   6.109  13.212  1.6133 -0.6650  0.5949
 4886TIP3   OH236072   3.400   3.317   3.344  0.8043  0.7729  0.6547
 4886TIP3    H136073   3.354   3.283   3.267  1.2899  0.0666  0.6566
 4886TIP3    H236074   3.375   3.409   3.349 -0.0899  0.5586  0.2892
 4887TIP3   OH236075   6.673   0.999   0.195 -0.4000  0.4342 -0.4146
 4887TIP3    H136076   6.745   1.041   0.148  0.5318 -1.1640 -0.5134
 4887TIP3    H236077   6.695   0.906   0.193 -3.2574 -0.3209 -1.7743
 4888TIP3   OH236078   5.153   6.660  12.015 -0.0041 -0.3846  0.1085
 4888TIP3    H136079   5.188   6.574  11.989 -2.0865 -1.1560 -0.4207
 4888TIP3    H236080   5.070   6.667  11.966 -0.3080  1.5505  0.8253
 4889TIP3   OH236081   6.253   0.783   3.009  0.1741  0.4755  0.3458
 4889TIP3    H136082   6.235   0.732   3.088  0.6100  2.1999  1.6212
 4889TIP3    H236083   6.315   0.729   2.959 -0.3651 -0.7854  1.0054
 4890TIP3   OH236084   0.166   1.568  17.270 -0.2796  0.3935  0.5127
 4890TIP3    H136085   0.100   1.619  17.224 -0.6259 -1.0372 -0.6447
 4890TIP3    H236086   0.199   1.507  17.205  1.0068 -0.0421  1.5236
 4891TIP3   OH236087   1.695   1.455  15.729 -0.5477  0.0766  0.0038
 4891TIP3    H136088   1.702   1.510  15.650 -1.2277  0.7718  0.4068
 4891TIP3    H236089   1.780   1.412  15.736 -1.1695 -1.8017 -2.3994
 4892TIP3   OH236090   2.454   1.098  13.334 -0.5181 -0.2159  0.2505
 4892TIP3    H136091   2.526   1.121  13.393 -1.0509  1.0970  0.4144
 4892TIP3    H236092   2.437   1.178  13.285 -0.3327 -1.1733 -1.4432
 4893TIP3   OH236093   5.830   2.410   5.626 -0.7154  0.0805 -0.1628
 4893TIP3    H136094   5.769   2.448   5.688  0.4746  2.5881 -0.3964
 4893TIP3    H236095   5.859   2.483   5.571  1.4433 -1.2239 -0.9435
 4894TIP3   OH236096   0.273   6.621  16.983  0.3145 -0.0624  0.0804
 4894TIP3    H136097   0.202   6.672  16.944 -0.3420 -0.6073  0.5372
 4894TIP3    H236098   0.249   6.530  16.963 -0.5309 -0.4292  2.5105
 4895TIP3   OH236099   6.013   4.114  14.694 -0.3284 -0.0882 -0.2938
 4895TIP3    H136100   5.985   4.153  14.777 -1.1475 -0.6557 -0.2864
 4895TIP3    H236101   6.094   4.159  14.672 -0.9600  1.2390 -0.0314
 4896TIP3   OH236102   1.510   3.416   0.033  0.4161  0.2615  0.0271
 4896TIP3    H136103   1.597   3.385   0.056 -0.0785 -0.0790  1.6070
 4896TIP3    H236104   1.484   3.472   0.107 -0.4821  0.7943 -0.6667
 4897TIP3   OH236105   2.488   2.255  16.289 -0.6888  0.1815 -0.1981
 4897TIP3    H136106   2.465   2.265  16.381 -0.5287  1.1440 -0.2460
 4897TIP3    H236107   2.515   2.164  16.280 -3.0451 -0.6144  0.1552
 4898TIP3   OH236108   0.034   1.090   3.778  0.2213 -0.3500  0.4257
 4898TIP3    H136109   0.029   1.171   3.830 -0.2431  0.0084 -0.1625
 4898TIP3    H236110   0.115   1.097   3.729  0.5039 -0.5445  0.8568
 4899TIP3   OH236111   0.247   5.685   2.972  0.1636  0.3900 -0.3287
 4899TIP3    H136112   0.184   5.621   2.941  0.4383  0.3375 -0.7962
 4899TIP3    H236113   0.229   5.764   2.920 -0.0591  0.6413  0.1201
 4900TIP3   OH236114   1.208   1.118   4.079 -0.1487  0.0430  0.1957
 4900TIP3    H136115   1.287   1.063   4.077 -0.8703 -0.9999 -0.2306
 4900TIP3    H236116   1.217   1.168   4.161  1.4311  0.6926 -0.3257
 4901TIP3   OH236117   1.868   0.717  12.805  0.2482 -0.6549 -0.4227
 4901TIP3    H136118   1.939   0.654  12.815 -0.6958 -2.0337 -1.9450
 4901TIP3    H236119   1.844   0.712  12.713 -1.3097  0.3634 -0.1186
 4902TIP3   OH236120   0.886   1.054   2.632  0.2141  0.0144 -0.0670
 4902TIP3    H136121   0.977   1.051   2.663 -0.0940 -1.1887  0.7660
 4902TIP3    H236122   0.880   0.982   2.569 -0.2824 -0.1856  0.2098
 4903TIP3   OH236123   3.302   4.400  16.660 -0.3811 -0.5457 -1.2003
 4903TIP3    H136124   3.258   4.416  16.576  0.5851  1.3242 -1.4062
 4903TIP3    H236125   3.231   4.390  16.723 -1.1571  0.7813 -1.8026
 4904TIP3   OH236126   5.418   1.867   3.549  0.4782  0.4280  0.4472
 4904TIP3    H136127   5.335   1.914   3.547 -0.0838 -0.5776 -0.0806
 4904TIP3    H236128   5.471   1.908   3.481  0.1355  0.5519  0.2561
 4905TIP3   OH236129   1.847   6.403   4.074  0.5301 -0.0056 -0.6461
 4905TIP3    H136130   1.875   6.466   4.007 -0.6825  0.2089 -0.9736
 4905TIP3    H236131   1.756   6.426   4.091  0.7608 -0.1846  0.9466
 4906TIP3   OH236132   3.968   4.428   2.175  0.0447  0.9070  0.0286
 4906TIP3    H136133   3.997   4.387   2.094  0.1106  1.5702 -0.2939
 4906TIP3    H236134   3.931   4.357   2.227 -0.0256  0.4822 -0.5984
 4907TIP3   OH236135   3.342   0.700  12.795 -0.2793 -0.2453 -0.3409
 4907TIP3    H136136   3.266   0.673  12.744 -0.2939 -1.6214  0.3539
 4907TIP3    H236137   3.409   0.720  12.729 -0.6341 -0.9382 -0.9334
 4908TIP3   OH236138   6.460   6.489  13.414  0.6813  0.1692 -0.0453
 4908TIP3    H136139   6.542   6.497  13.463  0.4332  1.5114  0.1891
 4908TIP3    H236140   6.392   6.504  13.480  0.2915  0.3785 -0.4928
 4909TIP3   OH236141   0.520   5.087  11.087 -0.2384  0.5418 -0.4877
 4909TIP3    H136142   0.574   5.158  11.052 -1.5594  1.9492  0.2284
 4909TIP3    H236143   0.503   5.111  11.177 -0.9137 -0.5921 -0.2904
 4910TIP3   OH236144   2.671   2.856  11.953 -0.2844 -0.3328  0.3461
 4910TIP3    H136145   2.601   2.904  11.909 -1.4932 -0.5720  1.8999
 4910TIP3    H236146   2.712   2.921  12.011  0.4209 -0.3437 -0.1204
 4911TIP3   OH236147   3.122   5.129   4.687 -0.3773 -0.1961 -0.1411
 4911TIP3    H136148   3.207   5.143   4.728  0.4719  1.4062 -2.2980
 4911TIP3    H236149   3.137   5.060   4.623 -0.3229  1.0519 -1.5061
 4912TIP3   OH236150   3.791   4.698  13.393  0.1301  0.0498  0.1203
 4912TIP3    H136151   3.852   4.746  13.450 -1.0554  0.3575  1.1763
 4912TIP3    H236152   3.723   4.666  13.452 -0.1283 -1.2927 -0.8653
 4913TIP3   OH236153   1.808   1.033  13.880 -0.2441  0.3254 -0.3902
 4913TIP3    H136154   1.758   0.962  13.839  1.0782 -1.2235  0.5332
 4913TIP3    H236155   1.899   1.015  13.855  0.3006  0.7421  1.1733
 4914TIP3   OH236156   4.812   5.235   1.818 -0.4682 -0.4512 -0.0519
 4914TIP3    H136157   4.811   5.324   1.784 -0.7990 -0.4597 -0.0593
 4914TIP3    H236158   4.901   5.204   1.798  0.1981  0.4270  1.4116
 4915TIP3   OH236159   4.882   2.908  10.785 -0.4890  0.3986 -0.1151
 4915TIP3    H136160   4.937   2.986  10.793 -1.2972  1.1575 -1.4970
 4915TIP3    H236161   4.941   2.841  10.749 -0.2914  1.0158 -0.9830
 4916TIP3   OH236162   5.325   6.492   1.750  0.1380 -0.2432  0.2347
 4916TIP3    H136163   5.288   6.408   1.779 -2.1301 -0.3106 -2.4228
 4916TIP3    H236164   5.357   6.475   1.662 -1.1143  1.8244 -0.6877
 4917TIP3   OH236165   4.549   6.340  13.294 -0.8886  0.2812  0.0551
 4917TIP3    H136166   4.532   6.407  13.361  0.5817 -0.8657  1.6591
 4917TIP3    H236167   4.495   6.265  13.322 -0.1137 -0.2711  0.0926
 4918TIP3   OH236168   4.511   2.917   4.665  0.0752  0.8603 -0.0639
 4918TIP3    H136169   4.453   2.966   4.723  1.5317  1.2024  1.1564
 4918TIP3    H236170   4.523   2.833   4.707  0.3030  0.7097 -0.4205
 4919TIP3   OH236171   0.901   5.919   3.247 -0.0359 -0.3772 -0.0374
 4919TIP3    H136172   0.973   5.939   3.186  0.4430 -2.5538 -0.3023
 4919TIP3    H236173   0.900   5.992   3.309  3.4093 -0.9088  0.8495
 4920TIP3   OH236174   3.918   5.247   3.433  0.6183 -0.0586 -0.1126
 4920TIP3    H136175   3.836   5.205   3.458  0.6391 -0.9699 -1.4884
 4920TIP3    H236176   3.912   5.335   3.470 -0.1087 -0.7269  1.4846
 4921TIP3   OH236177   0.891   0.042  11.310 -0.4519  0.4885 -0.2809
 4921TIP3    H136178   0.889  -0.012  11.232  0.3983 -1.0343  0.7062
 4921TIP3    H236179   0.966   0.101  11.298 -0.3975  0.3404 -0.6598
 4922TIP3   OH236180   5.835   5.094  12.961  0.4408  0.0646 -0.2668
 4922TIP3    H136181   5.836   5.127  13.051 -1.8909 -0.5574  0.0678
 4922TIP3    H236182   5.838   4.999  12.971 -1.6269 -0.0878 -0.6933
 4923TIP3   OH236183   4.105   1.432   2.942  0.6553 -0.0446 -0.3770
 4923TIP3    H136184   4.147   1.413   2.858  1.0422 -2.2351  0.2572
 4923TIP3    H236185   4.175   1.421   3.006 -0.4185 -1.8742  0.5295
 4924TIP3   OH236186   5.752   6.217  15.071  0.0986 -0.3099  0.3939
 4924TIP3    H136187   5.835   6.212  15.023 -0.5178 -1.9651 -0.6027
 4924TIP3    H236188   5.685   6.200  15.004 -1.0780  1.1187  1.1524
 4925TIP3   OH236189   4.953   2.494   5.785  0.0418  0.5228 -0.0825
 4925TIP3    H136190   4.954   2.574   5.734 -3.1755  1.1320  0.6017
 4925TIP3    H236191   5.010   2.512   5.860 -0.5245  2.1450 -0.0086
 4926TIP3   OH236192   4.208   1.609   5.699  0.5347  0.0452  0.2895
 4926TIP3    H136193   4.182   1.676   5.763 -1.2078 -0.8365  0.5810
 4926TIP3    H236194   4.303   1.610   5.700  0.5435  1.2784  1.5951
 4927TIP3   OH236195   5.021   0.672  12.354 -0.3308 -0.6336  0.2208
 4927TIP3    H136196   5.074   0.742  12.391  0.5385 -0.2029 -1.7264
 4927TIP3    H236197   5.027   0.601  12.418  2.6863 -0.6194  0.0640
 4928TIP3   OH236198   2.412   6.339   1.454  0.4666 -0.3034  0.1209
 4928TIP3    H136199   2.483   6.289   1.414 -0.1932  0.1688 -1.7198
 4928TIP3    H236200   2.332   6.300   1.419 -0.0992  1.0704 -0.2027
 4929TIP3   OH236201   0.318   4.699   3.964  0.0254  0.1873 -0.2633
 4929TIP3    H136202   0.275   4.684   4.048 -0.6218 -2.3590 -0.9650
 4929TIP3    H236203   0.400   4.743   3.986 -0.6927  0.7198  1.5479
 4930TIP3   OH236204   4.505   1.981  15.623 -0.2079  0.1591  0.0401
 4930TIP3    H136205   4.458   1.938  15.551  0.2983 -0.5454  0.1243
 4930TIP3    H236206   4.465   2.068  15.629 -1.2202 -0.2757 -0.1664
 4931TIP3   OH236207   2.257   2.087   5.531  0.4675  0.1737  0.1215
 4931TIP3    H136208   2.341   2.092   5.578  0.6215  1.5207 -0.2412
 4931TIP3    H236209   2.192   2.079   5.600  0.9210 -2.0230  0.3786
 4932TIP3   OH236210   3.102   4.951   2.372  0.1676  0.1923 -1.0708
 4932TIP3    H136211   3.164   4.880   2.393 -0.6522 -0.3052 -0.2948
 4932TIP3    H236212   3.143   5.030   2.407  0.7661  0.0105 -1.3423
 4933TIP3   OH236213   4.224   3.258  13.780 -0.7803  0.5355 -0.4841
 4933TIP3    H136214   4.213   3.171  13.742 -0.8209 -0.6411  2.0355
 4933TIP3    H236215   4.313   3.259  13.814 -0.8603  1.3954 -0.2617
 4934TIP3   OH236216   1.370   1.293  15.990 -0.7108 -0.3793  0.2516
 4934TIP3    H136217   1.398   1.201  15.987 -1.0519 -0.4913 -2.7714
 4934TIP3    H236218   1.303   1.295  16.058 -0.2546 -2.2203  0.8190
 4935TIP3   OH236219   3.110   3.429   3.384  0.6905  0.2794  0.0311
 4935TIP3    H136220   3.082   3.520   3.374 -1.3808 -0.4479 -1.7184
 4935TIP3    H236221   3.042   3.389   3.438  0.8538 -0.5119 -0.3406
 4936TIP3   OH236222   4.673   0.403   2.182 -0.3383 -0.4337 -0.2666
 4936TIP3    H136223   4.755   0.359   2.162  0.1036  0.6406 -0.8726
 4936TIP3    H236224   4.630   0.414   2.097 -1.9219 -2.4904  0.1998
 4937TIP3   OH236225   2.146   0.287   3.639  0.3717 -0.1305  0.1476
 4937TIP3    H136226   2.224   0.303   3.585  1.1753  0.0357  1.3024
 4937TIP3    H236227   2.166   0.206   3.685 -0.9182 -1.0405 -0.8449
 4938TIP3   OH236228   1.615   4.072  13.705 -0.3671  0.4864 -0.0939
 4938TIP3    H136229   1.540   4.038  13.656 -0.7170  0.4367  0.4695
 4938TIP3    H236230   1.650   4.142  13.650 -2.6961  2.6550  0.9861
 4939TIP3   OH236231   5.365   4.508   1.708  0.0129  0.1323  0.1919
 4939TIP3    H136232   5.398   4.418   1.710  1.4815  0.6054 -0.8799
 4939TIP3    H236233   5.363   4.531   1.615 -1.4415  0.8453  0.3697
 4940TIP3   OH236234   0.134   3.820  11.042  0.4519  0.0722 -0.0531
 4940TIP3    H136235   0.149   3.909  11.011  2.2309 -0.6155 -1.3671
 4940TIP3    H236236   0.197   3.809  11.113 -0.1824  0.0377  0.5116
 4941TIP3   OH236237   3.299   4.541  16.150 -0.2268 -0.3626 -0.0422
 4941TIP3    H136238   3.278   4.469  16.091  1.1307 -1.0254  0.2208
 4941TIP3    H236239   3.384   4.573  16.119  1.1410 -1.5238  2.1814
 4942TIP3   OH236240   3.364   0.765   6.272 -0.1489 -0.3072  0.7103
 4942TIP3    H136241   3.446   0.810   6.251 -0.5515  0.0451 -0.1845
 4942TIP3    H236242   3.389   0.691   6.326  0.8695 -0.7391 -0.3172
 4943TIP3   OH236243   6.180   1.767   3.015 -0.4054 -0.4754 -0.1810
 4943TIP3    H136244   6.258   1.714   3.029 -0.5127 -1.1117 -1.8634
 4943TIP3    H236245   6.107   1.707   3.031 -0.6463  0.3314  2.2811
 4944TIP3   OH236246   6.086   4.966  13.941 -0.0784  0.4772  0.4847
 4944TIP3    H136247   6.034   5.034  13.982  0.1490 -0.2157  1.9807
 4944TIP3    H236248   6.021   4.909  13.899 -0.5119  0.0130  1.7312
 4945TIP3   OH236249   0.706   6.486  13.330  0.0709 -0.6539 -0.4618
 4945TIP3    H136250   0.642   6.427  13.289 -0.6556 -0.1956 -0.0156
 4945TIP3    H236251   0.672   6.574  13.311  0.8519 -0.3875 -0.6562
 4946TIP3   OH236252   1.896   5.882  16.676  0.2143 -0.9335  0.2773
 4946TIP3    H136253   1.915   5.974  16.694 -2.0982 -0.8549  3.3957
 4946TIP3    H236254   1.945   5.861  16.597 -0.0335  3.2609 -1.2349
 4947TIP3   OH236255   5.870   2.459   0.739  0.2990  0.4626  0.4277
 4947TIP3    H136256   5.852   2.390   0.803 -0.6445  2.1393  2.0858
 4947TIP3    H236257   5.931   2.518   0.784 -1.2245  2.2579  0.2807
 4948TIP3   OH236258   4.600   0.469  16.431  0.7439  0.3303 -0.1113
 4948TIP3    H136259   4.528   0.430  16.381  1.0074 -1.5322  0.8505
 4948TIP3    H236260   4.678   0.449  16.379  0.8373 -0.0580  0.1760
 4949TIP3   OH236261   1.581   3.499  15.866  0.1033 -0.2603 -0.0773
 4949TIP3    H136262   1.521   3.573  15.880 -0.4991 -0.5645 -0.9262
 4949TIP3    H236263   1.568   3.442  15.941  0.2099  0.2617  0.3393
 4950TIP3   OH236264   3.881   0.941   0.687  0.0447  0.2136 -0.1150
 4950TIP3    H136265   3.888   0.962   0.594 -0.0834 -0.8989 -0.3882
 4950TIP3    H236266   3.797   0.896   0.695  0.8803 -1.3346  0.2083
 4951TIP3   OH236267   0.869   1.879  15.563  0.0699 -0.2239 -0.5673
 4951TIP3    H136268   0.839   1.883  15.654  0.3799 -1.6705 -0.3675
 4951TIP3    H236269   0.791   1.898  15.511 -0.6390 -1.4656 -0.0098
 4952TIP3   OH236270   2.340   4.220   4.519  0.6049 -0.1215 -0.2591
 4952TIP3    H136271   2.343   4.195   4.612 -0.1231 -0.4879 -0.3299
 4952TIP3    H236272   2.422   4.265   4.504  1.1708 -0.9347  0.3182
 4953TIP3   OH236273   0.468   5.887  13.969 -0.2870 -0.3209 -0.5356
 4953TIP3    H136274   0.491   5.980  13.964  0.4148 -0.3172  1.6371
 4953TIP3    H236275   0.373   5.885  13.958 -0.6946  1.0130  1.8518
 4954TIP3   OH236276   3.722   5.333  11.882 -0.1028 -1.0385  0.0608
 4954TIP3    H136277   3.798   5.386  11.856 -0.4584  0.0502  1.1691
 4954TIP3    H236278   3.686   5.302  11.799  0.7144 -0.3747 -0.5681
 4955TIP3   OH236279   1.040   1.678  14.929 -0.4159 -0.7472 -0.0784
 4955TIP3    H136280   1.015   1.713  15.015  1.1502 -1.7029  0.8236
 4955TIP3    H236281   1.030   1.752  14.869 -2.3846 -0.2932  0.7361
 4956TIP3   OH236282   5.163   0.467   3.719 -0.0925  0.1192  0.2283
 4956TIP3    H136283   5.121   0.461   3.633  0.7269  1.0485 -0.2598
 4956TIP3    H236284   5.203   0.381   3.732  1.4438  0.5497 -1.2438
 4957TIP3   OH236285   4.916   4.286  15.274 -0.1671 -0.4506  0.6666
 4957TIP3    H136286   4.894   4.376  15.296  1.0300 -0.0853  0.4372
 4957TIP3    H236287   4.855   4.262  15.204  0.1751  0.5249  0.0222
 4958TIP3   OH236288   3.346   5.859  11.099 -0.1365 -0.2739 -0.1095
 4958TIP3    H136289   3.267   5.847  11.047 -0.4365  0.6854  0.0928
 4958TIP3    H236290   3.416   5.872  11.035 -0.3231 -0.1195 -0.2826
 4959TIP3   OH236291   4.828   3.206   4.179 -0.0229 -0.1548  0.1443
 4959TIP3    H136292   4.820   3.180   4.087  0.0778 -2.4587  0.7062
 4959TIP3    H236293   4.738   3.222   4.207 -0.1079  0.0039 -0.2122
 4960TIP3   OH236294   3.118   0.202  10.892  0.0993  0.0303 -0.0280
 4960TIP3    H136295   3.186   0.253  10.848  0.2227 -1.8568 -2.2243
 4960TIP3    H236296   3.035   0.239  10.860  0.0550  1.3084  1.4359
 4961TIP3   OH236297   4.643   3.918  12.999 -0.0853  0.4079  0.3156
 4961TIP3    H136298   4.592   3.982  12.950 -0.9488 -0.0895  0.5555
 4961TIP3    H236299   4.651   3.843  12.940 -1.0252 -0.1458  0.8650
 4962TIP3   OH236300   2.449   1.498  15.470 -0.8594 -0.0755  0.4780
 4962TIP3    H136301   2.461   1.584  15.430  1.4585  0.0295  1.2606
 4962TIP3    H236302   2.395   1.515  15.548 -0.3444  0.6939  0.6763
 4963TIP3   OH236303   0.195   2.716  13.233 -0.2114  0.3676 -0.0546
 4963TIP3    H136304   0.138   2.792  13.241 -1.9887 -1.0926  2.7089
 4963TIP3    H236305   0.264   2.731  13.298  0.1771  0.2420 -0.4368
 4964TIP3   OH236306   3.871   0.609  11.123  0.1139 -0.0617  0.1489
 4964TIP3    H136307   3.935   0.675  11.095 -1.0655  0.8214 -0.5354
 4964TIP3    H236308   3.882   0.536  11.062  0.1190  0.2993 -0.2832
 4965TIP3   OH236309   0.407   1.352   4.374 -0.5001 -0.4640 -0.6288
 4965TIP3    H136310   0.438   1.441   4.358 -2.2377  0.4816  0.8018
 4965TIP3    H236311   0.486   1.301   4.392  0.7451  0.2300 -3.6177
 4966TIP3   OH236312   4.453   4.390   1.247  0.4438  0.5567 -0.3389
 4966TIP3    H136313   4.483   4.306   1.280  0.9450  0.7501 -0.2879
 4966TIP3    H236314   4.388   4.368   1.181 -1.0171  0.1708  1.1524
 4967TIP3   OH236315   4.630   6.583  17.123  0.1885 -0.0543  0.1129
 4967TIP3    H136316   4.693   6.511  17.125  0.0389 -0.2647 -1.6277
 4967TIP3    H236317   4.574   6.567  17.200  0.0260 -1.9402 -0.3486
 4968TIP3   OH236318   3.853   0.464   2.267 -0.4197  0.6352  0.1519
 4968TIP3    H136319   3.850   0.404   2.192  0.1951  1.7903 -0.8300
 4968TIP3    H236320   3.793   0.425   2.330 -0.3371 -0.8101 -0.5988
 4969TIP3   OH236321   5.325   3.773  13.509  0.1366  0.3427  0.1026
 4969TIP3    H136322   5.363   3.822  13.436 -1.2646  1.5796  0.1560
 4969TIP3    H236323   5.296   3.690  13.470 -0.6676  1.0200 -0.7970
 4970TIP3   OH236324   2.361   6.548   2.840  0.6043 -0.4209 -0.3093
 4970TIP3    H136325   2.354   6.562   2.935 -0.1199  1.5561 -0.6108
 4970TIP3    H236326   2.272   6.526   2.813  0.0534  2.2485 -0.9378
 4971TIP3   OH236327   5.807   3.372   5.336  0.1252 -0.5589  0.0619
 4971TIP3    H136328   5.722   3.363   5.294  0.1014 -0.1085  0.0043
 4971TIP3    H236329   5.787   3.386   5.429  0.1904 -1.9288  0.2949
 4972TIP3   OH236330   1.752   1.063  11.433  0.0278  0.4996  0.0940
 4972TIP3    H136331   1.677   1.122  11.423  0.1565  0.5916 -0.3791
 4972TIP3    H236332   1.741   1.025  11.519  0.0605  1.3859  0.5051
 4973TIP3   OH236333   5.717   6.236   4.833 -0.2665 -0.2102 -0.9723
 4973TIP3    H136334   5.681   6.318   4.865 -0.3867 -0.8156  0.5478
 4973TIP3    H236335   5.791   6.262   4.778  0.5164  0.9080  0.5250
 4974TIP3   OH236336   5.473   0.775   3.026  0.4628 -0.1957  0.2192
 4974TIP3    H136337   5.563   0.777   2.993  0.2250  0.2382 -0.4248
 4974TIP3    H236338   5.438   0.862   3.004 -0.3822 -0.6588 -0.3122
 4975TIP3   OH236339   5.875   1.378   0.847 -0.0016  0.3065  0.4916
 4975TIP3    H136340   5.935   1.408   0.916 -0.6472 -0.4669  1.4167
 4975TIP3    H236341   5.924   1.311   0.800  0.5389  1.0226  0.0070
 4976TIP3   OH236342   6.149   2.289  10.393 -0.1997 -0.5588  0.1396
 4976TIP3    H136343   6.121   2.378  10.414 -0.8982 -0.8856  0.6488
 4976TIP3    H236344   6.226   2.274  10.448 -0.6541 -0.6001  0.7773
 4977TIP3   OH236345   3.333   4.628   3.558 -0.4830  0.5931  0.0523
 4977TIP3    H136346   3.318   4.711   3.514  0.3788  0.1045 -1.2285
 4977TIP3    H236347   3.388   4.578   3.497  1.5689  0.2338  2.0328
 4978TIP3   OH236348   1.346   1.768   4.100  0.1681  0.5813 -0.9622
 4978TIP3    H136349   1.401   1.778   4.022  0.5800  0.0597 -0.7490
 4978TIP3    H236350   1.274   1.711   4.072  1.4179 -1.3555 -0.4620
 4979TIP3   OH236351   5.371   0.632  15.289  0.2458 -0.2419 -0.3666
 4979TIP3    H136352   5.439   0.693  15.261 -0.7245  0.6568 -0.7992
 4979TIP3    H236353   5.415   0.575  15.352  0.6372  2.2961  1.7892
 4980TIP3   OH236354   4.940   1.380   2.348  0.3133  0.3575 -0.1593
 4980TIP3    H136355   4.987   1.297   2.343 -1.9781 -1.0383  0.0836
 4980TIP3    H236356   4.891   1.386   2.266 -0.2906  0.9793  0.2270
 4981TIP3   OH236357   1.900   1.460  11.674 -0.2862 -0.3441  0.3331
 4981TIP3    H136358   1.892   1.460  11.578  2.1129 -0.1783  0.0634
 4981TIP3    H236359   1.901   1.553  11.697  0.8200 -0.3384  0.3064
 4982TIP3   OH236360   2.465   3.373  13.348  0.2611 -0.0655 -0.9788
 4982TIP3    H136361   2.414   3.441  13.392 -0.7264 -0.8899 -0.8224
 4982TIP3    H236362   2.405   3.337  13.283  0.6789 -0.9799 -0.8689
 4983TIP3   OH236363   1.540   1.211  12.500 -0.8744 -0.0648  0.0054
 4983TIP3    H136364   1.624   1.248  12.526 -0.1861 -1.7570  0.3610
 4983TIP3    H236365   1.537   1.222  12.405  0.6130 -1.5858 -0.2568
 4984TIP3   OH236366   3.930   4.439  14.889  0.1150  0.0425  0.3059
 4984TIP3    H136367   3.983   4.472  14.816  1.4134 -0.7541  0.8523
 4984TIP3    H236368   3.888   4.516  14.926 -0.5817  0.4649 -1.2764
 4985TIP3   OH236369   1.391   1.248  13.864  0.2075 -0.0429 -0.2873
 4985TIP3    H136370   1.331   1.180  13.896  0.9521 -1.5694 -1.9745
 4985TIP3    H236371   1.372   1.324  13.919 -1.7056 -1.1509  0.6947
 4986TIP3   OH236372   0.661   1.503  16.983 -0.5998 -0.1925  0.3821
 4986TIP3    H136373   0.678   1.539  16.896 -1.8404  0.6339  0.4616
 4986TIP3    H236374   0.737   1.530  17.035  0.6971 -1.6202 -0.6651
 4987TIP3   OH236375   4.099   1.739   2.538  0.2196 -0.4074  0.2434
 4987TIP3    H136376   4.057   1.809   2.589  1.9160  1.5029 -0.8248
 4987TIP3    H236377   4.059   1.659   2.570 -1.2229  0.9744  2.1446
 4988TIP3   OH236378   0.444   0.909   0.717  0.0954  0.0805  0.0175
 4988TIP3    H136379   0.356   0.877   0.698  0.5140 -1.5007  0.6566
 4988TIP3    H236380   0.503   0.848   0.673  0.9155 -0.1167  1.3245
 4989TIP3   OH236381   4.196   4.245   2.743 -0.1872 -0.0634 -0.4761
 4989TIP3    H136382   4.161   4.332   2.724  0.6212  0.0322 -1.5873
 4989TIP3    H236383   4.230   4.252   2.832 -0.0906  0.7713 -0.5731
 4990TIP3   OH236384   4.641   6.091   0.632 -0.0822 -0.1411 -0.5111
 4990TIP3    H136385   4.624   6.011   0.582 -0.4207 -0.7257  0.5241
 4990TIP3    H236386   4.578   6.089   0.704  2.4075 -0.9379  1.8165
 4991TIP3   OH236387   6.012   5.184  13.687  0.4123  0.1855  0.1958
 4991TIP3    H136388   5.972   5.223  13.765 -0.4578 -1.0325  0.3960
 4991TIP3    H236389   6.105   5.205  13.695  0.3588  0.0365  1.6169
 4992TIP3   OH236390   1.864   3.509  11.719  0.2570 -0.0850 -0.2636
 4992TIP3    H136391   1.874   3.541  11.629  0.5073 -1.8878 -0.9217
 4992TIP3    H236392   1.786   3.453  11.716  0.6627 -0.7123  0.4566
 4993TIP3   OH236393   2.808   4.232  15.706 -0.1214  0.1965 -0.2249
 4993TIP3    H136394   2.880   4.278  15.750 -0.4009  0.3959  0.0234
 4993TIP3    H236395   2.813   4.143  15.739 -1.6100  0.8049  1.8361
 4994TIP3   OH236396   6.312   2.600   4.196 -0.0158  0.2411 -0.4071
 4994TIP3    H136397   6.336   2.604   4.103 -2.2195 -0.6581 -1.0688
 4994TIP3    H236398   6.363   2.526   4.231 -1.4592 -1.4228 -1.6830
 4995TIP3   OH236399   3.996   2.591   2.464 -0.5215 -0.5812  0.1176
 4995TIP3    H136400   3.906   2.604   2.433 -0.3830 -1.4950 -0.7157
 4995TIP3    H236401   4.038   2.542   2.394  0.6518 -0.1064  0.4776
 4996TIP3   OH236402   0.851   6.607   0.538  0.4221  0.2120 -0.0955
 4996TIP3    H136403   0.843   6.672   0.608 -0.0047 -1.6135  1.6585
 4996TIP3    H236404   0.770   6.616   0.489  0.7933  1.6339 -0.4834
 4997TIP3   OH236405   2.754   4.726  16.599 -0.0143  0.7133  0.1593
 4997TIP3    H136406   2.689   4.690  16.539 -0.1928  1.5129 -0.1321
 4997TIP3    H236407   2.728   4.818  16.611 -0.9374  0.2176  2.6967
 4998TIP3   OH236408   1.509   4.949   5.708  0.0605 -0.1784  0.0914
 4998TIP3    H136409   1.546   5.027   5.750 -0.4932  0.2377 -0.1700
 4998TIP3    H236410   1.571   4.928   5.638 -0.7454  1.2192 -1.1053
 4999TIP3   OH236411   3.222   6.236  12.883 -1.1540  0.0695  0.1133
 4999TIP3    H136412   3.160   6.292  12.837 -0.3558  1.1244  0.2814
 4999TIP3    H236413   3.249   6.172  12.817 -0.5773  1.1188 -0.7139
 5000TIP3   OH236414   6.281   1.496  12.693  0.3009 -0.3472 -0.3198
 5000TIP3    H136415   6.187   1.513  12.689  0.2222 -0.9052 -1.0378
 5000TIP3    H236416   6.301   1.495  12.787 -0.4559 -0.4438 -0.1525
 5001TIP3   OH236417   3.699   5.699  11.911  0.6288  0.3004  0.0524
 5001TIP3    H136418   3.657   5.632  11.858 -0.0872 -0.5671  1.6620
 5001TIP3    H236419   3.769   5.734  11.855  0.0192 -0.6963 -1.3664
 5002TIP3   OH236420   3.074   4.436   5.867  0.2402 -0.9297 -0.2285
 5002TIP3    H136421   3.127   4.491   5.924  1.6186 -2.5254  0.1283
 5002TIP3    H236422   3.104   4.456   5.778 -0.6499  0.2498 -0.2988
 5003TIP3   OH236423   5.108   5.838   1.228 -0.3732  0.2664 -0.0336
 5003TIP3    H136424   5.086   5.929   1.247  0.4875  0.2460  1.1631
 5003TIP3    H236425   5.043   5.811   1.163 -0.6238  1.7335 -0.4312
 5004TIP3   OH236426   2.984   1.490  10.596 -0.2610  0.4091 -0.6622
 5004TIP3    H136427   2.949   1.567  10.552 -0.4611 -0.0661 -1.3442
 5004TIP3    H236428   2.959   1.502  10.688 -3.0518 -0.3318 -1.2411
 5005TIP3   OH236429   1.416   4.860   3.031 -0.5233  0.4516 -0.1587
 5005TIP3    H136430   1.368   4.859   2.948 -1.3319 -0.9556  0.2880
 5005TIP3    H236431   1.507   4.872   3.006 -0.2822 -3.1600 -1.5851
 5006TIP3   OH236432   0.994   3.029   4.902 -0.2215 -0.3047 -0.3891
 5006TIP3    H136433   0.925   2.995   4.845 -1.5740 -0.9929  1.5468
 5006TIP3    H236434   1.076   3.000   4.861 -1.1271 -0.8486 -1.8957
 5007TIP3   OH236435   4.389   1.912  16.257 -0.1037  0.0474 -0.3496
 5007TIP3    H136436   4.333   1.862  16.316  0.1433  1.0567  0.7840
 5007TIP3    H236437   4.427   1.847  16.198  0.4727 -1.1458  1.2760
 5008TIP3   OH236438   1.239   0.273  14.815  0.3489 -0.3109 -0.1104
 5008TIP3    H136439   1.247   0.307  14.726  0.5241  0.0090  0.0257
 5008TIP3    H236440   1.266   0.181  14.807 -1.6268 -0.8836 -0.7697
 5009TIP3   OH236441   6.606   2.667   0.811  0.0556  0.1381 -0.2751
 5009TIP3    H136442   6.625   2.754   0.845 -1.4694  0.6104 -0.5080
 5009TIP3    H236443   6.685   2.616   0.825  0.7766  1.4150  0.3730
 5010TIP3   OH236444   5.902   2.777   2.769  0.4015  0.2250  0.3336
 5010TIP3    H136445   5.957   2.845   2.808  0.6127  0.4910 -0.4001
 5010TIP3    H236446   5.824   2.773   2.824  0.5308  0.8426  0.5638
 5011TIP3   OH236447   2.108   0.483   5.742 -0.8227  0.2862  0.0842
 5011TIP3    H136448   2.184   0.517   5.695 -1.5284 -0.2802 -1.5365
 5011TIP3    H236449   2.033   0.511   5.689 -1.7287  0.5212  1.4581
 5012TIP3   OH236450   6.374   0.971   2.820  0.4205 -0.5065  0.4085
 5012TIP3    H136451   6.313   0.950   2.891 -0.4670 -2.7375 -0.8763
 5012TIP3    H236452   6.455   0.997   2.864 -1.1187  1.6825  2.1759
 5013TIP3   OH236453   2.778   2.660  16.681  0.2049  0.2037  0.0693
 5013TIP3    H136454   2.758   2.753  16.696 -0.1014  0.4563 -1.7161
 5013TIP3    H236455   2.865   2.648  16.720  1.2691  1.8387 -1.5789
 5014TIP3   OH236456   3.505   5.576  11.107  0.4397  0.4039  0.4838
 5014TIP3    H136457   3.423   5.528  11.117 -0.2677  1.6539  0.8889
 5014TIP3    H236458   3.546   5.572  11.194  1.1069 -0.6955  0.1423
 5015TIP3   OH236459   4.352   5.759   6.032 -0.2995  0.3973  0.1333
 5015TIP3    H136460   4.431   5.814   6.030 -0.4623  0.6435 -1.5943
 5015TIP3    H236461   4.385   5.670   6.018 -0.3050  0.5020 -0.6067
 5016TIP3   OH236462   0.432   4.065   1.978  0.2011 -0.0911  0.1016
 5016TIP3    H136463   0.511   4.010   1.975  1.0532  1.1215 -0.8696
 5016TIP3    H236464   0.406   4.075   1.887 -1.4447 -0.9140  0.4443
 5017TIP3   OH236465   0.411   5.920  17.037  0.3030 -0.4977 -0.1278
 5017TIP3    H136466   0.427   5.999  17.089  0.2530 -0.6143  0.0657
 5017TIP3    H236467   0.359   5.864  17.094  0.0160 -0.5177 -0.4015
 5018TIP3   OH236468   2.696   4.967   0.186 -0.0827 -0.7992  0.5559
 5018TIP3    H136469   2.627   4.994   0.246 -1.1836 -1.5505 -0.3268
 5018TIP3    H236470   2.678   4.874   0.170 -0.3808 -0.4079 -1.6339
 5019TIP3   OH236471   1.601   2.472  15.998  0.5009 -0.1169  0.2436
 5019TIP3    H136472   1.634   2.459  16.087 -2.3253  0.5980  1.5252
 5019TIP3    H236473   1.615   2.565  15.981  0.9499 -0.2335 -0.0436
 5020TIP3   OH236474   1.825   6.282   5.699  0.1333  0.3111 -0.4925
 5020TIP3    H136475   1.744   6.318   5.733 -0.5644 -2.1843  0.7401
 5020TIP3    H236476   1.884   6.282   5.775  0.2057 -0.7889 -0.5359
 5021TIP3   OH236477   5.413   2.114  16.472 -0.5151 -0.3896 -0.1082
 5021TIP3    H136478   5.430   2.051  16.542 -0.5942 -1.0350 -0.6513
 5021TIP3    H236479   5.487   2.173  16.474  0.3317 -1.4034 -0.5526
 5022TIP3   OH236480   5.805   3.367  11.244  0.3169  0.4318  0.1690
 5022TIP3    H136481   5.756   3.333  11.319 -0.0085  1.2022  0.3167
 5022TIP3    H236482   5.817   3.291  11.187 -0.9120  0.1778  0.2081
 5023TIP3   OH236483   5.448   0.187   5.797 -0.3305 -0.7334 -0.3181
 5023TIP3    H136484   5.403   0.158   5.717 -0.1987  1.1274 -1.1134
 5023TIP3    H236485   5.540   0.170   5.779 -0.3446 -0.7717 -0.3562
 5024TIP3   OH236486   4.135   1.101   0.729 -0.0466  0.5082 -0.1676
 5024TIP3    H136487   4.105   1.029   0.784  1.0491 -0.9171 -1.3578
 5024TIP3    H236488   4.194   1.060   0.665  1.9356  2.6958  0.1149
 5025TIP3   OH236489   5.035   2.879   3.024 -0.2022  0.1020 -0.0885
 5025TIP3    H136490   5.012   2.823   2.950  1.0423 -0.4234 -0.0896
 5025TIP3    H236491   5.108   2.932   2.993  1.3843 -1.2220  1.2219
 5026TIP3   OH236492   3.076   2.821  11.481  0.4312  0.3515  0.5000
 5026TIP3    H136493   3.015   2.749  11.473 -0.1872  0.8388  0.7683
 5026TIP3    H236494   3.120   2.826  11.396 -0.8242  0.8153 -0.1492
 5027TIP3   OH236495   3.245   3.025   3.429 -0.5093  0.3631 -0.0269
 5027TIP3    H136496   3.250   3.106   3.479 -0.3614 -0.4207  1.2856
 5027TIP3    H236497   3.194   3.047   3.352 -0.1104  1.8018  0.0997
 5028TIP3   OH236498   1.817   2.841  13.549  0.3048  0.1859 -0.0687
 5028TIP3    H136499   1.819   2.749  13.524  0.0631  0.3445 -0.6958
 5028TIP3    H236500   1.896   2.879  13.511 -0.0429  0.4207 -0.5694
 5029TIP3   OH236501   3.752   4.052   3.580 -0.3463 -0.1415  0.1911
 5029TIP3    H136502   3.842   4.018   3.584 -0.3455 -0.0724  1.0363
 5029TIP3    H236503   3.760   4.144   3.605 -0.7121 -0.2750  0.8435
 5030TIP3   OH236504   4.113   3.915  13.502 -0.4700  0.6905  0.7696
 5030TIP3    H136505   4.061   3.961  13.436 -1.6112 -2.1223 -0.3974
 5030TIP3    H236506   4.197   3.963  13.502 -1.7080  3.0524  0.0473
 5031TIP3   OH236507   6.469   2.017  13.403 -0.6512  0.7187  0.2351
 5031TIP3    H136508   6.376   2.039  13.400 -0.6429  1.0951  1.6672
 5031TIP3    H236509   6.471   1.931  13.445 -0.4093  0.0929 -1.0140
 5032TIP3   OH236510   5.970   4.954   4.667 -0.0401  0.1385 -0.3392
 5032TIP3    H136511   5.993   4.873   4.713  1.2623 -0.0262 -1.2325
 5032TIP3    H236512   5.895   4.930   4.613 -0.4803 -0.1173  0.3653
 5033TIP3   OH236513   0.471   2.064  13.476  0.2443 -0.0957 -0.3949
 5033TIP3    H136514   0.433   2.144  13.512 -2.1455 -1.4858  0.4030
 5033TIP3    H236515   0.408   2.035  13.410  1.0652 -1.3158 -0.6864
 5034TIP3   OH236516   6.400   3.525   3.806  0.6127 -0.1876 -0.2960
 5034TIP3    H136517   6.386   3.616   3.781 -2.1069  0.4328  2.8418
 5034TIP3    H236518   6.478   3.527   3.862 -0.1876  0.4513  0.8040
 5035TIP3   OH236519   5.196   3.204  13.682 -0.1375  0.1452 -0.0856
 5035TIP3    H136520   5.222   3.206  13.774  1.8701  0.6982 -0.6074
 5035TIP3    H236521   5.109   3.242  13.680 -1.2857 -2.0963  1.8562
 5036TIP3   OH236522   0.258   4.867  16.614 -0.0205 -0.0516 -0.1513
 5036TIP3    H136523   0.236   4.850  16.523  0.7351  0.5604 -0.4572
 5036TIP3    H236524   0.301   4.786  16.644 -1.7523 -0.8913  0.1761
 5037TIP3   OH236525   6.666   5.950   1.061 -0.3415  0.1357 -0.3448
 5037TIP3    H136526   6.707   5.917   0.980  1.4197  2.0156 -0.2904
 5037TIP3    H236527   6.578   5.977   1.034 -1.4675 -3.2475 -0.6361
 5038TIP3   OH236528   5.912   1.689   5.231 -0.1681 -0.3161 -0.3118
 5038TIP3    H136529   5.981   1.633   5.196 -0.8024 -1.4572  0.1750
 5038TIP3    H236530   5.886   1.744   5.158  0.8377 -0.2917 -0.6640
 5039TIP3   OH236531   5.626   3.061   5.622 -0.0726  0.1175  0.2323
 5039TIP3    H136532   5.681   3.126   5.664  1.7023 -1.3394  0.2999
 5039TIP3    H236533   5.553   3.048   5.683 -0.4649  1.9705  0.2181
 5040TIP3   OH236534   4.066   1.463  16.061 -0.3864  0.1066  0.3941
 5040TIP3    H136535   4.054   1.405  16.136  0.7841  0.0170  0.5253
 5040TIP3    H236536   4.148   1.434  16.021 -1.6748 -0.8167 -1.7982
 5041TIP3   OH236537   3.561   2.406  15.691  0.2258 -0.0970 -0.1696
 5041TIP3    H136538   3.607   2.449  15.618  0.7098 -1.8597 -0.9651
 5041TIP3    H236539   3.606   2.322  15.701 -2.5704 -1.7650 -0.7077
 5042TIP3   OH236540   1.107   0.748   0.275 -0.0878  0.2230  0.3536
 5042TIP3    H136541   1.197   0.746   0.307 -0.1558  0.2760  0.5471
 5042TIP3    H236542   1.116   0.737   0.180  0.0721 -0.6537  0.4573
 5043TIP3   OH236543   2.278   1.952  12.522 -0.2037  0.3228 -0.7311
 5043TIP3    H136544   2.266   1.887  12.591 -0.8190  1.9232  0.7561
 5043TIP3    H236545   2.373   1.959  12.513  0.0034  1.5582  1.5361
 5044TIP3   OH236546   2.148   5.488  14.693 -0.1852  0.0068 -0.0929
 5044TIP3    H136547   2.166   5.445  14.776  2.4250 -0.4347 -0.8046
 5044TIP3    H236548   2.172   5.424  14.626 -2.7234  0.1562 -1.2769
 5045TIP3   OH236549   5.694   4.027  11.514 -0.3916 -0.4249 -0.2006
 5045TIP3    H136550   5.649   4.096  11.465 -0.2265 -0.2219 -0.0683
 5045TIP3    H236551   5.694   3.952  11.455 -0.0486 -0.1365 -0.5778
 5046TIP3   OH236552   4.184   0.877   0.402  0.0388 -0.5202 -0.1344
 5046TIP3    H136553   4.131   0.957   0.402  1.2316  0.2866 -0.4851
 5046TIP3    H236554   4.199   0.858   0.310  2.6781  0.8679 -0.0746
 5047TIP3   OH236555   4.374   3.281  14.501  0.2336  0.0013 -0.6397
 5047TIP3    H136556   4.289   3.236  14.498  0.2921 -0.0742 -2.1289
 5047TIP3    H236557   4.397   3.284  14.594 -1.4313  0.0848 -0.1991
 5048TIP3   OH236558   6.295   1.554  15.805 -0.3014  0.1995  0.0214
 5048TIP3    H136559   6.286   1.478  15.863  0.5750 -1.8351 -2.3526
 5048TIP3    H236560   6.206   1.585  15.793 -0.5510  0.4132  2.0513
 5049TIP3   OH236561   2.293   4.200  17.123  0.2500 -0.2353  0.4464
 5049TIP3    H136562   2.213   4.196  17.070  1.3643 -1.1893 -1.2569
 5049TIP3    H236563   2.364   4.209  17.059  1.8056 -2.9790  1.6078
 5050TIP3   OH236564   5.051   5.493   5.435  0.6262  0.3835  0.6365
 5050TIP3    H136565   5.117   5.425   5.452  0.2165 -0.2768 -0.3194
 5050TIP3    H236566   4.980   5.472   5.495  0.7422  0.3010  0.7461
 5051TIP3   OH236567   0.854   3.343  11.463  0.1850  0.6088  0.1874
 5051TIP3    H136568   0.830   3.324  11.554 -0.6593 -0.1161 -0.1647
 5051TIP3    H236569   0.849   3.258  11.420 -1.6946  1.2699 -1.0286
 5052TIP3   OH236570   1.654   5.847  16.491 -0.9291  0.3882 -0.3464
 5052TIP3    H136571   1.641   5.877  16.400  0.2563  0.5451 -0.4742
 5052TIP3    H236572   1.722   5.905  16.525  1.7311 -2.2926 -0.7002
 5053TIP3   OH236573   6.056   1.198   1.798  0.3591 -0.0484 -0.8927
 5053TIP3    H136574   5.996   1.180   1.870  0.0343  1.5369 -0.7359
 5053TIP3    H236575   6.076   1.292   1.806  2.7617 -0.4916 -1.0221
 5054TIP3   OH236576   1.145   3.713  13.707 -0.6775 -0.2661 -0.0615
 5054TIP3    H136577   1.234   3.744  13.725  1.0366 -3.4400 -2.0843
 5054TIP3    H236578   1.152   3.618  13.712 -3.6246 -0.6778 -1.8110
 5055TIP3   OH236579   5.288   5.385   6.629  0.2153  0.2462 -0.3750
 5055TIP3    H136580   5.304   5.305   6.579  0.9942  0.7330 -0.9378
 5055TIP3    H236581   5.324   5.367   6.716 -0.3602 -0.2957 -0.2379
 5056TIP3   OH236582   3.674   2.474  12.327 -0.0276  0.1656 -0.2943
 5056TIP3    H136583   3.761   2.434  12.336 -1.0116 -2.0272  0.3065
 5056TIP3    H236584   3.649   2.497  12.416  0.1257  1.3104 -0.5295
 5057TIP3   OH236585   4.825   2.438   1.725  0.8466 -0.6960  0.0795
 5057TIP3    H136586   4.875   2.356   1.728  0.6817 -0.8842 -1.5857
 5057TIP3    H236587   4.733   2.410   1.724  0.7546 -0.4352  0.7507
 5058TIP3   OH236588   6.105   2.877   1.925  0.0053 -0.2440 -0.4966
 5058TIP3    H136589   6.107   2.811   1.994 -0.0500 -0.8187 -1.0444
 5058TIP3    H236590   6.196   2.903   1.914  0.0300 -0.2487 -0.3111
 5059TIP3   OH236591   5.194   0.382   5.825 -0.8073  0.5687 -0.5815
 5059TIP3    H136592   5.103   0.393   5.851 -0.4826  0.2737  0.7688
 5059TIP3    H236593   5.192   0.314   5.758 -1.4955 -0.1243  0.1216
 5060TIP3   OH236594   2.792   6.697   2.762 -0.0475 -0.4013 -0.4735
 5060TIP3    H136595   2.813   6.618   2.712 -0.9964 -0.7157 -0.3888
 5060TIP3    H236596   2.742   6.751   2.701 -0.5809 -0.4680 -0.0996
 5061TIP3   OH236597   3.973   0.130   5.341 -0.2026  0.0697 -0.2157
 5061TIP3    H136598   4.030   0.190   5.294 -0.3537  0.2125 -0.2168
 5061TIP3    H236599   4.017   0.115   5.425  0.2357 -0.4470 -0.5302
 5062TIP3   OH236600   3.253   5.617   0.334  0.6683  0.0897 -0.2701
 5062TIP3    H136601   3.299   5.584   0.412 -0.0737  0.6537  0.4177
 5062TIP3    H236602   3.179   5.666   0.369  1.3919  1.9823 -1.2714
 5063TIP3   OH236603   1.856   2.507   2.765 -0.2276  0.5755  0.3996
 5063TIP3    H136604   1.850   2.542   2.676  0.8472  0.6196  0.3197
 5063TIP3    H236605   1.899   2.422   2.755 -1.5927 -0.1791  0.7294
 5064TIP3   OH236606   3.869   6.433  13.861  0.3686  0.1969  0.7618
 5064TIP3    H136607   3.776   6.432  13.882  0.2153  0.2013  0.1258
 5064TIP3    H236608   3.910   6.376  13.926 -0.0988  0.1089  0.9768
 5065TIP3   OH236609   2.668   5.954  15.899  0.4749 -0.1217  0.4752
 5065TIP3    H136610   2.748   5.942  15.950 -0.2383  0.0917  1.6869
 5065TIP3    H236611   2.628   5.867  15.898  0.0121  0.0764  1.1230
 5066TIP3   OH236612   1.228   2.591  14.474 -0.1420 -0.1199 -0.1105
 5066TIP3    H136613   1.190   2.530  14.537  0.7369  1.2929  1.9047
 5066TIP3    H236614   1.321   2.595  14.497 -0.1114  1.6710 -0.3726
 5067TIP3   OH236615   6.720   6.537  14.432 -0.2744  0.2326 -0.9407
 5067TIP3    H136616   6.714   6.443  14.412 -1.5335 -0.1059  0.7581
 5067TIP3    H236617   6.813   6.555  14.436  0.0885 -1.7265  1.8056
 5068TIP3   OH236618   0.737   6.779   2.049  0.4745  0.1925 -0.1514
 5068TIP3    H136619   0.672   6.748   2.113  0.9961 -0.4536  0.0850
 5068TIP3    H236620   0.695   6.768   1.964 -0.1824  0.9433  0.0719
 5069TIP3   OH236621   3.629   3.685   2.684  0.2824  0.2422 -0.5676
 5069TIP3    H136622   3.558   3.727   2.634 -0.1513 -1.5817 -1.5648
 5069TIP3    H236623   3.591   3.670   2.771 -1.0329 -1.7208 -1.4033
 5070TIP3   OH236624   6.392   3.850   1.628 -0.2481 -0.1193  0.3248
 5070TIP3    H136625   6.309   3.809   1.652 -0.2678 -0.1385  0.2237
 5070TIP3    H236626   6.412   3.816   1.541 -0.9876  1.1887 -0.3804
 5071TIP3   OH236627   5.032   0.589  14.541  0.5187  0.2442 -0.1467
 5071TIP3    H136628   4.953   0.589  14.595 -0.7448  0.6867 -1.8999
 5071TIP3    H236629   5.104   0.577  14.603 -0.8483  0.7554  1.6087
 5072TIP3   OH236630   5.891   1.164  15.510  0.2428 -0.1873  0.4939
 5072TIP3    H136631   5.952   1.091  15.501  0.2764 -0.0318 -0.5937
 5072TIP3    H236632   5.861   1.182  15.421 -0.8120  0.2359  0.9142
 5073TIP3   OH236633   3.729   2.821  13.955  0.1897 -0.0439 -0.6549
 5073TIP3    H136634   3.678   2.768  14.016 -0.3092  0.2593 -0.7999
 5073TIP3    H236635   3.763   2.893  14.008  0.4577 -0.2401 -0.5608
 5074TIP3   OH236636   0.489   3.594   1.507 -0.1145  0.0118  0.1903
 5074TIP3    H136637   0.569   3.543   1.492  0.8748  1.7473 -0.7946
 5074TIP3    H236638   0.429   3.565   1.438  0.4007  0.1008 -0.3056
 5075TIP3   OH236639   4.153   3.887  12.267 -0.3842  0.0538  0.0618
 5075TIP3    H136640   4.154   3.838  12.185  0.2713  0.7770 -0.3684
 5075TIP3    H236641   4.244   3.908  12.284 -0.8039  3.6872 -1.3289
 5076TIP3   OH236642   4.666   2.937   4.456 -0.3687  0.7044 -0.2335
 5076TIP3    H136643   4.633   3.020   4.422 -2.6431 -0.2472 -0.5670
 5076TIP3    H236644   4.605   2.914   4.526  0.9078 -0.1410  0.6467
 5077TIP3   OH236645   1.491   3.623  13.858  0.3471  0.3238  0.0948
 5077TIP3    H136646   1.501   3.665  13.943 -0.4802 -1.0249  0.9001
 5077TIP3    H236647   1.477   3.695  13.796  0.1378  1.2700  1.2231
 5078TIP3   OH236648   5.930   3.268  11.831  0.1284 -0.3565  0.2014
 5078TIP3    H136649   5.873   3.247  11.906  1.0961 -0.6625  0.8765
 5078TIP3    H236650   5.953   3.359  11.844 -1.2063  0.1597 -0.7809
 5079TIP3   OH236651   0.468   1.664  13.216 -0.0984  0.0926  0.0965
 5079TIP3    H136652   0.474   1.587  13.272 -0.9566  0.1459  0.2697
 5079TIP3    H236653   0.424   1.634  13.137  0.0790  0.2824 -0.0796
 5080TIP3   OH236654   6.395   4.547   4.192 -0.5754 -0.3932  0.2873
 5080TIP3    H136655   6.399   4.616   4.127  1.1307  0.3594  1.1017
 5080TIP3    H236656   6.326   4.574   4.252  0.2472  0.7969  0.7469
 5081TIP3   OH236657   5.911   4.523  16.713  0.1249 -0.3004 -0.2438
 5081TIP3    H136658   5.848   4.567  16.656  0.1409  0.8157  0.5667
 5081TIP3    H236659   5.989   4.579  16.709  1.1398 -1.7250 -1.3374
 5082TIP3   OH236660   1.434   3.898   2.582  0.2146  0.0471  0.5131
 5082TIP3    H136661   1.473   3.811   2.592  0.6331  0.2515  0.6929
 5082TIP3    H236662   1.370   3.888   2.512  0.4457 -0.3465  0.3567
 5083TIP3   OH236663   2.676   5.229   4.820 -0.0524  0.1913 -0.5369
 5083TIP3    H136664   2.688   5.303   4.762  1.3148 -0.6939 -1.4404
 5083TIP3    H236665   2.764   5.193   4.832 -0.1724  0.6697  2.5759
 5084TIP3   OH236666   5.908   6.527  13.764  0.2682 -0.1565 -0.2566
 5084TIP3    H136667   5.827   6.478  13.755  0.2599  0.1053 -1.8136
 5084TIP3    H236668   5.977   6.463  13.744  0.2112  0.6467 -3.3964
 5085TIP3   OH236669   4.083   4.783   2.406  0.1228  0.3698  0.2139
 5085TIP3    H136670   4.027   4.736   2.343 -1.4654  1.3365  0.8296
 5085TIP3    H236671   4.080   4.874   2.377 -0.2601  0.7537  1.3898
 5086TIP3   OH236672   1.133   2.248   4.681 -0.0013 -0.0904  1.0270
 5086TIP3    H136673   1.176   2.209   4.605  0.1420  0.7468  0.6706
 5086TIP3    H236674   1.203   2.257   4.746  0.4669  1.5203  0.3523
 5087TIP3   OH236675   1.353   6.666   2.848  0.2371 -0.2375 -0.5511
 5087TIP3    H136676   1.295   6.689   2.920  1.1254 -1.7059  0.7070
 5087TIP3    H236677   1.296   6.631   2.780 -0.5894  0.9272 -0.4804
 5088TIP3   OH236678   6.377   5.293  14.918  0.4328  0.4783  0.5124
 5088TIP3    H136679   6.326   5.359  14.963 -3.5366 -0.6705 -1.8267
 5088TIP3    H236680   6.349   5.210  14.956 -0.1461 -0.2476 -1.3868
 5089TIP3   OH236681   0.947   2.373   4.833  0.1326 -0.1645 -0.3049
 5089TIP3    H136682   0.931   2.456   4.788  2.1674  0.1945 -0.4713
 5089TIP3    H236683   1.028   2.340   4.794  0.6902 -0.9980  1.4632
 5090TIP3   OH236684   1.023   1.871  11.171  0.5992  0.5850 -0.4412
 5090TIP3    H136685   0.974   1.789  11.172 -0.5424  1.2470  0.9339
 5090TIP3    H236686   1.088   1.859  11.102 -0.4129 -0.9567 -1.1850
 5091TIP3   OH236687   2.936   3.439  17.254  0.4825  0.3018 -0.3607
 5091TIP3    H136688   2.933   3.387  17.334  0.3747  0.7556 -0.0634
 5091TIP3    H236689   2.867   3.504  17.266  0.4856  0.3919 -0.8113
 5092TIP3   OH236690   5.548   0.217   4.919  0.3064  0.1519  0.3300
 5092TIP3    H136691   5.524   0.253   4.834 -0.1939 -0.8400  0.0360
 5092TIP3    H236692   5.548   0.292   4.978 -1.7601  0.4919 -0.0307
 5093TIP3   OH236693   0.814   0.544  16.737 -0.3213  0.4661  0.6573
 5093TIP3    H136694   0.806   0.477  16.805 -1.8456 -0.8420 -0.7253
 5093TIP3    H236695   0.736   0.533  16.683  0.5658  1.8283 -1.0034
 5094TIP3   OH236696   0.909   6.715   1.050  0.1488 -0.6473  0.2072
 5094TIP3    H136697   0.924   6.651   1.120  0.7880 -1.2502 -0.4574
 5094TIP3    H236698   0.914   6.800   1.094 -1.3499 -1.0429  1.2264
 5095TIP3   OH236699   1.285   5.259  15.609 -0.1059  0.3433  0.2836
 5095TIP3    H136700   1.355   5.194  15.615 -0.6763 -0.2690  0.3767
 5095TIP3    H236701   1.208   5.216  15.646 -0.1549  1.5720  1.7282
 5096TIP3   OH236702   3.855   2.819   5.099  0.1849 -0.1569 -0.1318
 5096TIP3    H136703   3.800   2.849   5.026  1.4313  0.5958 -0.7889
 5096TIP3    H236704   3.943   2.812   5.062  0.7627 -0.1869  1.1949
 5097TIP3   OH236705   2.969   2.665   4.225  0.1287 -0.3455  0.9039
 5097TIP3    H136706   2.902   2.649   4.291 -0.0358 -1.7212  0.4340
 5097TIP3    H236707   2.921   2.696   4.148  0.2321  0.4034  1.1303
 5098TIP3   OH236708   0.585   1.513  11.169 -0.3632 -0.4339  0.1065
 5098TIP3    H136709   0.595   1.444  11.103 -0.3940 -1.0894  0.7628
 5098TIP3    H236710   0.569   1.465  11.251  2.7560  0.1649  1.2085
 5099TIP3   OH236711   3.746   6.120   4.265  0.0715  0.8731 -0.0032
 5099TIP3    H136712   3.723   6.028   4.276 -0.8030  1.0972  0.1645
 5099TIP3    H236713   3.775   6.127   4.174 -0.5884  0.5703 -0.2415
 5100TIP3   OH236714   1.786   5.854   3.972 -0.6213  0.1806  0.3833
 5100TIP3    H136715   1.713   5.793   3.960 -0.8226  0.7384 -1.6927
 5100TIP3    H236716   1.791   5.901   3.888  1.6831  0.6475  0.7277
 5101TIP3   OH236717   4.001   6.003  14.423 -0.4274  0.5520  0.4091
 5101TIP3    H136718   4.028   5.962  14.505 -2.8701 -1.0613  0.5018
 5101TIP3    H236719   4.071   6.066  14.404  1.3029 -0.5688  2.5541
 5102TIP3   OH236720   5.795   3.020  16.405 -1.1020  0.4105  0.4297
 5102TIP3    H136721   5.707   3.054  16.422 -0.6993  0.4543  2.8436
 5102TIP3    H236722   5.838   3.024  16.491  1.4654  0.9817 -0.8110
 5103TIP3   OH236723   4.643   1.532  10.968  0.1689 -0.2405  0.1792
 5103TIP3    H136724   4.689   1.611  10.938  1.7477 -0.5882  1.5334
 5103TIP3    H236725   4.695   1.502  11.043 -1.2029 -1.7856  0.5480
 5104TIP3   OH236726   1.448   4.834  14.487 -0.3598  0.3548 -0.5533
 5104TIP3    H136727   1.537   4.849  14.520 -0.7783  1.7573  0.0119
 5104TIP3    H236728   1.459   4.828  14.392  0.4358 -0.3057 -0.4285
 5105TIP3   OH236729   5.702   1.679   1.759  0.1931  0.1327  0.4753
 5105TIP3    H136730   5.730   1.626   1.834 -0.3160  0.3009  0.7909
 5105TIP3    H236731   5.630   1.732   1.793 -0.6824 -0.4678 -0.3757
 5106TIP3   OH236732   1.294   6.024  14.421 -0.1138 -0.1491  0.6063
 5106TIP3    H136733   1.386   6.014  14.395  0.1326  0.9356  1.0109
 5106TIP3    H236734   1.277   5.950  14.479  0.4097 -0.5229  0.2943
 5107TIP3   OH236735   1.249   2.278   5.781  0.7355 -0.6912 -0.0703
 5107TIP3    H136736   1.263   2.195   5.736  1.8449 -0.6736  0.2182
 5107TIP3    H236737   1.336   2.317   5.787  0.0571  1.2747 -1.6725
 5108TIP3   OH236738   0.643   3.889  12.447 -0.2244 -0.7376  0.1311
 5108TIP3    H136739   0.653   3.804  12.489  0.8604 -0.0268  1.3963
 5108TIP3    H236740   0.629   3.869  12.355  1.7983 -2.2583  0.0838
 5109TIP3   OH236741   4.656   4.249  12.008 -0.5288 -0.4127 -0.0362
 5109TIP3    H136742   4.700   4.192  12.070  1.1990  1.9286  1.0356
 5109TIP3    H236743   4.657   4.200  11.925  0.7528 -1.9514  0.8400
 5110TIP3   OH236744   2.061   2.286  16.208 -0.4791 -0.2963 -0.1790
 5110TIP3    H136745   2.012   2.208  16.181  0.0516 -1.0459  0.9346
 5110TIP3    H236746   2.139   2.251  16.252 -0.2267  0.8614  0.3305
 5111TIP3   OH236747   0.130   5.083   1.093  0.2538 -0.5902 -0.7338
 5111TIP3    H136748   0.167   5.145   1.157  1.6705 -1.2272 -0.9049
 5111TIP3    H236749   0.132   5.131   1.010  1.1986 -0.7860 -0.8370
 5112TIP3   OH236750   6.746   1.153   3.502 -0.4387 -0.0566  0.2535
 5112TIP3    H136751   6.721   1.215   3.569  3.0702  3.0704 -1.0038
 5112TIP3    H236752   6.836   1.127   3.524  0.3816  0.1322 -2.4637
 5113TIP3   OH236753   6.217   4.799  16.396 -0.3527 -0.7682  0.4661
 5113TIP3    H136754   6.178   4.794  16.309 -1.2227 -2.5376  0.8975
 5113TIP3    H236755   6.309   4.775  16.384 -0.1270  0.3324 -0.1242
 5114TIP3   OH236756   5.673   4.939   4.990 -0.2415 -0.1333  0.6039
 5114TIP3    H136757   5.735   4.875   5.022  1.3178  1.4652  0.9361
 5114TIP3    H236758   5.649   4.908   4.903  1.4359 -0.5564  0.2575
 5115TIP3   OH236759   3.048   1.631   2.005  0.3889 -0.3676 -0.3332
 5115TIP3    H136760   3.012   1.717   1.986  0.8898  0.0095  0.3499
 5115TIP3    H236761   3.117   1.648   2.070  0.2886 -1.3129  0.0385
 5116TIP3   OH236762   3.878   6.366   5.749 -0.1720 -0.6502 -0.0137
 5116TIP3    H136763   3.851   6.343   5.838  0.5061  1.1531  0.7113
 5116TIP3    H236764   3.797   6.391   5.705 -0.2935  0.3806  0.7453
 5117TIP3   OH236765   6.589   1.893   1.150  0.7376  0.5843  0.0241
 5117TIP3    H136766   6.512   1.934   1.190  0.6337  0.6172 -0.2090
 5117TIP3    H236767   6.651   1.966   1.139  0.9551  0.4878  0.5719
 5118TIP3   OH236768   4.546   1.286  17.115 -0.1449 -0.0073 -0.1881
 5118TIP3    H136769   4.616   1.348  17.094  0.8906 -1.0234  0.1583
 5118TIP3    H236770   4.488   1.334  17.174  0.9957  0.4257  0.6103
 5119TIP3   OH236771   5.845   5.474   0.657 -0.2600 -0.3497 -0.3502
 5119TIP3    H136772   5.813   5.539   0.720  0.2822  1.0625 -1.4651
 5119TIP3    H236773   5.865   5.397   0.710 -1.9574 -0.0025  0.8736
 5120TIP3   OH236774   1.889   4.586   1.255 -0.3813 -0.4783 -0.1547
 5120TIP3    H136775   1.962   4.529   1.278  0.6186 -0.2511 -2.4802
 5120TIP3    H236776   1.814   4.527   1.247  0.0630 -1.0692 -0.0118
 5121TIP3   OH236777   4.958   3.674  14.310  0.4396 -0.0492 -0.2293
 5121TIP3    H136778   4.974   3.700  14.220  0.2271  1.3725  0.1110
 5121TIP3    H236779   4.912   3.590  14.304 -1.1811  0.8696 -1.5230
 5122TIP3   OH236780   0.257   5.265  16.155 -0.5323 -0.1513 -0.3840
 5122TIP3    H136781   0.184   5.259  16.094 -0.1488 -1.0206 -0.7731
 5122TIP3    H236782   0.332   5.288  16.100  0.0869 -2.2093 -0.4850
 5123TIP3   OH236783   6.093   0.053   4.351 -0.6881 -0.3916 -0.2085
 5123TIP3    H136784   6.029   0.036   4.419 -0.5637 -1.1093 -0.2651
 5123TIP3    H236785   6.055   0.014   4.272 -1.5103  1.6580 -0.9127
 5124TIP3   OH236786   5.242   4.712   5.314  0.2605 -0.4663 -0.5431
 5124TIP3    H136787   5.229   4.684   5.404  0.9208 -1.8315 -0.8448
 5124TIP3    H236788   5.329   4.751   5.312  0.0476  0.0148 -0.4909
 5125TIP3   OH236789   1.414   0.483   0.811 -0.1628 -0.1117  0.6824
 5125TIP3    H136790   1.408   0.489   0.906  3.3862  0.4227  1.0119
 5125TIP3    H236791   1.508   0.477   0.793 -0.5945  1.2372 -2.8694
 5126TIP3   OH236792   0.568   6.252   1.121 -0.1426  0.1305 -0.2837
 5126TIP3    H136793   0.526   6.222   1.202 -1.9293  0.2652 -1.1056
 5126TIP3    H236794   0.504   6.231   1.052  0.5126  1.7096 -1.4257
 5127TIP3   OH236795   2.376   3.547  16.478  0.0286 -0.0588 -0.5318
 5127TIP3    H136796   2.343   3.547  16.568  0.2305 -0.7907 -0.4500
 5127TIP3    H236797   2.462   3.590  16.484  0.3815 -0.7957 -0.2413
 5128TIP3   OH236798   5.274   0.259  11.872 -0.2100  0.0521 -0.1846
 5128TIP3    H136799   5.344   0.282  11.812 -1.4065  0.0359 -1.6463
 5128TIP3    H236800   5.207   0.219  11.817 -0.9840 -0.8075  1.3032
 5129TIP3   OH236801   6.425   0.906   3.535 -0.3806  0.4921 -0.2969
 5129TIP3    H136802   6.500   0.884   3.591 -0.8788  1.6611  0.8913
 5129TIP3    H236803   6.407   0.998   3.554 -3.2995 -0.1989  0.9697
 5130TIP3   OH236804   3.791   1.306  12.797  0.1402 -0.1459 -0.4204
 5130TIP3    H136805   3.877   1.299  12.756  1.3474  3.3303  1.2075
 5130TIP3    H236806   3.805   1.281  12.888 -1.0183 -1.2005 -0.4998
 5131TIP3   OH236807   4.877   4.155   4.065 -0.1654 -0.3083  0.0547
 5131TIP3    H136808   4.962   4.113   4.053 -0.7219 -1.2629 -0.7116
 5131TIP3    H236809   4.815   4.082   4.067 -0.9763  0.3783  0.5593
 5132TIP3   OH236810   2.218   0.528  15.500  0.2855  0.0363 -0.1200
 5132TIP3    H136811   2.169   0.500  15.423  0.3553  0.3843 -0.2883
 5132TIP3    H236812   2.306   0.494  15.487  0.3800  0.3662 -0.3429
 5133TIP3   OH236813   4.344   2.844  16.877  0.0785 -0.2397  0.1250
 5133TIP3    H136814   4.389   2.918  16.918  0.3717  1.2931 -2.7387
 5133TIP3    H236815   4.414   2.783  16.853  0.1483 -0.0312 -0.1999
 5134TIP3   OH236816   3.505   2.382  12.890 -0.4466 -0.8674  0.5051
 5134TIP3    H136817   3.511   2.331  12.809  0.5545 -0.4262  0.2819
 5134TIP3    H236818   3.423   2.432  12.880  0.2144  0.0398 -0.7700
 5135TIP3   OH236819   4.212   6.110   5.331  0.2253 -0.1888  0.1275
 5135TIP3    H136820   4.175   6.038   5.281 -1.0893  0.0669  0.6778
 5135TIP3    H236821   4.136   6.159   5.362  0.9967  0.0615  1.7637
 5136TIP3   OH236822   3.528   6.206  14.496 -0.6265  0.3459 -0.3629
 5136TIP3    H136823   3.484   6.159  14.425 -1.2842 -1.6945  1.2736
 5136TIP3    H236824   3.474   6.190  14.573  2.4666 -1.7099  1.6282
 5137TIP3   OH236825   5.889   2.805  12.494 -0.6807 -0.2936 -0.0846
 5137TIP3    H136826   5.858   2.888  12.459  0.0155  0.4752  1.0647
 5137TIP3    H236827   5.955   2.829  12.559  1.4229 -1.7956 -1.5118
 5138TIP3   OH236828   4.845   1.518  16.150 -0.1627  0.2235  0.5772
 5138TIP3    H136829   4.805   1.535  16.065  0.6299 -1.0448 -0.0906
 5138TIP3    H236830   4.852   1.604  16.191  0.5894  1.0504 -1.1830
 5139TIP3   OH236831   6.774   6.658  12.132  0.4259 -0.4875 -0.1183
 5139TIP3    H136832   6.736   6.659  12.044 -0.2301 -4.1597 -0.0600
 5139TIP3    H236833   6.868   6.667  12.117  0.2139  0.5259 -1.0132
 5140TIP3   OH236834   2.971   2.955  15.487  0.7422  0.2176 -0.2704
 5140TIP3    H136835   2.922   2.876  15.511  0.0557  0.9345  0.8216
 5140TIP3    H236836   3.059   2.939  15.519  0.8760 -0.5279 -0.9985
 5141TIP3   OH236837   2.609   4.830   2.015  0.3373 -0.5000  0.1884
 5141TIP3    H136838   2.634   4.820   2.107  1.4887 -1.0712 -0.1685
 5141TIP3    H236839   2.513   4.832   2.017  0.3487  0.2824  1.4644
 5142TIP3   OH236840   3.494   2.923   2.378 -0.1321 -0.0928  0.2091
 5142TIP3    H136841   3.482   2.881   2.293 -0.0053  0.2131  0.0367
 5142TIP3    H236842   3.564   2.986   2.363 -0.3131  0.1703  0.4644
 5143TIP3   OH236843   6.144   2.504  13.521 -0.1169 -0.1859  0.6121
 5143TIP3    H136844   6.150   2.453  13.602  0.0927 -0.1406  0.6265
 5143TIP3    H236845   6.141   2.595  13.551 -1.2249 -0.2177  0.6170
 5144TIP3   OH236846   0.164   4.170   2.565 -0.1448 -0.2556  0.4650
 5144TIP3    H136847   0.201   4.254   2.537  0.4105  0.1756  2.3417
 5144TIP3    H236848   0.178   4.168   2.660 -2.7203 -1.2161  0.8938
 5145TIP3   OH236849   3.015   6.253  11.714 -0.8499 -0.6568  0.2865
 5145TIP3    H136850   3.038   6.162  11.735  0.8114 -0.2788  0.2338
 5145TIP3    H236851   3.016   6.257  11.619 -0.4124 -0.4602  0.2992
 5146TIP3   OH236852   2.152   1.354  16.477 -0.0500 -0.3495 -1.0561
 5146TIP3    H136853   2.123   1.438  16.511  0.3481 -1.0648  1.1650
 5146TIP3    H236854   2.170   1.301  16.554  0.0420 -2.3788 -2.3897
 5147TIP3   OH236855   3.056   4.423   1.587  0.4139  0.5471  0.5376
 5147TIP3    H136856   3.057   4.363   1.512  1.0372  0.2761  0.7554
 5147TIP3    H236857   3.073   4.509   1.549  1.8101  0.2742  0.4642
 5148TIP3   OH236858   2.125   1.637  14.607  0.0922 -0.0878 -0.1821
 5148TIP3    H136859   2.071   1.638  14.529 -1.6813 -0.1092  1.0035
 5148TIP3    H236860   2.177   1.556  14.599 -0.9547 -0.7241 -0.7455
 5149TIP3   OH236861   2.607   0.578   3.159 -0.2480  0.2904  0.6130
 5149TIP3    H136862   2.624   0.663   3.117 -0.9048  0.0622 -0.1571
 5149TIP3    H236863   2.648   0.514   3.101  1.2780  0.1339  1.8066
 5150TIP3   OH236864   1.652   3.368  11.774  0.1173  0.4271 -0.4234
 5150TIP3    H136865   1.668   3.273  11.768 -0.7402  0.2825 -0.6943
 5150TIP3    H236866   1.676   3.391  11.863  0.8508  0.0587 -0.5157
 5151TIP3   OH236867   4.365   4.170   1.414  0.0815  0.1064 -0.3311
 5151TIP3    H136868   4.273   4.178   1.389 -0.3093 -1.1638  0.5957
 5151TIP3    H236869   4.382   4.248   1.468 -0.6208  0.0457 -0.0152
 5152TIP3   OH236870   5.528   1.599   3.566 -0.1517 -0.2780  0.2118
 5152TIP3    H136871   5.566   1.611   3.652  1.7826 -0.7236 -0.5249
 5152TIP3    H236872   5.467   1.673   3.555  2.0552  1.7139  0.6717
 5153TIP3   OH236873   0.387   5.324  13.888  0.2133  0.0940  0.6651
 5153TIP3    H136874   0.472   5.317  13.932 -0.0028 -0.1888  1.0436
 5153TIP3    H236875   0.344   5.240  13.906  0.3225 -0.2359 -0.5184
 5154TIP3   OH236876   0.609   5.032  14.530  0.0522  0.0653  0.0762
 5154TIP3    H136877   0.536   4.997  14.479 -0.2917 -0.6067  0.9875
 5154TIP3    H236878   0.570   5.101  14.584  0.1905  0.0670  0.1754
 5155TIP3   OH236879   5.795   2.341  14.179  0.0417 -0.5528 -0.1799
 5155TIP3    H136880   5.877   2.372  14.217  0.8627  0.1546 -2.3645
 5155TIP3    H236881   5.733   2.413  14.193 -0.0889 -0.8695  0.9917
 5156TIP3   OH236882   5.546   1.633  12.107 -0.0733 -0.0457  0.1205
 5156TIP3    H136883   5.625   1.583  12.125  0.6310  1.0336  0.0906
 5156TIP3    H236884   5.478   1.590  12.161  0.7514 -0.3401  0.9586
 5157TIP3   OH236885   4.890   4.031  14.827 -0.2494  0.0165 -0.2243
 5157TIP3    H136886   4.968   4.081  14.854  1.7255 -2.8815 -0.0471
 5157TIP3    H236887   4.860   3.990  14.908  0.0625 -1.4247 -0.8075
 5158TIP3   OH236888   2.566   5.695  15.958 -0.3087 -0.0266 -0.0038
 5158TIP3    H136889   2.564   5.724  16.049 -0.4913  2.4823 -0.7443
 5158TIP3    H236890   2.490   5.638  15.949 -0.2242 -0.3970  1.4253
 5159TIP3   OH236891   5.479   6.363   6.470  0.0848  0.5789 -0.1038
 5159TIP3    H136892   5.398   6.401   6.436 -0.3239 -0.3109 -0.1603
 5159TIP3    H236893   5.451   6.313   6.547  0.2533 -1.3084 -1.2143
 5160TIP3   OH236894   2.476   4.644  12.852 -0.3453 -0.3697  0.3987
 5160TIP3    H136895   2.454   4.679  12.766  0.4326 -1.5612 -0.3224
 5160TIP3    H236896   2.552   4.587  12.836  0.0616 -0.3093  1.9387
 5161TIP3   OH236897   0.449   3.248   2.456 -0.0190  0.1169 -0.0430
 5161TIP3    H136898   0.409   3.217   2.375 -0.6615 -0.2363  0.3984
 5161TIP3    H236899   0.430   3.180   2.520  2.3805 -0.6724 -0.0922
 5162TIP3   OH236900   3.889   6.740   5.657  0.1402 -0.7297 -0.5689
 5162TIP3    H136901   3.933   6.738   5.741 -2.3763 -1.1949  0.8230
 5162TIP3    H236902   3.878   6.833   5.638 -0.9856 -0.5965  0.6139
 5163TIP3   OH236903   4.950   0.682   3.407  0.2866 -0.3131  0.0496
 5163TIP3    H136904   5.038   0.659   3.375  0.8833 -0.3746  1.6390
 5163TIP3    H236905   4.966   0.726   3.491 -1.1757  0.3819 -0.0057
 5164TIP3   OH236906   4.006   2.203  15.032 -0.5455 -0.1805  0.1337
 5164TIP3    H136907   4.067   2.130  15.027 -1.7003 -1.1673 -0.1130
 5164TIP3    H236908   4.003   2.238  14.943 -0.5403 -0.3012  0.0863
 5165TIP3   OH236909   1.917   5.498   0.398  0.2046 -0.2731  0.0847
 5165TIP3    H136910   1.853   5.569   0.391 -0.5005 -0.9521 -0.5003
 5165TIP3    H236911   1.999   5.542   0.421 -0.5000  0.5848  1.0306
 5166TIP3   OH236912   1.045   2.953   0.391 -0.2536 -0.2844  0.1736
 5166TIP3    H136913   1.014   2.931   0.479 -0.7100  0.3147  0.1704
 5166TIP3    H236914   1.141   2.956   0.400 -0.3346  0.6378  0.8749
 5167TIP3   OH236915   5.684   4.828   2.500 -0.3986 -0.0175  0.7483
 5167TIP3    H136916   5.688   4.747   2.449 -0.8214  0.2555  0.2627
 5167TIP3    H236917   5.596   4.828   2.537 -0.5747  0.4546  0.3413
 5168TIP3   OH236918   4.570   3.286  17.105 -0.2752 -0.1762 -0.1772
 5168TIP3    H136919   4.514   3.363  17.106 -0.5003 -0.3369  0.5414
 5168TIP3    H236920   4.652   3.316  17.069  0.1279  0.7656  1.4076
 5169TIP3   OH236921   4.911   1.681   1.832  0.8195 -0.0356  0.4518
 5169TIP3    H136922   5.002   1.688   1.803  1.7371 -1.9375  2.5308
 5169TIP3    H236923   4.898   1.587   1.846 -1.4808  0.1941  0.2352
 5170TIP3   OH236924   4.570   3.878  16.873 -0.3513 -0.3131  0.2781
 5170TIP3    H136925   4.574   3.802  16.815  1.4940 -0.7184  0.8624
 5170TIP3    H236926   4.651   3.874  16.923 -0.4528  1.7655  0.7039
 5171TIP3   OH236927   5.022   1.259  17.164  0.4459  0.3612 -0.3775
 5171TIP3    H136928   5.046   1.231  17.252 -1.6418  0.4101  0.2565
 5171TIP3    H236929   4.975   1.185  17.127 -0.2591  0.9858 -0.7671
 5172TIP3   OH236930   5.974   1.425  11.591  0.3895  0.3735 -0.2291
 5172TIP3    H136931   5.914   1.361  11.629 -0.5421 -0.5053 -2.9401
 5172TIP3    H236932   5.971   1.499  11.651 -1.4830 -0.6126  1.0050
 5173TIP3   OH236933   5.858   3.857   4.365 -0.0424 -0.8281 -0.0600
 5173TIP3    H136934   5.948   3.852   4.395 -0.6207 -2.1962  1.5792
 5173TIP3    H236935   5.811   3.903   4.434 -0.5362  0.3447 -1.1340
 5174TIP3   OH236936   0.529   3.034  15.937 -0.2937 -0.0353  1.1894
 5174TIP3    H136937   0.601   3.089  15.907 -1.2138  0.8717  0.5630
 5174TIP3    H236938   0.491   2.997  15.857  0.2504 -1.5504  1.5910
 5175TIP3   OH236939   4.654   3.816  14.005 -0.2856  0.1758 -0.1847
 5175TIP3    H136940   4.584   3.780  13.949  1.1272 -0.4104 -1.6562
 5175TIP3    H236941   4.615   3.894  14.044 -1.4675  0.4078 -1.7209
 5176TIP3   OH236942   0.851   2.986  16.356  0.4220  0.1137  0.2408
 5176TIP3    H136943   0.816   3.074  16.341  1.0740  0.2847 -0.2917
 5176TIP3    H236944   0.777   2.927  16.339  0.9903  0.2721 -3.5791
 5177TIP3   OH236945   0.997   3.455  14.255 -0.5493 -0.0617 -0.0615
 5177TIP3    H136946   1.028   3.516  14.322 -0.8582 -0.4382  0.4297
 5177TIP3    H236947   1.009   3.502  14.173  0.8815 -0.0108  0.1423
 5178TIP3   OH236948   5.174   0.007   4.777 -0.3338 -0.1994 -0.2314
 5178TIP3    H136949   5.209   0.027   4.864 -2.4019  1.9238  0.2316
 5178TIP3    H236950   5.211  -0.078   4.755 -0.2735 -1.1712  3.0263
 5179TIP3   OH236951   2.759   3.088  13.946  0.2895 -0.3882 -0.0278
 5179TIP3    H136952   2.749   3.170  13.897 -0.7651 -0.2435  0.3875
 5179TIP3    H236953   2.769   3.021  13.879 -0.2070 -0.0785 -0.4236
 5180TIP3   OH236954   6.712   1.871  11.480  0.0268  0.0088  0.0835
 5180TIP3    H136955   6.685   1.918  11.402  2.2422  0.4167 -0.4898
 5180TIP3    H236956   6.788   1.920  11.513  2.2836 -2.8849 -0.3895
 5181TIP3   OH236957   4.950   4.450   5.932  0.3776  0.2067  0.0531
 5181TIP3    H136958   4.923   4.359   5.927 -1.6619  0.7457  0.3440
 5181TIP3    H236959   4.928   4.478   6.021 -0.7721  1.4560 -0.5827
 5182TIP3   OH236960   2.084   6.346  15.164  0.0099  0.3371  0.1861
 5182TIP3    H136961   2.081   6.341  15.260 -0.2065 -1.3509  0.1102
 5182TIP3    H236962   2.016   6.410  15.142  0.7729  1.5513  1.1893
 5183TIP3   OH236963   2.854   0.323  11.164 -0.2161  0.4607 -0.3376
 5183TIP3    H136964   2.883   0.398  11.112  1.0424 -0.5609 -1.1576
 5183TIP3    H236965   2.763   0.309  11.137 -1.0398  2.6523  1.0225
 5184TIP3   OH236966   1.188   3.492  11.570 -0.1302 -0.2135  0.2352
 5184TIP3    H136967   1.137   3.529  11.642 -0.3422 -1.3657  0.6966
 5184TIP3    H236968   1.128   3.489  11.496 -0.3620 -0.3951  0.4290
 5185TIP3   OH236969   2.739   3.166  11.793  0.0457  0.0218  0.3108
 5185TIP3    H136970   2.648   3.159  11.765  0.6532  0.0510 -1.8810
 5185TIP3    H236971   2.764   3.256  11.771  1.2728 -0.6984 -1.5656
 5186TIP3   OH236972   4.666   0.686  12.837  0.0107 -0.3907 -0.4008
 5186TIP3    H136973   4.673   0.675  12.932 -1.0630 -1.2891 -0.4027
 5186TIP3    H236974   4.634   0.601  12.805 -1.8151  0.5726 -1.2895
 5187TIP3   OH236975   1.978   6.689  11.890 -0.1453  0.7870  0.3736
 5187TIP3    H136976   1.904   6.634  11.862  0.0706  0.6852 -0.0143
 5187TIP3    H236977   1.977   6.684  11.985 -0.8197  1.0229  0.3856
 5188TIP3   OH236978   3.800   6.303   4.666 -0.6956 -0.1001 -0.1058
 5188TIP3    H136979   3.713   6.265   4.650 -1.0104  0.1485  0.9451
 5188TIP3    H236980   3.797   6.388   4.621 -1.0974  0.0255  0.1489
 5189TIP3   OH236981   3.357   1.448   2.922 -0.0327  0.2912 -0.2519
 5189TIP3    H136982   3.367   1.536   2.958  0.8362  0.0683  0.1019
 5189TIP3    H236983   3.447   1.419   2.907 -0.2992 -0.6577 -0.0603
 5190TIP3   OH236984   5.916   2.519  13.101  0.6166  0.0157  0.2202
 5190TIP3    H136985   5.904   2.545  13.192  3.1831 -0.9429  0.9074
 5190TIP3    H236986   5.829   2.528  13.062  0.0304  3.6388  1.8790
 5191TIP3   OH236987   6.458   1.326   3.284  0.2814 -0.6759  0.4581
 5191TIP3    H136988   6.495   1.238   3.297  0.5242 -0.5372  0.7288
 5191TIP3    H236989   6.380   1.327   3.339  0.9546 -0.3116  1.4475
 5192TIP3   OH236990   6.457   1.453  15.609 -0.3385 -0.0161  0.1307
 5192TIP3    H136991   6.400   1.501  15.669  0.5321  0.5169  0.5457
 5192TIP3    H236992   6.397   1.417  15.544 -1.3882 -1.1643  1.6609
 5193TIP3   OH236993   5.599   3.481  14.256  0.3626 -0.0211 -0.3399
 5193TIP3    H136994   5.653   3.533  14.315 -1.1911  0.2351  0.9486
 5193TIP3    H236995   5.625   3.508  14.168 -0.4981  3.1764  0.2389
 5194TIP3   OH236996   1.227   6.374  13.505  0.3915 -0.5411  0.1359
 5194TIP3    H136997   1.210   6.283  13.530 -2.4559 -0.0473  0.3732
 5194TIP3    H236998   1.211   6.423  13.586 -0.6333  0.3552 -0.5911
 5195TIP3   OH236999   2.489   0.116   6.463 -0.3263  0.4506  0.3797
 5195TIP3    H137000   2.484   0.200   6.508 -3.2358  1.1479 -0.9560
 5195TIP3    H237001   2.398   0.095   6.442  0.4018 -2.5173 -0.3180
 5196TIP3   OH237002   6.379   3.423  15.130  0.2015  0.3002 -0.2721
 5196TIP3    H137003   6.458   3.421  15.076  0.7842 -1.7238  0.5635
 5196TIP3    H237004   6.369   3.515  15.154  1.6385  0.7719 -1.3275
 5197TIP3   OH237005   6.255   0.915  11.385 -0.4706  0.6600  0.3706
 5197TIP3    H137006   6.167   0.952  11.382 -1.8569 -2.3430 -2.7701
 5197TIP3    H237007   6.291   0.932  11.298 -0.1412 -2.5884 -0.2489
 5198TIP3   OH237008   4.127   1.664   4.888 -0.4322 -0.1245 -0.2604
 5198TIP3    H137009   4.088   1.658   4.801  2.3755 -2.5661 -1.5274
 5198TIP3    H237010   4.191   1.735   4.881  0.4681 -0.9380 -0.5582
 5199TIP3   OH237011   1.765   3.323  16.635  0.2218  0.0464 -0.1016
 5199TIP3    H137012   1.805   3.239  16.654 -1.5801 -0.5903  1.1076
 5199TIP3    H237013   1.830   3.369  16.582  0.6503 -2.6868 -2.1754
 5200TIP3   OH237014   6.723   5.763   4.362  0.0331 -0.3508  0.0022
 5200TIP3    H137015   6.654   5.697   4.360 -0.6517  0.3557 -1.8956
 5200TIP3    H237016   6.699   5.820   4.435 -1.1619 -0.3910 -0.3266
 5201TIP3   OH237017   1.663   6.722  11.878  0.5853 -0.1379 -0.2146
 5201TIP3    H137018   1.598   6.704  11.810  2.4463 -2.1804 -1.5773
 5201TIP3    H237019   1.726   6.779  11.836  0.8585 -0.0134  0.3629
 5202TIP3   OH237020   4.297   3.457   3.006 -0.2784  0.4986  0.2327
 5202TIP3    H137021   4.205   3.481   2.998 -0.4457 -0.1786  0.0163
 5202TIP3    H237022   4.300   3.398   3.081 -0.5090 -1.6689 -1.3703
 5203TIP3   OH237023   0.942   0.170   2.093 -0.2110  0.3495  0.0142
 5203TIP3    H137024   0.863   0.120   2.076 -0.5941  1.0876 -0.4357
 5203TIP3    H237025   0.995   0.159   2.014 -0.1529  0.3799  0.0490
 5204TIP3   OH237026   1.206   4.776  14.000 -0.2626 -0.3395 -0.2063
 5204TIP3    H137027   1.270   4.788  13.930 -1.0322  0.5262 -0.7836
 5204TIP3    H237028   1.199   4.862  14.042  2.0461 -1.3801  2.6397
 5205TIP3   OH237029   1.970   0.192  13.298  0.1964  0.0208 -0.2361
 5205TIP3    H137030   1.963   0.247  13.376 -1.1774  0.2008 -0.4584
 5205TIP3    H237031   2.059   0.205  13.267  1.0513 -0.7075  1.7644
 5206TIP3   OH237032   4.617   0.030  12.141 -0.3750 -0.3254  0.1333
 5206TIP3    H137033   4.538  -0.014  12.173 -0.1660  0.3285  1.6391
 5206TIP3    H237034   4.586   0.087  12.070 -1.1168 -0.6530  0.1840
 5207TIP3   OH237035   5.845   5.018   5.214  0.7494 -0.1129 -0.3051
 5207TIP3    H137036   5.905   5.050   5.282  1.9704 -2.9890  0.0958
 5207TIP3    H237037   5.874   4.929   5.197 -1.7944 -0.6852 -2.0724
 5208TIP3   OH237038   4.063   1.152  15.653  0.4709 -0.0314 -0.1544
 5208TIP3    H137039   4.101   1.085  15.597  0.0953  0.7372 -1.3799
 5208TIP3    H237040   4.023   1.104  15.725 -1.1671 -1.2868 -1.7882
 5209TIP3   OH237041   0.780   6.753   0.774 -0.3577  0.1539 -0.6661
 5209TIP3    H137042   0.844   6.752   0.845  0.0564 -0.2522 -1.0475
 5209TIP3    H237043   0.724   6.829   0.794 -0.8638 -0.5343  0.6365
 5210TIP3   OH237044   6.622   2.550  12.507 -0.3766  0.0722  0.1763
 5210TIP3    H137045   6.599   2.577  12.418  0.3551  1.5069  0.3894
 5210TIP3    H237046   6.717   2.562  12.512 -0.2632 -0.9862  0.8426
 5211TIP3   OH237047   4.973   6.369  11.645  0.0544 -0.4975  0.2182
 5211TIP3    H137048   5.001   6.278  11.654 -0.0444 -0.4970  0.5347
 5211TIP3    H237049   4.882   6.364  11.616 -0.7675 -0.5261  2.6101
 5212TIP3   OH237050   0.606   5.579  10.770  0.1373  0.5513  0.0201
 5212TIP3    H137051   0.646   5.590  10.684  1.9530 -0.5562  0.6498
 5212TIP3    H237052   0.668   5.523  10.818 -0.1451  2.1391  2.4560
 5213TIP3   OH237053   3.273   0.241  12.444  0.2397 -0.8720  0.8991
 5213TIP3    H137054   3.187   0.201  12.456  0.4073 -0.9832  1.7963
 5213TIP3    H237055   3.333   0.166  12.438  0.2548 -0.8026  0.0267
 5214TIP3   OH237056   2.121   1.853   4.272 -0.3387 -0.7355 -0.0447
 5214TIP3    H137057   2.075   1.891   4.347  0.8828  1.7113 -0.4096
 5214TIP3    H237058   2.192   1.916   4.254 -0.9515 -0.8752 -3.6437
 5215TIP3   OH237059   6.258   5.512   0.605 -0.5977  0.0392 -0.2780
 5215TIP3    H137060   6.249   5.489   0.512 -0.0025 -0.1494 -0.2905
 5215TIP3    H237061   6.206   5.592   0.615  0.7862  1.0911 -1.1774
 5216TIP3   OH237062   6.773   2.637  10.151 -0.7068 -0.0616 -0.5517
 5216TIP3    H137063   6.679   2.638  10.168 -0.5606 -0.2066  0.3170
 5216TIP3    H237064   6.788   2.555  10.104 -1.2359  0.6982 -2.0816
 5217TIP3   OH237065   2.732   0.953  15.500  0.8836  0.3481 -0.0167
 5217TIP3    H137066   2.645   0.982  15.528  0.0088 -1.2916 -0.8936
 5217TIP3    H237067   2.771   0.915  15.579 -0.0372 -0.7654 -0.0732
 5218TIP3   OH237068   2.816   5.551  14.450  0.3882  0.2951 -0.0594
 5218TIP3    H137069   2.745   5.550  14.514 -0.3636  0.7992 -0.8547
 5218TIP3    H237070   2.811   5.638  14.410  0.7313 -0.0739 -0.9249
 5219TIP3   OH237071   2.511   0.866   3.698  0.6954  0.9788  0.4075
 5219TIP3    H137072   2.418   0.845   3.708  0.1492  3.2147  0.7131
 5219TIP3    H237073   2.546   0.796   3.643 -1.2762  0.3528 -0.1413
 5220TIP3   OH237074   5.650   6.037  13.309 -0.3859 -0.1133  0.1938
 5220TIP3    H137075   5.561   6.020  13.277  0.3182 -0.0653 -1.9284
 5220TIP3    H237076   5.707   6.013  13.237  1.2132  2.0461  0.6119
 5221TIP3   OH237077   4.881   0.610  14.073  0.2157 -0.4423 -0.5256
 5221TIP3    H137078   4.855   0.638  13.985  1.0091 -0.8028 -0.8826
 5221TIP3    H237079   4.857   0.517  14.076  0.5820 -0.5375 -0.5182
 5222TIP3   OH237080   0.071   0.693  14.892 -0.9237 -0.3592 -0.3668
 5222TIP3    H137081   0.055   0.604  14.860  2.5697 -1.2746 -0.0120
 5222TIP3    H237082   0.047   0.749  14.818 -1.2609 -1.7444 -1.3584
 5223TIP3   OH237083   0.484   0.855   6.019 -0.0048 -0.4659 -0.3404
 5223TIP3    H137084   0.437   0.775   5.994  0.1299 -0.7864  0.4021
 5223TIP3    H237085   0.571   0.844   5.979  0.2493 -1.0275  0.3468
 5224TIP3   OH237086   0.837   0.478  12.722  0.5559  0.2030  0.4556
 5224TIP3    H137087   0.871   0.561  12.756  0.6192  0.7723 -0.9243
 5224TIP3    H237088   0.806   0.431  12.799 -0.9179  2.1654  1.1434
 5225TIP3   OH237089   5.423   2.510   5.694  0.2332 -0.5386 -0.6848
 5225TIP3    H137090   5.405   2.440   5.757  0.6033  0.7250  0.8629
 5225TIP3    H237091   5.511   2.540   5.715  0.4078 -0.1355 -1.8861
 5226TIP3   OH237092   1.024   3.815   6.441 -0.0593  0.1786 -0.0645
 5226TIP3    H137093   1.047   3.896   6.486 -1.8424  0.2385  0.8371
 5226TIP3    H237094   1.107   3.781   6.408  1.1613  0.8065  2.1534
 5227TIP3   OH237095   3.473   3.912  11.291  0.3353  0.2604 -0.0801
 5227TIP3    H137096   3.540   3.853  11.256 -0.3605  0.1389 -1.2931
 5227TIP3    H237097   3.472   3.986  11.229 -0.6023  0.2781 -0.0631
 5228TIP3   OH237098   0.179   4.497  15.428  0.3987 -0.0407  0.1005
 5228TIP3    H137099   0.102   4.489  15.484  1.2014 -1.8648  1.0029
 5228TIP3    H237100   0.144   4.519  15.342 -1.0628  0.0144  0.6920
 5229TIP3   OH237101   0.921   6.477  13.162 -0.2328  0.0804  0.2188
 5229TIP3    H137102   0.846   6.472  13.221 -0.3332 -1.5501  0.0047
 5229TIP3    H237103   0.883   6.472  13.075 -0.0248  1.6549  0.0224
 5230TIP3   OH237104   4.746   1.290   0.402  0.1955 -0.2040 -0.0454
 5230TIP3    H137105   4.790   1.373   0.423  1.6798 -1.1198  0.7199
 5230TIP3    H237106   4.704   1.264   0.484  0.7367 -0.7581  0.0682
 5231TIP3   OH237107   2.658   4.503  13.712 -0.1308  0.2006  0.2906
 5231TIP3    H137108   2.579   4.504  13.765  0.9455 -0.7810  2.0142
 5231TIP3    H237109   2.730   4.501  13.775  1.2678  0.4690 -1.2121
 5232TIP3   OH237110   4.671   3.922   3.998 -0.0883 -0.0858 -0.2730
 5232TIP3    H137111   4.615   3.882   4.065  0.3571 -1.3073 -0.6075
 5232TIP3    H237112   4.638   3.887   3.916 -1.8912  2.8813 -0.9632
 5233TIP3   OH237113   4.859   4.362  11.754 -0.3955 -0.2086 -0.2423
 5233TIP3    H137114   4.948   4.330  11.770  0.4322  2.0614  0.1125
 5233TIP3    H237115   4.807   4.325  11.826  0.2979 -1.3796 -0.3208
 5234TIP3   OH237116   3.153   5.432   5.662  0.5913  0.0725 -0.3799
 5234TIP3    H137117   3.098   5.372   5.612 -0.3245  0.0264  0.6461
 5234TIP3    H237118   3.235   5.385   5.676  0.2365 -0.5584 -0.4185
 5235TIP3   OH237119   3.957   5.810  12.019 -0.0454 -0.2636  0.3906
 5235TIP3    H137120   3.974   5.902  12.040 -0.0275 -0.2122  0.1491
 5235TIP3    H237121   3.905   5.778  12.094 -1.4572  0.3746 -0.2719
 5236TIP3   OH237122   0.404   5.708  16.779  0.2160  0.0645  0.2288
 5236TIP3    H137123   0.422   5.614  16.782  0.4018  0.0986  3.0645
 5236TIP3    H237124   0.325   5.720  16.832  0.7421  1.5958  0.7318
 5237TIP3   OH237125   3.688   4.211   4.933  0.5541 -0.2732  0.1201
 5237TIP3    H137126   3.662   4.118   4.930 -0.5975 -0.0530  1.9243
 5237TIP3    H237127   3.652   4.243   5.015 -0.4933  2.2005 -1.1946
 5238TIP3   OH237128   4.321   2.673  15.108 -0.0586  0.2173 -0.2608
 5238TIP3    H137129   4.397   2.631  15.148 -0.5710  0.4425  1.0078
 5238TIP3    H237130   4.246   2.636  15.155 -0.6270  1.1898 -0.3736
 5239TIP3   OH237131   0.767   5.955   4.879  0.1178 -0.1936  1.0081
 5239TIP3    H137132   0.850   5.911   4.899  0.6252 -0.4074 -1.3026
 5239TIP3    H237133   0.702   5.909   4.933  1.3651 -0.4546  2.3629
 5240TIP3   OH237134   3.571   1.304   6.120  0.4561 -0.6355  0.1108
 5240TIP3    H137135   3.501   1.254   6.162  1.6467 -1.4890  1.1282
 5240TIP3    H237136   3.642   1.242   6.108  2.4886  1.0273  2.5768
 5241TIP3   OH237137   1.971   1.987   2.095  0.1084  0.0192 -0.0148
 5241TIP3    H137138   1.886   2.020   2.066  0.7351  1.5847 -0.1352
 5241TIP3    H237139   2.024   1.982   2.015  0.3105 -0.4240  0.1397
 5242TIP3   OH237140   4.814   4.803   0.210  0.1996  0.1148  0.3535
 5242TIP3    H137141   4.831   4.724   0.262 -1.5842 -1.8563 -1.8229
 5242TIP3    H237142   4.813   4.772   0.120 -0.6777  2.6283 -0.5778
 5243TIP3   OH237143   4.348   3.077  12.135  0.6510 -0.0384 -0.1919
 5243TIP3    H137144   4.299   3.068  12.217  0.6029 -0.0530 -0.2228
 5243TIP3    H237145   4.433   3.111  12.162  0.4748  0.4013 -0.1835
 5244TIP3   OH237146   1.765   6.633   6.395 -0.1833  0.1910  0.8382
 5244TIP3    H137147   1.749   6.592   6.479  1.6110  0.9194  1.5937
 5244TIP3    H237148   1.828   6.576   6.352 -2.1208 -0.9248 -0.6673
 5245TIP3   OH237149   0.711   5.057   5.751 -0.0034  0.0696 -0.2634
 5245TIP3    H137150   0.658   5.133   5.727 -0.3697 -0.5200 -1.4056
 5245TIP3    H237151   0.653   5.002   5.802  0.5985  1.0490  1.5606
 5246TIP3   OH237152   6.742   5.659  16.347 -0.0534 -0.3153  0.6111
 5246TIP3    H137153   6.818   5.688  16.298 -1.0197  0.6219 -0.3792
 5246TIP3    H237154   6.772   5.581  16.394  1.5361  0.1110  0.3539
 5247TIP3   OH237155   2.543   6.073  14.822  0.5384  0.3804 -0.3057
 5247TIP3    H137156   2.637   6.082  14.806  0.6436  1.2999  0.7182
 5247TIP3    H237157   2.537   6.003  14.887  0.7596  2.0486  1.6084
 5248TIP3   OH237158   1.522   3.015   1.939  0.2586  0.3177 -0.5179
 5248TIP3    H137159   1.430   2.997   1.959 -0.1278  2.4385 -0.1473
 5248TIP3    H237160   1.535   2.976   1.853 -0.4848 -1.4655  0.1208
 5249TIP3   OH237161   5.609   3.595   0.832  0.1982  0.3478  0.2087
 5249TIP3    H137162   5.554   3.531   0.878  0.7867  1.1963  2.1816
 5249TIP3    H237163   5.560   3.615   0.752  0.6190 -3.5565 -1.2813
 5250TIP3   OH237164   5.835   0.850   6.281 -0.2011  0.3349 -0.0127
 5250TIP3    H137165   5.921   0.830   6.318  0.0301 -1.8845 -1.5227
 5250TIP3    H237166   5.853   0.868   6.188 -1.5031 -2.3971 -0.8994
 5251TIP3   OH237167   5.515   3.397  13.798 -0.1425  0.6705 -0.5079
 5251TIP3    H137168   5.563   3.329  13.751 -0.9640  0.7674 -1.5250
 5251TIP3    H237169   5.573   3.473  13.798  1.5790 -0.4658  2.2234
 5252TIP3   OH237170   0.373   5.875   3.325 -0.1088 -0.5997  0.1029
 5252TIP3    H137171   0.315   5.809   3.364 -0.6806  0.6589  1.5018
 5252TIP3    H237172   0.400   5.929   3.399  0.1713  0.8588 -1.0263
 5253TIP3   OH237173   2.783   4.503  12.428  0.2663  0.3117  0.0274
 5253TIP3    H137174   2.834   4.477  12.351 -1.0214  0.5156 -0.9409
 5253TIP3    H237175   2.746   4.588  12.405 -0.4264  0.2180  0.7277
 5254TIP3   OH237176   1.575   4.169  11.890  0.1621 -0.2102 -0.4182
 5254TIP3    H137177   1.607   4.190  11.802  0.7115 -1.5002 -0.5498
 5254TIP3    H237178   1.535   4.083  11.881 -0.2743 -0.1163  0.4914
 5255TIP3   OH237179   5.383   4.371   4.029 -0.2324 -0.1590 -0.1901
 5255TIP3    H137180   5.323   4.357   3.955  0.8685 -0.3648 -1.0725
 5255TIP3    H237181   5.399   4.284   4.064 -1.0911 -0.0182  0.5860
 5256TIP3   OH237182   3.866   1.428   3.219 -0.1967  0.2775  0.7445
 5256TIP3    H137183   3.960   1.442   3.209 -0.3975  0.5775 -0.9544
 5256TIP3    H237184   3.859   1.374   3.299  1.4553 -0.3361  0.5287
 5257TIP3   OH237185   4.702   5.957  16.789 -0.2433 -0.3885  0.7444
 5257TIP3    H137186   4.661   5.875  16.815 -3.4839  1.1968  1.0483
 5257TIP3    H237187   4.691   6.015  16.863  1.7364  0.4937  0.4267
 5258TIP3   OH237188   5.283   5.393  13.055 -0.5047  0.0639 -0.2724
 5258TIP3    H137189   5.375   5.368  13.057 -0.4964 -0.1402 -1.9159
 5258TIP3    H237190   5.256   5.393  13.147  1.2003  0.4368  0.2598
 5259TIP3   OH237191   5.565   3.120   5.117 -0.5632 -0.1436 -0.2482
 5259TIP3    H137192   5.609   3.079   5.192 -2.1347 -0.6101  0.4885
 5259TIP3    H237193   5.513   3.049   5.079 -1.6521  0.6495 -0.2888
 5260TIP3   OH237194   3.888   2.000   1.535  0.2154 -0.4686 -0.7113
 5260TIP3    H137195   3.837   1.927   1.499  0.8379 -0.6024 -1.3386
 5260TIP3    H237196   3.824   2.070   1.548 -0.4810 -1.2643  0.3246
 5261TIP3   OH237197   6.010   1.099   4.919  0.1693 -0.5150 -0.2886
 5261TIP3    H137198   6.020   1.077   4.826 -1.3639  0.4212 -0.7135
 5261TIP3    H237199   6.062   1.032   4.965 -0.9307 -2.4531 -1.6925
 5262TIP3   OH237200   3.520   5.081   1.818 -0.3912 -0.1785 -0.0325
 5262TIP3    H137201   3.540   5.037   1.735  0.5152 -0.6116  0.3971
 5262TIP3    H237202   3.425   5.072   1.828 -0.4719 -0.3524 -0.8881
 5263TIP3   OH237203   2.444   6.751  15.027 -0.3507  0.5603 -0.1917
 5263TIP3    H137204   2.396   6.818  15.076 -0.8839  0.7857 -0.9832
 5263TIP3    H237205   2.456   6.680  15.089  1.3578  1.8639  1.0708
 5264TIP3   OH237206   6.198   5.743   3.342  0.4020 -0.4262  0.6987
 5264TIP3    H137207   6.239   5.740   3.255  0.1009 -0.4959  0.5562
 5264TIP3    H237208   6.114   5.699   3.329 -0.0708  0.4454  0.7977
 5265TIP3   OH237209   4.729   6.718   4.170 -0.1329  0.3480  0.4562
 5265TIP3    H137210   4.711   6.753   4.083  1.0616 -0.3461 -0.0972
 5265TIP3    H237211   4.787   6.783   4.210 -0.3645  0.4723  0.5957
 5266TIP3   OH237212   4.000   2.257  16.713 -0.1649 -0.2016  0.3299
 5266TIP3    H137213   4.067   2.189  16.721 -2.0809 -2.1338  0.9082
 5266TIP3    H237214   3.958   2.259  16.798 -1.4810  0.2316 -0.3076
 5267TIP3   OH237215   0.106   1.769  14.516  0.1707  0.2704  0.0929
 5267TIP3    H137216   0.012   1.790  14.523  0.2192  1.7927 -2.5652
 5267TIP3    H237217   0.107   1.676  14.495 -0.7171  0.0998  0.7345
 5268TIP3   OH237218   5.783   4.833   4.510 -0.1514  0.0983  0.0679
 5268TIP3    H137219   5.844   4.783   4.457 -0.6302  1.2952 -1.7143
 5268TIP3    H237220   5.767   4.778   4.587  0.9692 -1.4837 -0.7732
 5269TIP3   OH237221   5.779   0.240  16.581  0.5815  0.0690 -0.7953
 5269TIP3    H137222   5.810   0.302  16.515 -0.8271 -0.1339 -1.6764
 5269TIP3    H237223   5.768   0.292  16.660 -1.0865  1.1028 -1.6516
 5270TIP3   OH237224   3.563   5.578  14.518  0.1358  0.6714  1.0335
 5270TIP3    H137225   3.554   5.488  14.549  0.1909  0.7046  1.1452
 5270TIP3    H237226   3.549   5.632  14.596 -0.3513  0.7748  0.8805
 5271TIP3   OH237227   4.957   3.337  13.323  0.3235  0.8865 -0.1112
 5271TIP3    H137228   4.906   3.321  13.243  0.1257 -2.3096  0.5284
 5271TIP3    H237229   4.891   3.349  13.391  0.4332  0.1209  0.1379
 5272TIP3   OH237230   3.033   4.175   6.734 -0.1992  1.0177  0.4845
 5272TIP3    H137231   3.047   4.269   6.733 -1.0375  1.1878 -1.7430
 5272TIP3    H237232   3.003   4.154   6.645  0.4371 -1.4234  0.7589
 5273TIP3   OH237233   3.016   1.843   0.109 -0.0620  0.2815 -0.2061
 5273TIP3    H137234   2.986   1.880   0.026 -1.1268 -1.7972 -0.8089
 5273TIP3    H237235   3.011   1.748   0.097 -0.4070 -0.0916  2.2746
 5274TIP3   OH237236   1.271   0.219   4.484  0.7109 -0.0347  0.0548
 5274TIP3    H137237   1.297   0.175   4.565  1.3327 -1.3651 -0.8391
 5274TIP3    H237238   1.353   0.234   4.436  0.5878  2.5223  0.4771
 5275TIP3   OH237239   3.381   0.765   4.338 -0.7518 -0.0553 -0.1064
 5275TIP3    H137240   3.392   0.670   4.337  2.6907  0.2037 -0.9246
 5275TIP3    H237241   3.459   0.797   4.384 -1.6945  2.3948 -0.0683
 5276TIP3   OH237242   5.751   3.776  11.374 -0.3982  0.5174 -0.0777
 5276TIP3    H137243   5.761   3.798  11.281 -1.9256  0.2560 -0.3394
 5276TIP3    H237244   5.722   3.685  11.373  0.3843  0.2510  0.7111
 5277TIP3   OH237245   0.952   4.066   1.004  0.1223  0.1362  0.3738
 5277TIP3    H137246   1.031   4.067   1.057 -0.1028 -1.2154  0.7488
 5277TIP3    H237247   0.949   4.153   0.964  2.1084  0.0004 -0.1337
 5278TIP3   OH237248   0.655   0.621  14.686 -0.3824 -0.1069 -0.0651
 5278TIP3    H137249   0.674   0.639  14.594 -0.8164  0.0574 -0.1283
 5278TIP3    H237250   0.628   0.706  14.721  2.3937  0.4574  0.9082
 5279TIP3   OH237251   5.511   1.334   5.419  0.1378  0.1572 -0.0864
 5279TIP3    H137252   5.457   1.267   5.377 -0.8781  1.2793 -0.6623
 5279TIP3    H237253   5.559   1.374   5.347  0.9630 -0.1464  0.2905
 5280TIP3   OH237254   0.270   6.121   4.135  0.4430  0.5141 -0.1387
 5280TIP3    H137255   0.224   6.187   4.187  2.6283  2.1257 -0.1192
 5280TIP3    H237256   0.360   6.152   4.130  1.1909 -1.6140 -1.6177
 5281TIP3   OH237257   6.632   3.696  11.962 -0.6145  0.5422  0.5157
 5281TIP3    H137258   6.628   3.777  11.911 -3.2212 -0.3996 -0.9290
 5281TIP3    H237259   6.542   3.664  11.965  0.4630 -2.9202 -0.0041
 5282TIP3   OH237260   1.519   2.216   3.702 -0.5638  0.2566  0.3648
 5282TIP3    H137261   1.516   2.190   3.795 -0.9390 -0.9817  0.0340
 5282TIP3    H237262   1.529   2.133   3.655 -1.3678  0.7684 -0.7506
 5283TIP3   OH237263   2.130   2.903  12.625 -0.0083 -0.3568  0.1391
 5283TIP3    H137264   2.170   2.827  12.667 -0.4100 -1.5712 -1.5712
 5283TIP3    H237265   2.043   2.873  12.597 -0.7447  1.1714  0.6608
 5284TIP3   OH237266   1.824   5.383  13.912  0.0472  0.3017 -0.3138
 5284TIP3    H137267   1.911   5.344  13.908 -0.0523  0.0322  0.0960
 5284TIP3    H237268   1.792   5.379  13.821  0.0653 -0.5039 -0.2912
 5285TIP3   OH237269   0.616   6.522   4.192  0.3011  0.2405 -0.2856
 5285TIP3    H137270   0.584   6.589   4.131  1.1478 -0.0608 -1.0761
 5285TIP3    H237271   0.708   6.543   4.206  1.6448 -2.6818 -3.3445
 5286TIP3   OH237272   4.907   0.553  16.007  0.0617 -0.3788  0.7472
 5286TIP3    H137273   4.831   0.597  16.044  0.0989  0.1141  0.2475
 5286TIP3    H237274   4.950   0.620  15.953  0.2222 -0.9706  0.1262
 5287TIP3   OH237275   5.031   6.306   0.526 -0.2441 -0.6758 -0.3135
 5287TIP3    H137276   5.114   6.331   0.565 -0.0904 -0.6237 -0.6672
 5287TIP3    H237277   5.047   6.218   0.490  0.1891  0.0162 -1.9029
 5288TIP3   OH237278   4.497   5.402  14.186  0.1418  0.0719 -0.6243
 5288TIP3    H137279   4.429   5.378  14.123 -0.7374  0.4295  0.1691
 5288TIP3    H237280   4.449   5.426  14.265  1.2398 -0.8050  0.3483
 5289TIP3   OH237281   3.072   1.407   4.391  0.2950  0.5125 -0.2469
 5289TIP3    H137282   3.088   1.384   4.299 -1.0799  1.6567 -0.8098
 5289TIP3    H237283   3.160   1.424   4.427  0.8980 -0.4874 -1.1729
 5290TIP3   OH237284   5.413   6.505   0.932  0.5518  0.0109 -0.1477
 5290TIP3    H137285   5.365   6.559   0.995  1.4022 -0.5502  1.0081
 5290TIP3    H237286   5.503   6.537   0.937  0.4293  0.8068 -2.0254
 5291TIP3   OH237287   5.409   4.281   1.270 -0.2360  0.1593 -0.2605
 5291TIP3    H137288   5.492   4.245   1.301  0.0245  0.1918 -0.9075
 5291TIP3    H237289   5.349   4.206   1.272  0.6190 -0.6838 -2.8073
 5292TIP3   OH237290   0.159   5.026   3.437 -0.3954  0.4425  0.1302
 5292TIP3    H137291   0.215   5.067   3.372  0.6698 -1.1887 -0.0362
 5292TIP3    H237292   0.108   4.961   3.387 -2.7292  2.0742  0.2119
 5293TIP3   OH237293   2.903   1.311  13.766 -0.0766 -0.0839  0.4512
 5293TIP3    H137294   2.848   1.255  13.821 -3.7263  4.1971  1.7062
 5293TIP3    H237295   2.971   1.343  13.825  0.7304 -1.3679  0.2715
 5294TIP3   OH237296   1.193   5.995  15.695 -0.5074 -0.0967 -0.2544
 5294TIP3    H137297   1.126   5.955  15.749  0.1198  1.5283  1.8743
 5294TIP3    H237298   1.269   5.937  15.704  0.0682  0.8944  1.9452
 5295TIP3   OH237299   6.517   4.296   0.408 -0.2820 -0.7672  0.5874
 5295TIP3    H137300   6.506   4.225   0.344 -0.3853 -0.7962  0.6365
 5295TIP3    H237301   6.444   4.284   0.470 -1.5475  0.6024 -0.5519
 5296TIP3   OH237302   5.544   4.523  12.633 -0.7096 -0.0995 -0.1343
 5296TIP3    H137303   5.547   4.429  12.650 -1.6252  0.1109  1.3692
 5296TIP3    H237304   5.509   4.530  12.544 -0.8189 -1.1743 -0.1942
 5297TIP3   OH237305   5.831   1.648  16.094  0.3439 -0.2058  0.0954
 5297TIP3    H137306   5.783   1.718  16.139  2.6429  0.7741  1.2149
 5297TIP3    H237307   5.791   1.643  16.007 -0.0995  2.3256  0.0771
 5298TIP3   OH237308   1.024   3.367   2.158  0.0744  0.2520  0.4843
 5298TIP3    H137309   0.952   3.308   2.179  1.1714 -1.9467 -1.4421
 5298TIP3    H237310   1.057   3.396   2.243 -0.9495 -1.4195  1.5102
 5299TIP3   OH237311   0.615   5.806   1.161 -0.3115  0.1442 -0.1101
 5299TIP3    H137312   0.617   5.865   1.086  1.3383 -0.3565 -0.5001
 5299TIP3    H237313   0.626   5.719   1.122 -0.4056 -0.2095  0.6451
 5300TIP3   OH237314   0.803   2.652   4.892  0.2797  0.3292 -0.1792
 5300TIP3    H137315   0.740   2.724   4.902  0.1822  0.0294  1.5085
 5300TIP3    H237316   0.887   2.691   4.914  0.0424 -0.3690  2.2598
 5301TIP3   OH237317   2.547   0.165  16.865  0.4949 -0.2191  0.1085
 5301TIP3    H137318   2.558   0.216  16.785 -0.1677  0.4040  0.4083
 5301TIP3    H237319   2.613   0.200  16.925  0.1504  0.1721  0.2579
 5302TIP3   OH237320   6.271   5.997  14.536 -0.0725 -0.2792  0.2693
 5302TIP3    H137321   6.254   6.056  14.463 -1.6866  0.2025  0.9795
 5302TIP3    H237322   6.213   5.922  14.519 -0.1151 -0.3708  0.8057
 5303TIP3   OH237323   5.712   2.627  14.215  0.3476 -0.2312  0.5227
 5303TIP3    H137324   5.765   2.661  14.144 -1.3301 -1.7240 -1.5884
 5303TIP3    H237325   5.693   2.703  14.270  1.7113  0.9731 -0.6023
 5304TIP3   OH237326   3.249   6.204   1.986  0.2760  0.4769 -0.1229
 5304TIP3    H137327   3.320   6.147   1.956  0.8048  0.3350  1.3159
 5304TIP3    H237328   3.175   6.144   1.999  0.6815  0.1702  0.8937
 5305TIP3   OH237329   3.037   3.877   0.558  1.1122  0.3593 -0.0225
 5305TIP3    H137330   3.049   3.799   0.611 -1.0519 -0.6188 -0.8213
 5305TIP3    H237331   2.951   3.911   0.584  1.4587  1.7574 -0.5894
 5306TIP3   OH237332   6.231   1.974   4.654  0.1677  0.1757  0.4779
 5306TIP3    H137333   6.187   1.985   4.569 -0.9415  0.1166  1.0251
 5306TIP3    H237334   6.235   1.879   4.666  0.8937  0.1682  0.2143
 5307TIP3   OH237335   3.128   1.059   4.235  0.5031  0.0423  0.0462
 5307TIP3    H137336   3.139   1.059   4.330 -1.1998 -0.4642  0.2635
 5307TIP3    H237337   3.089   1.144   4.215 -2.3283 -1.1150  0.2553
 5308TIP3   OH237338   3.975   1.780  11.165 -0.0922 -0.0838  0.3299
 5308TIP3    H137339   4.022   1.752  11.243 -0.6169 -0.4519  0.5238
 5308TIP3    H237340   4.034   1.761  11.092  1.0855  1.7883  0.7425
 5309TIP3   OH237341   0.960   0.933  11.656 -0.0482  0.0596  0.1320
 5309TIP3    H137342   0.885   0.901  11.606  0.1046 -1.0317  0.5600
 5309TIP3    H237343   0.991   0.856  11.703  1.0951  0.5854  0.2712
 5310TIP3   OH237344   3.471   4.947   6.494 -0.0476 -0.8660  0.5559
 5310TIP3    H137345   3.552   4.990   6.523  1.0970 -2.5065 -0.0895
 5310TIP3    H237346   3.468   4.962   6.400 -2.4510  2.2593  0.9318
 5311TIP3   OH237347   1.536   3.978   3.658  0.1109  0.1246 -0.2362
 5311TIP3    H137348   1.500   3.992   3.745 -0.4742 -0.9510 -0.2932
 5311TIP3    H237349   1.618   3.930   3.673  0.3537  0.5368 -0.2404
 5312TIP3   OH237350   3.436   1.657   3.284  0.2380 -0.1070 -0.0822
 5312TIP3    H137351   3.529   1.678   3.272  0.4896 -0.1989  1.4877
 5312TIP3    H237352   3.436   1.575   3.334 -0.5918  1.2569  2.3514
 5313TIP3   OH237353   4.637   2.170  12.228  0.6665 -0.2941  0.1475
 5313TIP3    H137354   4.547   2.162  12.262  0.6375 -1.5121 -0.1743
 5313TIP3    H237355   4.690   2.190  12.306  0.4315 -1.8802  0.7568
 5314TIP3   OH237356   2.830   3.800  16.474 -0.1716 -0.0010  0.7258
 5314TIP3    H137357   2.907   3.743  16.469  1.6049  2.3518 -0.6426
 5314TIP3    H237358   2.847   3.869  16.410 -2.9682  1.1992  1.1492
 5315TIP3   OH237359   1.297   5.246   2.758  0.1170 -0.3635  0.2880
 5315TIP3    H137360   1.263   5.170   2.711  2.7600 -0.3770 -1.8612
 5315TIP3    H237361   1.383   5.217   2.790  1.1909  1.6594 -0.6157
 5316TIP3   OH237362   6.484   2.080  14.245  0.0085 -0.1731 -0.4278
 5316TIP3    H137363   6.480   2.176  14.237  1.8947 -0.1113 -1.1380
 5316TIP3    H237364   6.440   2.047  14.167 -0.5972  0.1060 -0.2095
 5317TIP3   OH237365   2.248   2.366   0.701 -0.0073 -0.8121  0.3621
 5317TIP3    H137366   2.335   2.366   0.742 -0.2929  1.2102  1.0730
 5317TIP3    H237367   2.262   2.326   0.615  1.4977 -1.0984  0.7187
 5318TIP3   OH237368   2.490   5.577  16.761 -0.2605  0.4195 -0.1766
 5318TIP3    H137369   2.427   5.635  16.804 -0.7901 -0.8168  0.7910
 5318TIP3    H237370   2.554   5.636  16.721  0.1377  1.6544  2.1412
 5319TIP3   OH237371   4.154   0.439  10.764  0.2726 -0.0944 -0.4966
 5319TIP3    H137372   4.230   0.404  10.810  1.7444 -0.6082 -3.1261
 5319TIP3    H237373   4.167   0.534  10.763 -0.1717  0.0000  0.7056
 5320TIP3   OH237374   6.374   0.330  10.900 -0.1118  0.2669  0.3021
 5320TIP3    H137375   6.395   0.244  10.861  1.2015 -0.3875  2.3085
 5320TIP3    H237376   6.437   0.390  10.860  0.5740 -0.1999  0.6665
 5321TIP3   OH237377   2.428   2.975   0.662  0.7505  0.6561  0.1049
 5321TIP3    H137378   2.363   2.934   0.604  1.3786  0.0749 -0.1936
 5321TIP3    H237379   2.471   2.902   0.706  0.6303  1.0736  0.9381
 5322TIP3   OH237380   2.972   4.782  15.437 -0.6039  0.1208  0.0171
 5322TIP3    H137381   2.936   4.803  15.523 -2.4058 -0.9888 -0.4230
 5322TIP3    H237382   2.910   4.721  15.399  0.6597 -0.1654 -1.7045
 5323TIP3   OH237383   0.974   3.647   3.408 -0.1413 -0.6052 -0.1005
 5323TIP3    H137384   0.926   3.699   3.345 -0.9682 -2.0023 -0.6685
 5323TIP3    H237385   0.977   3.701   3.487 -1.6994 -0.0461 -0.3969
 5324TIP3   OH237386   4.638   6.532  11.730 -0.0577  0.1412 -0.3664
 5324TIP3    H137387   4.674   6.446  11.711  0.1685  0.1671 -0.0551
 5324TIP3    H237388   4.550   6.514  11.763  0.3313 -0.0258  0.5936
 5325TIP3   OH237389   1.529   5.448   6.096 -0.3394 -0.0286 -0.3182
 5325TIP3    H137390   1.538   5.442   6.191 -0.6110 -1.7957 -0.3739
 5325TIP3    H237391   1.549   5.540   6.076  0.6113  0.1677  1.3310
 5326TIP3   OH237392   2.748   0.573  17.166 -0.8516  0.0986  1.0568
 5326TIP3    H137393   2.703   0.529  17.238 -0.1605 -0.0770  1.3872
 5326TIP3    H237394   2.790   0.648  17.206 -1.4149  0.6545  0.6210
 5327TIP3   OH237395   3.000   4.941   3.897 -0.4444  0.5936  0.6686
 5327TIP3    H137396   2.965   5.013   3.845 -0.2218  1.2864  1.4534
 5327TIP3    H237397   2.956   4.863   3.863  0.5284  0.8441 -1.3142
 5328TIP3   OH237398   3.396   1.053  11.523 -0.2506  0.1047 -0.0610
 5328TIP3    H137399   3.405   1.084  11.433 -2.6070 -1.4248 -0.9293
 5328TIP3    H237400   3.327   1.108  11.561 -1.6525 -1.3824 -0.3464
 5329TIP3   OH237401   6.220   6.574  15.388 -0.4395 -0.3556 -0.4603
 5329TIP3    H137402   6.238   6.667  15.399  1.7118 -0.8545  0.6859
 5329TIP3    H237403   6.244   6.534  15.471 -2.5323 -1.8241 -0.4781
 5330TIP3   OH237404   6.625   5.739  13.273  0.0897 -0.2877 -0.1416
 5330TIP3    H137405   6.615   5.654  13.232 -0.4551  0.2743 -1.2074
 5330TIP3    H237406   6.719   5.755  13.273  0.4229 -1.8008  2.0299
 5331TIP3   OH237407   0.994   3.518   4.518  0.1576 -0.1901  0.4621
 5331TIP3    H137408   0.992   3.450   4.585  1.6276 -1.1061 -0.3744
 5331TIP3    H237409   0.997   3.600   4.567  0.0750 -0.7927  1.5003
 5332TIP3   OH237410   3.734   4.302  14.714  0.1364 -0.7720  0.1287
 5332TIP3    H137411   3.814   4.293  14.663  0.2978  0.5065  0.1247
 5332TIP3    H237412   3.765   4.324  14.802 -0.2003  0.8418 -0.1220
 5333TIP3   OH237413   5.203   2.040   4.499 -0.1041  0.6501 -0.3570
 5333TIP3    H137414   5.173   2.118   4.546  2.2184  2.4702 -1.6708
 5333TIP3    H237415   5.128   2.013   4.446 -1.4130  1.0724  1.1853
 5334TIP3   OH237416   4.854   6.357  12.550  0.0691  0.4269  0.4459
 5334TIP3    H137417   4.813   6.279  12.586 -0.0477 -0.2714 -1.0987
 5334TIP3    H237418   4.927   6.376  12.609 -1.0043  0.2588  1.8640
 5335TIP3   OH237419   5.069   1.675  11.799 -0.1307 -0.4195  0.1425
 5335TIP3    H137420   4.985   1.720  11.803 -1.7033 -3.0687 -0.5600
 5335TIP3    H237421   5.082   1.657  11.705  1.9903  1.1716  0.0496
 5336TIP3   OH237422   2.599   6.686   5.642 -0.1518 -0.1459  0.5924
 5336TIP3    H137423   2.688   6.701   5.675 -0.2403  1.3902  0.1787
 5336TIP3    H237424   2.544   6.686   5.720  0.0459  0.2428  0.7327
 5337TIP3   OH237425   5.432   5.719  11.480 -0.3662 -0.0747 -0.1269
 5337TIP3    H137426   5.365   5.663  11.519  0.3239 -0.9386 -0.1399
 5337TIP3    H237427   5.456   5.675  11.399  0.4837  0.0193  0.0640
 5338TIP3   OH237428   1.794   2.484   2.488  0.1872 -0.1999  0.1454
 5338TIP3    H137429   1.703   2.497   2.515  0.0508 -1.7056  0.5256
 5338TIP3    H237430   1.788   2.419   2.418  1.1105 -2.0941  1.7312
 5339TIP3   OH237431   4.809   2.132  11.841  0.0625 -0.2515  0.3377
 5339TIP3    H137432   4.753   2.057  11.862  1.7648 -1.5835  0.3988
 5339TIP3    H237433   4.796   2.147  11.748 -0.1753 -0.7469  0.2864
 5340TIP3   OH237434   5.363   1.866   2.740 -0.2104 -0.4521 -0.2150
 5340TIP3    H137435   5.294   1.820   2.788 -0.0432 -1.6662 -1.1006
 5340TIP3    H237436   5.333   1.866   2.649  0.6305 -0.3544 -0.4984
 5341TIP3   OH237437   2.444   4.445  15.298 -0.7829 -0.1590 -0.4434
 5341TIP3    H137438   2.369   4.498  15.270 -0.2756  0.5944 -0.4040
 5341TIP3    H237439   2.445   4.454  15.393 -1.6805 -1.5993 -0.2701
 5342TIP3   OH237440   4.881   0.971  12.144  0.4504 -0.2778 -0.3924
 5342TIP3    H137441   4.966   0.926  12.146  0.7070  0.0615  3.0943
 5342TIP3    H237442   4.901   1.060  12.115  1.2242 -0.3253 -0.0174
 5343TIP3   OH237443   6.607   1.531  16.843  0.0652 -0.4769  0.2052
 5343TIP3    H137444   6.631   1.579  16.764 -2.5403  0.8235  0.0655
 5343TIP3    H237445   6.573   1.448  16.811 -1.1928  0.1342 -0.1431
 5344TIP3   OH237446   5.557   6.457   3.798 -0.6088 -0.4804 -0.9361
 5344TIP3    H137447   5.545   6.440   3.705  1.3449 -1.1014 -1.0999
 5344TIP3    H237448   5.471   6.438   3.837 -1.4911 -0.0738 -2.6032
 5345TIP3   OH237449   6.777   4.258  13.946 -0.0535  0.1780 -0.2354
 5345TIP3    H137450   6.823   4.342  13.949 -0.5919  0.4651  0.3078
 5345TIP3    H237451   6.797   4.216  14.029 -0.6689  0.2573 -0.0414
 5346TIP3   OH237452   4.235   6.007   0.577 -0.3616  0.1300 -0.3024
 5346TIP3    H137453   4.142   6.027   0.577 -0.4125 -0.0708 -0.9436
 5346TIP3    H237454   4.239   5.911   0.578 -0.1313  0.1219  1.7332
 5347TIP3   OH237455   0.668   4.273   5.659 -0.2175  0.3529  0.0339
 5347TIP3    H137456   0.573   4.278   5.651 -0.1826  0.2450 -0.4469
 5347TIP3    H237457   0.683   4.198   5.716 -0.4012 -0.0349 -0.4199
 5348TIP3   OH237458   2.990   3.260   1.425 -0.0790 -0.3865  0.4065
 5348TIP3    H137459   3.074   3.305   1.431 -0.8079  1.1662 -0.4173
 5348TIP3    H237460   2.927   3.329   1.406 -1.3104 -1.7156 -0.5700
 5349TIP3   OH237461   1.247   0.710  17.053  0.2047  0.1547  0.4221
 5349TIP3    H137462   1.263   0.731  16.960 -1.7022  1.0245  0.2409
 5349TIP3    H237463   1.282   0.622  17.064 -0.9861 -0.6421 -1.5934
 5350TIP3   OH237464   5.895   5.560  10.961  0.5534  0.0185 -0.3781
 5350TIP3    H137465   5.982   5.523  10.975  0.0911 -1.0047 -0.1172
 5350TIP3    H237466   5.911   5.653  10.945  1.7791 -0.3346 -1.3972
 5351TIP3   OH237467   5.177   0.850   5.978  0.2111  0.2582  0.1299
 5351TIP3    H137468   5.232   0.865   5.902  1.9484 -1.0119  1.0412
 5351TIP3    H237469   5.119   0.926   5.982  0.8017  0.8659 -1.8045
 5352TIP3   OH237470   6.229   0.262  12.806 -0.2205  0.1604 -0.4429
 5352TIP3    H137471   6.257   0.308  12.727  0.7699 -0.5040 -0.5084
 5352TIP3    H237472   6.137   0.239  12.791 -0.7083  2.0158 -0.4312
 5353TIP3   OH237473   5.244   5.682   3.015 -0.7375 -0.2482  0.2648
 5353TIP3    H137474   5.174   5.633   3.060  1.0749 -2.8261  0.5250
 5353TIP3    H237475   5.236   5.656   2.923 -0.8467  0.3855  0.0953
 5354TIP3   OH237476   6.150   4.312   5.433 -0.6115  0.2002 -0.3183
 5354TIP3    H137477   6.118   4.271   5.352  0.2617  1.9416 -1.6217
 5354TIP3    H237478   6.102   4.268   5.503 -0.8249 -1.9258 -1.7055
 5355TIP3   OH237479   5.479   0.031  13.570  0.3409  0.1540 -0.1686
 5355TIP3    H137480   5.552  -0.021  13.602  0.2698  0.0962 -0.1011
 5355TIP3    H237481   5.493   0.036  13.476 -0.6141 -1.4928 -0.4357
 5356TIP3   OH237482   2.420   2.957  16.968 -0.0893 -0.0922  0.0095
 5356TIP3    H137483   2.362   3.022  17.008  0.4147 -0.2238  0.9680
 5356TIP3    H237484   2.453   2.905  17.041 -1.3067 -2.1379 -0.7999
 5357TIP3   OH237485   0.594   0.602  11.347  0.1497 -0.0361  0.0678
 5357TIP3    H137486   0.550   0.527  11.306  0.7287  0.9539 -2.5218
 5357TIP3    H237487   0.545   0.678  11.316  1.9265  0.8901 -0.5826
 5358TIP3   OH237488   1.350   2.788  12.020 -0.3838 -0.1897  0.4768
 5358TIP3    H137489   1.393   2.801  12.105 -1.4291  2.8993  0.6661
 5358TIP3    H237490   1.283   2.722  12.037  1.4383 -1.9850  1.1835
 5359TIP3   OH237491   1.236   6.283  14.455 -0.0968 -0.4125 -0.0718
 5359TIP3    H137492   1.280   6.200  14.437  0.0665 -0.6548  1.3310
 5359TIP3    H237493   1.266   6.342  14.386  0.4134 -1.2859 -0.6172
 5360TIP3   OH237494   2.327   0.968  16.967 -0.3879 -0.1206  0.5198
 5360TIP3    H137495   2.233   0.969  16.948 -0.1233  0.1313 -0.8907
 5360TIP3    H237496   2.368   1.002  16.887  1.0077 -1.9200  0.3906
 5361TIP3   OH237497   1.750   2.847  12.214 -0.6679 -0.2048  0.3193
 5361TIP3    H137498   1.827   2.873  12.163  0.5692 -1.7641  1.2741
 5361TIP3    H237499   1.693   2.924  12.213  1.8894  1.8737  1.4368
 5362TIP3   OH237500   4.262   3.255   5.085  0.0839 -0.3112  0.0054
 5362TIP3    H137501   4.239   3.315   5.014  0.5914  0.0982  0.1870
 5362TIP3    H237502   4.353   3.274   5.105 -0.0320 -0.4746  0.7202
 5363TIP3   OH237503   6.732   5.810   5.948  0.0417  0.3455 -0.5998
 5363TIP3    H137504   6.761   5.744   6.010  0.4909 -0.5375 -1.7104
 5363TIP3    H237505   6.798   5.879   5.952 -0.9333  1.2257  1.2729
 5364TIP3   OH237506   4.031   0.530  12.398  0.4470 -0.1535  0.6694
 5364TIP3    H137507   4.057   0.490  12.481 -0.1521 -0.0746  0.8983
 5364TIP3    H237508   4.033   0.624  12.414 -0.1220 -0.1473  0.7414
 5365TIP3   OH237509   6.767   5.158  11.769 -0.5239  0.0378 -0.5224
 5365TIP3    H137510   6.847   5.196  11.731 -1.6818  1.0779 -2.0473
 5365TIP3    H237511   6.698   5.221  11.747 -1.5671 -0.0985  2.0199
 5366TIP3   OH237512   3.401   2.528  13.826  0.3875 -0.3147  0.0952
 5366TIP3    H137513   3.443   2.605  13.789  1.1499 -0.1988  1.1599
 5366TIP3    H237514   3.472   2.479  13.868  0.2742 -2.5800 -2.1117
 5367TIP3   OH237515   0.786   0.432  11.511  0.5350 -0.1829 -0.2830
 5367TIP3    H137516   0.847   0.419  11.438  0.9334 -0.5199  0.1029
 5367TIP3    H237517   0.730   0.505  11.483  1.6596  0.7068 -0.2968
 5368TIP3   OH237518   3.751   1.110   6.040  0.1261 -0.2417  0.5456
 5368TIP3    H137519   3.826   1.121   5.980  1.1078  1.1411  1.9572
 5368TIP3    H237520   3.787   1.061   6.114 -0.2211  0.8343  1.4541
 5369TIP3   OH237521   5.647   1.061   4.565  0.2378  0.0041  0.3462
 5369TIP3    H137522   5.586   1.094   4.631  0.5861  0.6822  0.3433
 5369TIP3    H237523   5.626   1.112   4.486 -0.8857 -1.5293 -0.3948
 5370TIP3   OH237524   3.726   6.764   2.369  0.5903  0.4946  0.2626
 5370TIP3    H137525   3.709   6.857   2.385  0.7097  0.4623  0.5912
 5370TIP3    H237526   3.766   6.761   2.282 -0.1848  0.6706 -0.1163
 5371TIP3   OH237527   1.700   0.403  11.899 -0.2799 -0.1811  0.6783
 5371TIP3    H137528   1.724   0.439  11.985  1.6872 -0.6406  0.3597
 5371TIP3    H237529   1.725   0.470  11.837 -0.4530 -0.4098  0.3586
 5372TIP3   OH237530   0.297   6.468  15.901  0.2688 -0.7203  0.3853
 5372TIP3    H137531   0.381   6.513  15.910 -1.6783  2.9171  3.2361
 5372TIP3    H237532   0.267   6.490  15.813  1.6556 -0.8778 -0.1510
 5373TIP3   OH237533   3.901   4.124   2.610  0.0370  0.2088 -0.3069
 5373TIP3    H137534   3.960   4.066   2.562  2.0095  0.7560  1.3121
 5373TIP3    H237535   3.959   4.178   2.664 -1.8739  1.9489  0.1462
 5374TIP3   OH237536   3.473   1.685  13.145  0.0807  0.2232  0.3241
 5374TIP3    H137537   3.383   1.680  13.112 -0.2407 -0.9193  1.3156
 5374TIP3    H237538   3.464   1.724  13.233  0.5220 -0.1381  0.5322
 5375TIP3   OH237539   1.869   5.304   0.201  0.0073  0.6779  0.3305
 5375TIP3    H137540   1.901   5.353   0.277 -3.1206  2.3348  0.7441
 5375TIP3    H237541   1.870   5.367   0.129 -1.5721  0.6114  0.2151
 5376TIP3   OH237542   0.036   5.538  10.505  0.3362  0.4355 -0.5288
 5376TIP3    H137543  -0.060   5.541  10.509  0.2848 -0.0059 -1.2412
 5376TIP3    H237544   0.059   5.452  10.538  0.3373 -0.3206 -2.3746
 5377TIP3   OH237545   2.409   5.682   4.511 -0.3398 -0.3919 -0.3826
 5377TIP3    H137546   2.329   5.724   4.543 -1.3307 -2.2903 -0.2789
 5377TIP3    H237547   2.427   5.725   4.427 -1.7565 -0.3052 -0.6554
 5378TIP3   OH237548   3.853   5.871  11.405 -0.0055  0.2687 -0.1601
 5378TIP3    H137549   3.807   5.887  11.322  0.0567 -1.0371 -0.4650
 5378TIP3    H237550   3.935   5.828  11.378  0.0877 -0.0115  0.5647
 5379TIP3   OH237551   2.035   5.432  14.120  0.0644 -0.1813 -0.2452
 5379TIP3    H137552   2.063   5.518  14.089  0.3762 -0.6762 -1.3817
 5379TIP3    H237553   1.939   5.433  14.111  0.2027 -0.5724 -1.9533
 5380TIP3   OH237554   3.378   0.003   5.937  0.4240  0.2441  0.0540
 5380TIP3    H137555   3.465  -0.036   5.928  0.3563  0.4305 -1.8587
 5380TIP3    H237556   3.379   0.077   5.877 -0.9583  0.4312  0.2341
 5381TIP3   OH237557   2.695   4.144  10.776  0.6364 -0.7195  0.0178
 5381TIP3    H137558   2.648   4.170  10.855 -1.6587 -0.3957 -1.3720
 5381TIP3    H237559   2.781   4.185  10.785  0.3158 -0.4111  2.1711
 5382TIP3   OH237560   6.600   6.407  11.657 -0.3702 -0.6335 -0.2897
 5382TIP3    H137561   6.616   6.375  11.569  0.1201 -0.3245 -0.3166
 5382TIP3    H237562   6.572   6.498  11.645 -0.1977 -0.5571 -0.1215
 5383TIP3   OH237563   3.558   6.622  14.732 -0.0394 -1.1481  0.4877
 5383TIP3    H137564   3.605   6.566  14.670  1.2455 -0.7318  1.0480
 5383TIP3    H237565   3.552   6.707  14.688  0.8969 -0.8446  0.9072
 5384TIP3   OH237566   0.637   0.999  13.671 -0.4138  0.9091  0.1703
 5384TIP3    H137567   0.673   0.929  13.617 -0.1624 -0.1077  1.6215
 5384TIP3    H237568   0.618   1.069  13.609 -0.2390 -0.2584 -1.2521
 5385TIP3   OH237569   2.627   3.497  16.979 -0.2757  0.4708  0.2753
 5385TIP3    H137570   2.606   3.425  17.038  0.9882 -0.2189 -0.0803
 5385TIP3    H237571   2.596   3.575  17.025 -0.6852 -0.1894  1.1563
 5386TIP3   OH237572   0.943   6.640   2.817  0.7053 -0.1305 -0.3154
 5386TIP3    H137573   0.944   6.720   2.870 -0.7027 -0.1112 -0.2733
 5386TIP3    H237574   0.878   6.658   2.749 -0.7530 -1.7504  0.5629
 5387TIP3   OH237575   2.054   0.824   1.690  0.5730  0.0104 -0.0293
 5387TIP3    H137576   2.054   0.821   1.594 -0.0121 -0.3738 -0.0201
 5387TIP3    H237577   1.969   0.788   1.715  0.2116  1.2522  0.6061
 5388TIP3   OH237578   3.231   2.578  12.583 -0.1501  0.5509 -0.1075
 5388TIP3    H137579   3.167   2.516  12.550 -0.2967  1.4809 -1.6678
 5388TIP3    H237580   3.252   2.547  12.671 -0.5941 -1.3833 -0.6524
 5389TIP3   OH237581   2.350   5.438   5.373  0.2794 -0.0172 -0.1610
 5389TIP3    H137582   2.333   5.372   5.440 -0.3242 -1.9635 -2.1171
 5389TIP3    H237583   2.304   5.517   5.404 -0.9507 -1.1998  1.1515
 5390TIP3   OH237584   3.584   6.644  16.352  0.0847 -0.3169 -0.7155
 5390TIP3    H137585   3.620   6.617  16.436 -0.6213 -3.1536 -1.2464
 5390TIP3    H237586   3.557   6.735  16.366 -0.4869 -0.8442  2.2811
 5391TIP3   OH237587   3.668   6.408  13.328  0.0788  0.5944  0.7513
 5391TIP3    H137588   3.700   6.439  13.413 -1.5523 -1.1514  2.1322
 5391TIP3    H237589   3.573   6.401  13.340 -0.1422 -0.1486 -1.0777
 5392TIP3   OH237590   4.238   5.162  15.998  0.0432 -0.1168  0.0385
 5392TIP3    H137591   4.170   5.099  16.022  0.4505 -0.8157 -0.6229
 5392TIP3    H237592   4.273   5.191  16.083 -1.2688  0.4927  0.4025
 5393TIP3   OH237593   3.127   0.490   1.717  0.6746 -0.3864 -0.2878
 5393TIP3    H137594   3.043   0.454   1.688  0.7736 -0.5764 -0.3422
 5393TIP3    H237595   3.159   0.540   1.641 -0.2304  1.1948  0.3366
 5394TIP3   OH237596   4.923   5.839   4.911 -0.1273 -0.4384 -0.8700
 5394TIP3    H137597   4.831   5.863   4.898  0.2078  1.6283  0.2292
 5394TIP3    H237598   4.962   5.845   4.824 -0.4976  1.2508 -0.9463
 5395TIP3   OH237599   4.034   2.120   1.082  0.1269  0.1242 -0.2780
 5395TIP3    H137600   4.045   2.133   1.176 -2.3667 -0.7396  0.2194
 5395TIP3    H237601   3.972   2.048   1.075  0.2853  0.1249 -2.6160
 5396TIP3   OH237602   1.839   4.114   2.598 -0.7330  0.4343  0.4219
 5396TIP3    H137603   1.907   4.132   2.662 -0.5063 -1.7008  0.8367
 5396TIP3    H237604   1.760   4.097   2.650 -1.2600  1.5133  0.0008
 5397TIP3   OH237605   6.041   6.706  15.584  0.1562 -0.4054 -0.2472
 5397TIP3    H137606   5.990   6.772  15.537  0.9980 -0.6689 -1.6050
 5397TIP3    H237607   6.007   6.622  15.552  1.2642 -0.5847 -1.0036
 5398TIP3   OH237608   2.651   0.012  13.472 -0.6287 -0.0684 -0.0066
 5398TIP3    H137609   2.555   0.010  13.475 -0.6779  1.6578  0.5954
 5398TIP3    H237610   2.676   0.050  13.556  0.6873 -2.0014  0.5523
 5399TIP3   OH237611   4.223   4.078   0.764 -0.8795  0.2910  0.2765
 5399TIP3    H137612   4.306   4.033   0.779 -1.4631 -0.2861  2.0951
 5399TIP3    H237613   4.167   4.050   0.837 -2.3197  1.4893 -0.3090
 5400TIP3   OH237614   3.042   0.088  17.268  0.0496  0.4907  0.0282
 5400TIP3    H137615   2.990   0.168  17.278  1.1873  1.2315  0.2333
 5400TIP3    H237616   3.047   0.074  17.173 -1.5203 -0.2842  0.0351
 5401TIP3   OH237617   5.578   4.744   5.665  0.2246 -0.1647 -0.7108
 5401TIP3    H137618   5.575   4.840   5.660  2.1463  0.0720  1.4055
 5401TIP3    H237619   5.637   4.719   5.594 -1.8078 -0.0221 -2.5584
 5402TIP3   OH237620   0.573   5.919   5.140  0.7877 -0.4997  0.0031
 5402TIP3    H137621   0.546   5.916   5.232 -0.7829 -2.6814 -0.4604
 5402TIP3    H237622   0.520   5.988   5.102  1.1040  0.0924  0.6093
 5403TIP3   OH237623   3.815   1.538  14.629 -0.0553  0.2285 -0.9313
 5403TIP3    H137624   3.813   1.522  14.724  2.0474  0.3879 -0.8247
 5403TIP3    H237625   3.723   1.549  14.605 -0.5499  1.9976  1.4035
 5404TIP3   OH237626   0.966   6.207  12.674 -0.1710 -0.4486  0.4964
 5404TIP3    H137627   0.921   6.263  12.611  2.3262 -0.6263 -1.6124
 5404TIP3    H237628   0.921   6.122  12.667  0.6983 -0.7785 -1.9511
 5405TIP3   OH237629   0.922   3.720  12.417  0.3784  0.3510  0.6721
 5405TIP3    H137630   0.994   3.781  12.427  1.3429 -0.8299  1.1470
 5405TIP3    H237631   0.899   3.724  12.324  1.7512 -0.0181  0.3027
 5406TIP3   OH237632   6.319   4.035   1.018 -0.7484  0.5257 -0.5211
 5406TIP3    H137633   6.276   4.008   0.937  0.0404  0.7254 -1.0182
 5406TIP3    H237634   6.334   4.129   1.007 -1.4886  0.7501  0.2655
 5407TIP3   OH237635   4.784   1.794  15.149  0.1024 -1.0789  0.1767
 5407TIP3    H137636   4.851   1.863  15.158 -1.9984  1.1443 -0.1774
 5407TIP3    H237637   4.778   1.755  15.236  0.5326  0.0245  0.7226
 5408TIP3   OH237638   5.009   1.903  15.480  0.4941  0.4613  0.2535
 5408TIP3    H137639   4.961   1.975  15.521 -0.3648 -0.0465  0.1717
 5408TIP3    H237640   5.043   1.940  15.399 -0.7318  0.5324 -0.2489
 5409TIP3   OH237641   6.643   4.858   6.024 -0.1044 -0.1064  0.0771
 5409TIP3    H137642   6.582   4.786   6.010 -1.0619  0.5583  0.6630
 5409TIP3    H237643   6.672   4.848   6.115 -0.6434  0.5203  0.3289
 5410TIP3   OH237644   0.620   4.917  17.020 -0.2199 -0.2566 -0.3602
 5410TIP3    H137645   0.622   5.011  17.041  0.6188 -0.5350  0.9067
 5410TIP3    H237646   0.640   4.913  16.927 -1.5379  0.8892 -0.7379
 5411TIP3   OH237647   4.535   4.427  16.707 -0.1943 -0.2546  0.5215
 5411TIP3    H137648   4.563   4.342  16.740  1.0477  0.2532  0.8074
 5411TIP3    H237649   4.608   4.456  16.652 -0.5839  0.6608  0.4850
 5412TIP3   OH237650   0.940   4.114  14.795  0.1664  0.1390 -0.3220
 5412TIP3    H137651   0.997   4.141  14.867 -0.9527  1.3648  0.1324
 5412TIP3    H237652   0.956   4.178  14.726  0.5808 -0.5178 -0.8553
 5413TIP3   OH237653   1.915   0.701  13.399  0.6352 -0.6680 -0.4701
 5413TIP3    H137654   1.956   0.641  13.461  0.9484 -0.7478 -0.7545
 5413TIP3    H237655   1.872   0.645  13.335  1.0772 -0.5947 -0.8360
 5414TIP3   OH237656   0.756   4.287   3.220 -0.7826  0.0917  0.5417
 5414TIP3    H137657   0.788   4.331   3.298 -0.3126  1.2379 -0.2655
 5414TIP3    H237658   0.775   4.195   3.235 -0.1007  0.3680  1.4930
 5415TIP3   OH237659   4.235   1.702   3.310 -0.4270  0.3237  0.7167
 5415TIP3    H137660   4.277   1.772   3.359 -0.5387 -0.6202  2.2450
 5415TIP3    H237661   4.202   1.744   3.231  0.7437  1.6825  0.9102
 5416TIP3   OH237662   4.161   5.822  15.911 -0.3620 -0.9533 -0.0222
 5416TIP3    H137663   4.123   5.747  15.865 -2.1348 -0.7932  1.0696
 5416TIP3    H237664   4.100   5.894  15.893  1.1804  0.1949 -0.8540
 5417TIP3   OH237665   1.400   4.810  13.769 -0.6402 -0.2401 -0.3819
 5417TIP3    H137666   1.494   4.825  13.756 -0.6519 -1.1473 -1.7634
 5417TIP3    H237667   1.361   4.897  13.765  0.2807  0.3226  1.7992
 5418TIP3   OH237668   5.829   1.155  14.887 -0.2704 -0.2122  0.8181
 5418TIP3    H137669   5.858   1.245  14.872  0.2300 -0.3389  1.0159
 5418TIP3    H237670   5.909   1.104  14.893 -0.5271 -0.5464  1.5053
 5419TIP3   OH237671   5.901   3.196  15.644  0.4321  0.0693  0.1392
 5419TIP3    H137672   5.923   3.254  15.717 -0.7885  0.1025  0.5037
 5419TIP3    H237673   5.805   3.201  15.638  0.4911 -0.1389 -1.2945
 5420TIP3   OH237674   4.367   3.914  11.950 -0.0967  0.0426  0.2567
 5420TIP3    H137675   4.397   3.911  11.860  1.4154 -0.6365  0.7466
 5420TIP3    H237676   4.392   4.001  11.981 -1.0083  0.4396 -0.0832
 5421TIP3   OH237677   3.480   5.264   3.715 -0.1711 -0.2038 -0.2099
 5421TIP3    H137678   3.532   5.329   3.763 -0.8083 -0.8423  1.4411
 5421TIP3    H237679   3.471   5.192   3.777 -0.5997 -1.3122 -1.5249
 5422TIP3   OH237680   1.796   0.550  10.673 -0.2805 -0.7536 -0.1947
 5422TIP3    H137681   1.742   0.623  10.703  0.9504 -0.0169  0.2711
 5422TIP3    H237682   1.768   0.476  10.727 -1.8960 -0.7897 -1.0239
 5423TIP3   OH237683   0.634   5.348   4.258  0.2607 -0.6027  0.1912
 5423TIP3    H137684   0.691   5.375   4.330  0.4922  0.4914 -0.3910
 5423TIP3    H237685   0.568   5.416   4.252 -0.1866 -1.0582 -0.1679
 5424TIP3   OH237686   4.371   6.562   3.353 -0.2466  0.4210  0.0438
 5424TIP3    H137687   4.302   6.620   3.321  0.4241 -0.0519 -2.4623
 5424TIP3    H237688   4.326   6.499   3.408 -1.5361  1.1544 -0.1269
 5425TIP3   OH237689   0.993   5.151  14.918  0.1226  0.0395 -0.1419
 5425TIP3    H137690   0.984   5.162  15.013 -0.9220  1.9550 -0.4116
 5425TIP3    H237691   1.078   5.189  14.897 -0.8163  2.2380 -0.2609
 5426TIP3   OH237692   0.225   4.032  17.118  0.4551  0.1343 -0.2981
 5426TIP3    H137693   0.229   4.111  17.172 -0.2312  2.0354 -2.8116
 5426TIP3    H237694   0.141   4.037  17.074  0.8818 -1.4288 -1.3902
 5427TIP3   OH237695   3.218   3.710  13.122  0.4209 -0.0584 -0.1817
 5427TIP3    H137696   3.175   3.627  13.142  0.8036 -0.4494 -0.9188
 5427TIP3    H237697   3.209   3.762  13.202 -0.1168 -0.6814  0.1749
 5428TIP3   OH237698   5.858   2.494  15.989 -0.4775  0.3260 -0.4210
 5428TIP3    H137699   5.868   2.464  15.899 -0.6585  0.7430 -0.5827
 5428TIP3    H237700   5.794   2.566  15.984 -0.8456  0.0435  0.0994
 5429TIP3   OH237701   0.595   4.029   3.032  0.1432 -0.0272 -0.3683
 5429TIP3    H137702   0.668   4.082   3.000 -1.3547  1.0803 -2.1823
 5429TIP3    H237703   0.584   3.961   2.966  0.4107 -1.0461  0.6199
 5430TIP3   OH237704   6.412   2.627   2.070 -0.1046  0.1329 -0.3745
 5430TIP3    H137705   6.454   2.710   2.091 -2.1614  1.1930 -0.1334
 5430TIP3    H237706   6.447   2.565   2.133  1.4482  0.8185 -0.5374
 5431TIP3   OH237707   0.428   3.671   4.299  0.2540 -0.0863 -0.2302
 5431TIP3    H137708   0.504   3.723   4.323 -0.1731  0.8512 -0.8387
 5431TIP3    H237709   0.421   3.679   4.204 -0.1620 -0.7874 -0.2735
 5432TIP3   OH237710   5.472   0.296  13.211 -0.6692 -0.7417 -0.2347
 5432TIP3    H137711   5.418   0.281  13.289 -1.4568  1.3351 -0.3300
 5432TIP3    H237712   5.560   0.312  13.245 -1.0314  0.2738  0.2550
 5433TIP3   OH237713   0.378   4.619  16.703 -0.5580 -0.1471  0.0901
 5433TIP3    H137714   0.397   4.557  16.632 -1.1266 -1.5202  1.0935
 5433TIP3    H237715   0.462   4.659  16.723 -0.4204  0.4340 -1.4776
 5434TIP3   OH237716   1.102   3.688   1.290  0.1935  0.0014 -0.1000
 5434TIP3    H137717   1.044   3.716   1.219 -0.3529  0.2314  0.4283
 5434TIP3    H237718   1.120   3.596   1.272 -0.8157 -0.2352  0.0546
 5435TIP3   OH237719   2.541   1.330  16.850 -0.3846  0.2079 -0.1040
 5435TIP3    H137720   2.553   1.309  16.942 -1.9260  0.2610  0.1343
 5435TIP3    H237721   2.542   1.426  16.846  0.6639  0.1978 -0.3009
 5436TIP3   OH237722   3.432   4.371  13.652  0.3607  0.1655  0.5569
 5436TIP3    H137723   3.458   4.454  13.613  1.3457  0.2049  1.2638
 5436TIP3    H237724   3.387   4.397  13.733  0.7607  0.0124  0.8295
 5437TIP3   OH237725   0.718   1.166   1.682 -0.0643 -0.1021  0.1331
 5437TIP3    H137726   0.787   1.128   1.736  1.7282  1.6871 -0.7629
 5437TIP3    H237727   0.751   1.159   1.592  0.9010  4.2658 -0.0489
 5438TIP3   OH237728   0.604   0.884   3.374  0.1251 -0.2916 -0.7785
 5438TIP3    H137729   0.613   0.803   3.425 -0.4888  0.0316 -0.1487
 5438TIP3    H237730   0.560   0.945   3.433 -2.0625 -0.3978 -2.1628
 5439TIP3   OH237731   5.732   4.736   5.414  0.0966 -0.5743 -0.0875
 5439TIP3    H137732   5.764   4.780   5.335  2.3815  0.6491  1.3937
 5439TIP3    H237733   5.803   4.676   5.438  0.3897  0.5729  2.1132
 5440TIP3   OH237734   4.299   0.159   5.533  0.1498 -0.4672  0.2270
 5440TIP3    H137735   4.261   0.177   5.446 -0.0770 -0.5068  0.3164
 5440TIP3    H237736   4.365   0.091   5.516  1.7505  1.1312 -0.2793
 5441TIP3   OH237737   4.471   0.619  15.917 -0.4449  0.5657  0.6206
 5441TIP3    H137738   4.523   0.540  15.903 -1.1769  0.1761 -0.0295
 5441TIP3    H237739   4.462   0.626  16.012 -0.0759  0.0620  0.6927
 5442TIP3   OH237740   6.150   2.127  16.446 -0.5426 -0.2484 -0.7662
 5442TIP3    H137741   6.123   2.202  16.500 -1.2372 -0.1007 -1.3002
 5442TIP3    H237742   6.142   2.052  16.505 -0.5717 -0.0002 -0.4461
 5443TIP3   OH237743   5.190   0.151  14.179 -0.0189 -0.0129 -0.1096
 5443TIP3    H137744   5.133   0.184  14.110  0.8779  1.7211 -0.0748
 5443TIP3    H237745   5.261   0.215  14.184  1.7240 -1.8702  0.1195
 5444TIP3   OH237746   1.853   5.128   3.555  0.3452  0.1779  0.2114
 5444TIP3    H137747   1.774   5.108   3.505  1.5210 -0.0636 -1.6444
 5444TIP3    H237748   1.924   5.119   3.492  1.8990  0.0969  1.8991
 5445TIP3   OH237749   4.606   2.612   0.974 -0.0458  0.1297 -0.0159
 5445TIP3    H137750   4.517   2.635   0.950 -0.5416  0.5614  1.9918
 5445TIP3    H237751   4.598   2.529   1.020  0.6164  0.0653 -0.0036
 5446TIP3   OH237752   3.747   6.750  14.039  0.1732 -0.2280 -0.2493
 5446TIP3    H137753   3.686   6.719  14.107 -0.6724  0.5992 -0.6151
 5446TIP3    H237754   3.692   6.797  13.977  1.0057 -0.5879 -1.2916
 5447TIP3   OH237755   0.209   5.259   0.881  0.1266  0.5738  0.3760
 5447TIP3    H137756   0.147   5.293   0.817  0.1762  1.9451  1.0351
 5447TIP3    H237757   0.294   5.264   0.837 -0.2910 -2.7669 -1.1307
 5448TIP3   OH237758   3.556   2.681  13.464  0.2522 -0.1610 -0.0411
 5448TIP3    H137759   3.574   2.687  13.558  0.7792  0.9017 -0.1887
 5448TIP3    H237760   3.564   2.588  13.443  2.0996 -0.1709  0.5883
 5449TIP3   OH237761   6.596   4.672  16.139 -0.8165  0.5153 -0.0805
 5449TIP3    H137762   6.690   4.685  16.151 -0.8922  2.2128 -1.0366
 5449TIP3    H237763   6.588   4.632  16.053 -0.9201 -1.1565  0.6593
 5450TIP3   OH237764   4.727   5.228  10.667  0.3333 -0.2167  0.2751
 5450TIP3    H137765   4.714   5.322  10.668 -0.6290 -0.0285 -4.7139
 5450TIP3    H237766   4.651   5.192  10.714  0.0774  1.4124  1.1686
 5451TIP3   OH237767   6.188   3.702  12.521 -0.0783  0.3385  0.7350
 5451TIP3    H137768   6.213   3.633  12.461 -0.9527  0.3551  0.3274
 5451TIP3    H237769   6.207   3.667  12.608  0.6690  0.0947  0.4807
 5452TIP3   OH237770   2.437   0.814  14.931  0.0222  0.6078  0.3424
 5452TIP3    H137771   2.357   0.778  14.968 -1.1053  2.9545  0.4036
 5452TIP3    H237772   2.507   0.763  14.970 -1.3892 -0.8343  1.1005
 5453TIP3   OH237773   3.452   1.871  12.359  0.0838  0.3739  0.3493
 5453TIP3    H137774   3.420   1.781  12.357  0.8347  0.1126 -0.4006
 5453TIP3    H237775   3.514   1.876  12.287  0.5185  1.3234  0.7723
 5454TIP3   OH237776   6.010   6.078  14.312 -0.7792  0.0762 -0.4157
 5454TIP3    H137777   5.983   6.016  14.380 -3.2517 -0.0509 -1.4321
 5454TIP3    H237778   6.053   6.148  14.361 -1.5587 -0.4968  1.1777
 5455TIP3   OH237779   4.304   3.125   2.416 -0.0472 -0.3302 -0.1893
 5455TIP3    H137780   4.387   3.136   2.462 -0.4908  0.2548  0.4890
 5455TIP3    H237781   4.327   3.076   2.337  0.8769 -0.5069  0.1752
 5456TIP3   OH237782   0.910   1.813  16.606  0.2212  0.3740 -0.1029
 5456TIP3    H137783   0.876   1.724  16.610  0.8394  0.0651 -1.2641
 5456TIP3    H237784   0.970   1.820  16.680 -0.5607  0.1595  0.5637
 5457TIP3   OH237785   5.760   6.742   1.870 -0.2269 -0.3995  0.7164
 5457TIP3    H137786   5.725   6.781   1.790 -0.4993  0.6389  1.3263
 5457TIP3    H237787   5.844   6.704   1.844 -0.1018  0.3202  0.0384
 5458TIP3   OH237788   3.025   4.243  12.041  0.1367  0.4637  0.1789
 5458TIP3    H137789   2.955   4.200  11.992  0.2067 -0.7317  1.0688
 5458TIP3    H237790   3.105   4.213  11.998  0.1439  1.6103 -0.6646
 5459TIP3   OH237791   5.709   1.244   3.423  0.3727 -0.6311 -0.6950
 5459TIP3    H137792   5.769   1.256   3.496  1.9395 -2.2621 -1.6159
 5459TIP3    H237793   5.628   1.286   3.451  1.3457  0.0043  1.3798
 5460TIP3   OH237794   5.201   0.961  16.960  0.2599  0.2991  0.0606
 5460TIP3    H137795   5.119   0.981  17.005  0.2062 -0.7894  0.4890
 5460TIP3    H237796   5.235   1.046  16.932  1.4856  1.3858  4.1752
 5461TIP3   OH237797   3.159   3.294   1.060  0.4732  0.5463 -0.2865
 5461TIP3    H137798   3.153   3.213   1.111 -0.2872 -0.2545 -1.5903
 5461TIP3    H237799   3.249   3.324   1.073  0.3112  0.3677  1.4781
 5462TIP3   OH237800   3.699   2.592   5.261 -0.3626  0.0970  0.2599
 5462TIP3    H137801   3.635   2.652   5.223  1.3911  2.1502  0.3350
 5462TIP3    H237802   3.736   2.545   5.186  0.4905  1.4829 -0.2371
 5463TIP3   OH237803   1.520   4.523  15.207  0.5594 -0.0401 -0.1191
 5463TIP3    H137804   1.471   4.470  15.270  0.9389  0.4485  0.6066
 5463TIP3    H237805   1.533   4.465  15.132  0.1804 -0.6694  0.2870
 5464TIP3   OH237806   4.912   2.274  15.304  0.0105  0.1796  0.3420
 5464TIP3    H137807   4.945   2.276  15.394  1.7228  3.2391 -0.2311
 5464TIP3    H237808   4.990   2.278  15.249 -1.0575  1.6032 -1.1825
 5465TIP3   OH237809   6.225   1.428   5.902  0.2555 -0.3464  0.7159
 5465TIP3    H137810   6.256   1.485   5.973  2.5194  0.4255 -0.7597
 5465TIP3    H237811   6.187   1.487   5.838  1.5000 -0.5741 -0.2800
 5466TIP3   OH237812   6.530   3.981   4.472  0.0427 -0.0417 -0.5444
 5466TIP3    H137813   6.579   3.972   4.554 -0.9208 -0.7591 -0.0252
 5466TIP3    H237814   6.553   3.902   4.422 -0.5100 -0.3426 -0.3310
 5467TIP3   OH237815   2.880   3.022   4.778 -0.2099 -0.0775  0.2780
 5467TIP3    H137816   2.938   3.012   4.703 -0.0282 -1.5622  0.5843
 5467TIP3    H237817   2.800   3.061   4.743 -0.3637 -1.3242 -0.8148
 5468TIP3   OH237818   1.735   1.810   0.877  0.0269 -0.4733  0.3375
 5468TIP3    H137819   1.738   1.715   0.887 -1.2395 -0.5121  0.4811
 5468TIP3    H237820   1.675   1.825   0.805 -0.3683  0.2406  0.8032
 5469TIP3   OH237821   5.061   4.671  12.976  0.6501  0.2440 -0.4389
 5469TIP3    H137822   5.028   4.758  12.951  0.3919  0.7202  1.4340
 5469TIP3    H237823   5.148   4.666  12.937  1.0635  1.7497  0.2298
 5470TIP3   OH237824   6.359   2.762   3.633 -0.5680  0.2763  0.4581
 5470TIP3    H137825   6.362   2.743   3.727 -0.2153 -1.2757  0.1558
 5470TIP3    H237826   6.447   2.793   3.612 -0.1922 -0.7862  0.3850
 5471TIP3   OH237827   3.142   3.090   3.177  0.1071  0.0032  0.1943
 5471TIP3    H137828   3.070   3.115   3.118  0.7325  1.2002 -0.1018
 5471TIP3    H237829   3.150   2.996   3.167 -1.3320 -0.1284  0.1262
 5472TIP3   OH237830   4.096   2.607   0.659 -0.4527 -0.1913  0.5366
 5472TIP3    H137831   4.043   2.583   0.735 -0.2271  0.4545  0.9044
 5472TIP3    H237832   4.049   2.679   0.619 -2.6573 -2.8967 -2.2174
 5473TIP3   OH237833   0.299   4.374   2.426 -0.1094 -0.4805 -0.1890
 5473TIP3    H137834   0.366   4.432   2.462 -2.1271  1.9385 -0.0698
 5473TIP3    H237835   0.340   4.335   2.349  1.4908  0.8136 -0.0521
 5474TIP3   OH237836   4.658   4.595  11.396  0.3729 -0.1358  0.2533
 5474TIP3    H137837   4.590   4.608  11.463 -0.3387 -0.2644 -0.4344
 5474TIP3    H237838   4.623   4.528  11.339  1.9683 -1.7301  1.0403
 5475TIP3   OH237839   1.807   0.318   0.598  0.2806  0.5046  0.1247
 5475TIP3    H137840   1.813   0.231   0.558 -0.4589  0.3991  0.2280
 5475TIP3    H237841   1.894   0.333   0.634  0.6211  0.1105 -0.5170
 5476TIP3   OH237842   5.737   5.428   1.825 -0.0660 -0.4022 -0.1055
 5476TIP3    H137843   5.651   5.435   1.782 -0.0520 -0.3166 -0.1206
 5476TIP3    H237844   5.743   5.508   1.878  0.7566  0.4895 -1.4827
 5477TIP3   OH237845   0.934   0.200   3.813 -0.0527  0.6231 -0.4032
 5477TIP3    H137846   0.894   0.268   3.758 -3.9886 -1.4574 -0.4832
 5477TIP3    H237847   0.907   0.223   3.902 -1.5107 -0.7395 -0.4396
 5478TIP3   OH237848   3.128   4.887   1.861  0.2051 -0.4789 -0.0019
 5478TIP3    H137849   3.057   4.872   1.799  1.1868  2.2680 -2.0388
 5478TIP3    H237850   3.188   4.945   1.814  2.8910 -1.1913  2.2719
 5479TIP3   OH237851   3.257   3.791   1.484 -0.2663 -0.3262  0.0171
 5479TIP3    H137852   3.294   3.807   1.571 -0.0587  0.2985 -0.1796
 5479TIP3    H237853   3.162   3.789   1.499 -0.2540  0.2087  0.1984
 5480TIP3   OH237854   6.655   4.125  11.513 -0.0098 -0.5849  0.2560
 5480TIP3    H137855   6.601   4.165  11.582 -0.1609 -0.7118  0.2111
 5480TIP3    H237856   6.592   4.083  11.455  0.2015 -1.7658  0.8552
 5481TIP3   OH237857   4.114   0.161   1.911 -0.1156 -0.2619  0.4089
 5481TIP3    H137858   4.025   0.152   1.877 -0.4641  1.4566  0.7771
 5481TIP3    H237859   4.145   0.244   1.876  0.2955  0.5462  2.5252
 5482TIP3   OH237860   5.140   2.734   4.454 -0.6134 -0.2932 -0.5596
 5482TIP3    H137861   5.228   2.719   4.491  0.1403 -2.4998 -2.9150
 5482TIP3    H237862   5.129   2.829   4.456  0.9372 -0.0683  1.6296
 5483TIP3   OH237863   6.655   0.660  16.366  0.4634  0.7496 -1.0714
 5483TIP3    H137864   6.735   0.713  16.365  0.9154  0.1077 -0.0706
 5483TIP3    H237865   6.586   0.722  16.392  0.3007  1.6934 -3.5193
 5484TIP3   OH237866   5.230   6.373   3.355 -0.1884 -0.0170 -0.2357
 5484TIP3    H137867   5.163   6.418   3.407 -0.9950  0.0968 -1.3505
 5484TIP3    H237868   5.251   6.295   3.407  1.0147  1.4269  1.5697
 5485TIP3   OH237869   5.245   2.397   6.707 -0.5275 -1.0662 -0.2201
 5485TIP3    H137870   5.326   2.355   6.676 -1.5346 -3.6806  0.4053
 5485TIP3    H237871   5.176   2.352   6.659 -1.7030  0.4284  0.0007
 5486TIP3   OH237872   4.810   0.228   5.521 -0.3408  0.0639 -0.4507
 5486TIP3    H137873   4.726   0.211   5.478 -1.4690 -0.1207  1.6940
 5486TIP3    H237874   4.817   0.324   5.522 -2.0078  0.2618  1.8492
 5487TIP3   OH237875   4.034   6.252  15.657 -0.4174 -1.0193  0.1642
 5487TIP3    H137876   3.987   6.267  15.575  1.7696 -0.4280 -1.0806
 5487TIP3    H237877   4.080   6.170  15.644 -1.2328 -1.7047  1.4372
 5488TIP3   OH237878   1.039   1.046  12.274  0.0781  0.5703  0.3018
 5488TIP3    H137879   1.015   0.955  12.257  1.1984  0.3824 -0.3654
 5488TIP3    H237880   1.130   1.053  12.245  0.3375  1.6510  1.2829
 5489TIP3   OH237881   3.729   2.975  16.149  0.2582  0.7339  0.3164
 5489TIP3    H137882   3.742   2.975  16.244  0.3771  1.7822  0.3097
 5489TIP3    H237883   3.779   3.050  16.118  0.3142  0.3323 -0.5998
 5490TIP3   OH237884   6.117   1.319   0.258  0.2768  0.5027  0.6238
 5490TIP3    H137885   6.149   1.398   0.215 -0.4637 -0.2014 -1.3366
 5490TIP3    H237886   6.185   1.253   0.243 -1.1642 -0.5363 -2.1247
 5491TIP3   OH237887   2.055   2.799   3.228  0.0249  0.3521 -0.0770
 5491TIP3    H137888   2.143   2.775   3.199 -0.6580  0.7183 -2.7720
 5491TIP3    H237889   1.998   2.733   3.189 -1.1404  1.8503 -1.0598
 5492TIP3   OH237890   4.088   6.687   5.195  0.2237 -0.1575 -0.5345
 5492TIP3    H137891   4.066   6.768   5.241  0.2209  0.0537 -0.9071
 5492TIP3    H237892   4.008   6.635   5.199  0.7811 -0.9600  1.3877
 5493TIP3   OH237893   0.715   2.894  13.914 -0.3156  0.2457  0.4873
 5493TIP3    H137894   0.763   2.824  13.958  0.5945  1.7245  1.9764
 5493TIP3    H237895   0.641   2.850  13.872  0.1767 -1.5804  1.4367
 5494TIP3   OH237896   3.620   0.332  15.499  0.4617  0.6273  0.1444
 5494TIP3    H137897   3.672   0.251  15.501  0.2992  0.5306  0.7645
 5494TIP3    H237898   3.550   0.316  15.562  0.2273  1.1214  0.0093
 5495TIP3   OH237899   4.685   4.419  12.382  0.1210  0.1381 -0.1891
 5495TIP3    H137900   4.705   4.441  12.291 -0.9901 -0.7531 -0.6659
 5495TIP3    H237901   4.591   4.434  12.390 -0.0419 -1.1116  0.4219
 5496TIP3   OH237902   0.391   4.163  12.957  0.1001  0.7324 -0.5723
 5496TIP3    H137903   0.463   4.196  12.903  1.7317 -2.4685 -0.6107
 5496TIP3    H237904   0.386   4.070  12.936 -1.9286  0.1773  1.8469
 5497TIP3   OH237905   4.963   2.611  11.015 -0.1658 -1.0042 -0.1109
 5497TIP3    H137906   5.010   2.584  10.936 -1.3370 -2.3556 -0.3848
 5497TIP3    H237907   5.018   2.581  11.087  0.3609 -0.7650 -0.4020
 5498TIP3   OH237908   2.229   2.386  14.573 -0.4760 -0.0141  0.5616
 5498TIP3    H137909   2.174   2.405  14.497  1.7509 -1.1895 -1.4660
 5498TIP3    H237910   2.189   2.308  14.612 -0.5935 -0.5532 -0.5743
 5499TIP3   OH237911   3.060   6.531  12.150 -0.0016  0.1408 -0.1750
 5499TIP3    H137912   3.009   6.479  12.213  0.4387  0.8869  0.8158
 5499TIP3    H237913   3.131   6.473  12.123 -0.0727 -0.1042  0.1610
 5500TIP3   OH237914   0.860   2.045   2.374  0.0282 -0.4771 -0.9682
 5500TIP3    H137915   0.947   2.004   2.370  0.1849 -0.2855  0.3117
 5500TIP3    H237916   0.830   2.044   2.283  1.1620 -0.9883 -1.3600
 5501TIP3   OH237917   6.024   3.536   4.171 -0.1894 -0.0411  0.2082
 5501TIP3    H137918   6.031   3.631   4.162 -0.1288  0.0612  1.2781
 5501TIP3    H237919   6.099   3.502   4.122  0.3980  0.5168  0.7030
 5502TIP3   OH237920   1.696   2.555  13.849 -0.1911  0.0981 -0.4850
 5502TIP3    H137921   1.630   2.511  13.903 -1.5025  2.1378 -0.3372
 5502TIP3    H237922   1.706   2.498  13.773  0.0935 -1.7276  0.8494
 5503TIP3   OH237923   2.518   5.069   0.387  0.5547  0.8060 -0.1248
 5503TIP3    H137924   2.467   5.119   0.323  0.0692  0.8071  0.2575
 5503TIP3    H237925   2.510   5.120   0.468  1.4975  1.0200 -0.1561
 5504TIP3   OH237926   4.600   2.803   1.805 -0.2391 -0.1267 -0.0532
 5504TIP3    H137927   4.694   2.825   1.807  0.0289 -1.1598 -0.9373
 5504TIP3    H237928   4.578   2.801   1.712 -0.2954 -3.2880 -0.0602
 5505TIP3   OH237929   2.445   2.171  13.918  0.0003 -0.2709  0.4247
 5505TIP3    H137930   2.536   2.199  13.920  0.7442 -2.5125  1.0644
 5505TIP3    H237931   2.449   2.075  13.914 -2.3006 -0.5039  1.7358
 5506TIP3   OH237932   3.509   5.645   1.065 -0.1381 -0.3206  0.3470
 5506TIP3    H137933   3.556   5.711   1.116  2.9175 -2.5440  0.7007
 5506TIP3    H237934   3.558   5.637   0.984 -2.9513  0.7256 -1.6036
 5507TIP3   OH237935   3.262   5.285   5.155 -0.0689  0.4140  0.2060
 5507TIP3    H137936   3.330   5.235   5.199  1.1690 -0.6241 -2.6221
 5507TIP3    H237937   3.184   5.230   5.163  0.0008  0.4685  1.4165
 5508TIP3   OH237938   1.250   3.164   2.802 -0.1838 -0.2873  0.3486
 5508TIP3    H137939   1.270   3.102   2.731  1.2902 -0.9469  1.3057
 5508TIP3    H237940   1.331   3.213   2.815 -0.7818  0.6034  0.8464
 5509TIP3   OH237941   4.553   4.020   0.320  0.4323  0.2608 -0.8926
 5509TIP3    H137942   4.537   3.961   0.246 -0.1095 -0.4910 -0.1876
 5509TIP3    H237943   4.523   3.972   0.397 -1.7099  2.1108 -0.4767
 5510TIP3   OH237944   2.835   5.498  16.954  0.0614  0.4623 -0.3485
 5510TIP3    H137945   2.769   5.567  16.951 -0.8428 -0.3577  0.2434
 5510TIP3    H237946   2.853   5.486  17.047 -0.3002 -0.5756 -0.4080
 5511TIP3   OH237947   3.867   6.656   0.919 -0.4757 -0.3753  0.3701
 5511TIP3    H137948   3.924   6.646   0.996 -1.0543  0.4316  0.9138
 5511TIP3    H237949   3.830   6.568   0.905  0.9253 -0.9309 -0.0330
 5512TIP3   OH237950   1.743   3.175   4.364 -0.3214  0.0527 -0.0628
 5512TIP3    H137951   1.767   3.216   4.281  0.0526  0.1819  0.1067
 5512TIP3    H237952   1.747   3.081   4.347 -1.5939  0.0738 -0.5676
 5513TIP3   OH237953   2.116   1.810  16.076  0.4587 -0.3813  0.0578
 5513TIP3    H137954   2.092   1.812  15.983  1.2099 -2.6400 -0.2633
 5513TIP3    H237955   2.171   1.888  16.088 -2.1855  1.7160 -0.5422
 5514TIP3   OH237956   0.711   1.428  14.794 -0.4410 -0.4429  0.0617
 5514TIP3    H137957   0.804   1.434  14.814 -0.1788 -0.4418 -1.0589
 5514TIP3    H237958   0.681   1.519  14.790  0.0386 -0.3264 -1.7697
 5515TIP3   OH237959   4.154   5.030  14.454  0.3595  0.0395  0.1722
 5515TIP3    H137960   4.138   4.939  14.429  1.0958 -0.0698  0.0734
 5515TIP3    H237961   4.089   5.048  14.522 -1.7804  0.3932 -1.8483
 5516TIP3   OH237962   5.889   4.604  11.264  0.2269  0.3192 -0.6112
 5516TIP3    H137963   5.916   4.615  11.355  1.0503  0.1989 -0.8347
 5516TIP3    H237964   5.910   4.687  11.222 -0.9856  0.7077 -0.5100
 5517TIP3   OH237965   0.808   5.687  16.309  0.9042  0.3974 -0.3500
 5517TIP3    H137966   0.876   5.752  16.327  1.4617 -0.1177 -0.5371
 5517TIP3    H237967   0.763   5.676  16.393  1.1107  0.6795 -0.1996
 5518TIP3   OH237968   1.993   1.732  15.437 -0.0546  0.1306 -0.1910
 5518TIP3    H137969   1.952   1.696  15.516 -1.9383  1.4656 -0.5022
 5518TIP3    H237970   2.052   1.801  15.470  1.1590 -1.0384  0.1794
 5519TIP3   OH237971   0.683   3.018  13.402 -0.4506  0.2073 -0.0271
 5519TIP3    H137972   0.756   2.973  13.358 -0.1979 -0.0400  0.6247
 5519TIP3    H237973   0.702   3.111  13.390 -1.1511  0.1740 -1.6710
 5520TIP3   OH237974   5.335   4.634  14.010 -0.6481  0.4216 -0.1447
 5520TIP3    H137975   5.359   4.727  14.009 -1.2878  0.5949 -1.2730
 5520TIP3    H237976   5.333   4.609  13.918  0.9410 -1.1210  0.1927
 5521TIP3   OH237977   5.903   5.920   4.121 -0.4627  0.2383 -0.7408
 5521TIP3    H137978   5.926   5.972   4.197 -3.2741  1.5053 -0.6159
 5521TIP3    H237979   5.906   5.829   4.152  0.8586  0.5427  0.1065
 5522TIP3   OH237980   0.173   4.594  17.136  0.2068  0.2283  0.2879
 5522TIP3    H137981   0.248   4.542  17.106  0.0252  0.4185 -0.5230
 5522TIP3    H237982   0.212   4.667  17.183  0.5718  0.6472 -0.6352
 5523TIP3   OH237983   6.145   3.038  14.799  0.0877  0.6276  0.0745
 5523TIP3    H137984   6.074   2.974  14.797  3.3368 -3.3543 -0.1998
 5523TIP3    H237985   6.151   3.065  14.890 -0.9464  0.0837  0.3165
 5524TIP3   OH237986   2.220   1.571  10.689  0.4720 -0.1033  0.1799
 5524TIP3    H137987   2.257   1.657  10.712 -0.3593  0.4625 -0.5172
 5524TIP3    H237988   2.293   1.524  10.649  0.6128  0.7745 -0.6399
 5525TIP3   OH237989   3.241   6.023  16.396  0.2001 -0.2704  0.1471
 5525TIP3    H137990   3.214   6.094  16.338 -1.7113 -0.6252  0.5412
 5525TIP3    H237991   3.335   6.011  16.378  0.5513  2.2359 -0.0116
 5526TIP3   OH237992   6.246   0.241   5.350 -0.1806 -0.4158 -0.0581
 5526TIP3    H137993   6.270   0.328   5.383 -1.7858 -0.0412  0.1997
 5526TIP3    H237994   6.178   0.210   5.410 -1.1126 -0.9538 -1.3478
 5527TIP3   OH237995   0.226   3.565  16.120 -0.1224  0.7735  0.2146
 5527TIP3    H137996   0.164   3.633  16.147  0.8121  1.9397 -0.4824
 5527TIP3    H237997   0.223   3.566  16.025  0.6966  0.5889  0.1800
 5528TIP3   OH237998   2.273   1.119  16.118  0.3567  0.5045  0.2980
 5528TIP3    H137999   2.311   1.132  16.205  1.1414  0.1519  0.0105
 5528TIP3    H238000   2.278   1.024  16.104 -1.6054  0.2987  0.6992
 5529TIP3   OH238001   5.753   3.742   0.204 -0.1099  0.3270  0.3131
 5529TIP3    H138002   5.662   3.723   0.223 -0.0544  0.6547  0.9174
 5529TIP3    H238003   5.762   3.726   0.110 -1.0267  1.2747  0.0577
 5530TIP3   OH238004   5.034   2.838   5.754  0.3908 -0.6343  0.2619
 5530TIP3    H138005   5.001   2.828   5.843  0.8925 -1.9670  0.3116
 5530TIP3    H238006   5.125   2.809   5.758  0.5267 -0.3804 -0.6212
 5531TIP3   OH238007   6.516   1.828   4.054  0.1364 -0.1370 -0.5355
 5531TIP3    H138008   6.447   1.892   4.071  0.7736  1.6889 -4.0130
 5531TIP3    H238009   6.596   1.869   4.086  0.5370  0.8887 -2.7118
 5532TIP3   OH238010   4.806   3.945  17.105 -0.1899  0.3780 -0.0336
 5532TIP3    H138011   4.759   4.019  17.144  0.8726  0.3375  1.4170
 5532TIP3    H238012   4.886   3.984  17.070  0.4726 -0.0822  0.9185
 5533TIP3   OH238013   1.365   2.959   5.425  0.1174  0.0876  0.2948
 5533TIP3    H138014   1.412   2.876   5.426  0.2203  0.1540  1.4521
 5533TIP3    H238015   1.387   3.001   5.507  0.7375  1.6596 -0.6377
 5534TIP3   OH238016   5.833   6.220  15.537  0.3534  0.1120 -0.2483
 5534TIP3    H138017   5.862   6.170  15.461  1.3977 -1.6355  1.1919
 5534TIP3    H238018   5.752   6.177  15.564  1.2612 -0.8983  1.0083
 5535TIP3   OH238019   2.388   5.106  15.980  0.4313 -0.0841  0.0155
 5535TIP3    H138020   2.471   5.151  15.995  0.9880 -1.4500  1.2691
 5535TIP3    H238021   2.355   5.087  16.067 -0.8168 -0.2645 -0.4774
 5536TIP3   OH238022   6.306   2.839   2.885  0.1368 -0.5357 -0.6658
 5536TIP3    H138023   6.328   2.923   2.844  0.0204 -0.4636 -0.5831
 5536TIP3    H238024   6.343   2.844   2.973 -1.4769  0.2028  0.0205
 5537TIP3   OH238025   0.185   0.837   0.769  0.0887 -0.1211 -0.2407
 5537TIP3    H138026   0.126   0.892   0.718 -0.0892 -1.1670 -1.2016
 5537TIP3    H238027   0.183   0.874   0.857 -0.8268  0.7657 -0.6207
 5538TIP3   OH238028   0.347   0.564   1.601  0.8583  0.1184 -0.3343
 5538TIP3    H138029   0.303   0.646   1.577  0.3223 -0.2570 -0.6750
 5538TIP3    H238030   0.279   0.497   1.591  0.7666 -0.1511  1.7203
 5539TIP3   OH238031   0.581   0.469  14.185 -0.4174 -0.8098 -0.1479
 5539TIP3    H138032   0.512   0.530  14.161 -1.3711 -0.7489  2.4337
 5539TIP3    H238033   0.662   0.513  14.158 -1.0436  1.7637  1.7665
 5540TIP3   OH238034   5.041   2.246   0.461  0.4165  0.6566  0.1153
 5540TIP3    H138035   5.074   2.160   0.433  0.7574  0.9090 -0.2721
 5540TIP3    H238036   5.120   2.299   0.475  0.2333  0.6965  1.0569
 5541TIP3   OH238037   2.245   0.033   6.337  0.2107  0.4926  0.0785
 5541TIP3    H138038   2.155   0.045   6.308  0.0153 -1.1751 -0.1498
 5541TIP3    H238039   2.258  -0.062   6.334  1.4454  0.5594  1.6910
 5542TIP3   OH238040   4.316   4.469  15.994  0.0725 -0.3581 -0.3144
 5542TIP3    H138041   4.279   4.388  15.960 -0.6862  0.5724 -1.7972
 5542TIP3    H238042   4.407   4.447  16.014 -0.3636 -1.8052  0.2194
 5543TIP3   OH238043   2.359   2.651  15.029  0.1501 -0.4301 -0.2058
 5543TIP3    H138044   2.425   2.698  14.978  0.2035 -0.0689  0.1893
 5543TIP3    H238045   2.303   2.610  14.963  0.9791 -1.0427 -0.5381
 5544TIP3   OH238046   3.051   3.194  13.732 -0.4277 -0.0944  0.3446
 5544TIP3    H138047   3.036   3.113  13.683 -0.6952 -0.9559  1.7844
 5544TIP3    H238048   2.967   3.240  13.729 -0.0840  0.4922 -1.0599
 5545TIP3   OH238049   6.585   3.850   2.402 -0.0383  0.1218 -0.1381
 5545TIP3    H138050   6.605   3.764   2.364  1.8098  0.1884  0.5445
 5545TIP3    H238051   6.667   3.899   2.393 -0.4789  1.1613  1.1624
 5546TIP3   OH238052   4.502   2.409   6.191  0.0863  0.7299  0.3731
 5546TIP3    H138053   4.441   2.456   6.134  1.0357  0.1223 -1.2261
 5546TIP3    H238054   4.490   2.317   6.168  3.2412  0.7036 -1.8739
 5547TIP3   OH238055   2.306   2.375  11.667  0.1269 -0.1226 -0.1755
 5547TIP3    H138056   2.242   2.351  11.734 -1.3999 -0.6226 -1.7523
 5547TIP3    H238057   2.290   2.468  11.650 -1.0139 -0.5222 -1.3968
 5548TIP3   OH238058   1.199   5.202   5.667 -0.5544 -0.1026 -0.3446
 5548TIP3    H138059   1.117   5.215   5.620 -1.2109 -3.0222 -0.1464
 5548TIP3    H238060   1.232   5.117   5.638  0.4476 -0.7515  2.3199
 5549TIP3   OH238061   0.046   0.902  12.644 -0.2592 -0.5479  0.2134
 5549TIP3    H138062   0.090   0.923  12.726 -1.2867  0.2180  0.5878
 5549TIP3    H238063   0.072   0.972  12.584 -2.2422  0.8819  0.9292
 5550TIP3   OH238064   0.903   5.969  12.244 -0.2898 -0.2530 -0.3415
 5550TIP3    H138065   0.930   5.877  12.241 -2.2689 -0.8424 -1.1067
 5550TIP3    H238066   0.840   5.974  12.316  0.9729  0.8870  0.7526
 5551TIP3   OH238067   5.986   3.394  16.783  0.0881 -0.2408 -0.0277
 5551TIP3    H138068   6.000   3.301  16.770 -0.3278 -0.3746  0.4535
 5551TIP3    H238069   5.997   3.433  16.696 -1.0125 -0.9019 -0.4757
 5552TIP3   OH238070   2.653   2.616   4.931  0.7988  0.0516  0.0010
 5552TIP3    H138071   2.581   2.555   4.922  0.6052  0.2121  0.4328
 5552TIP3    H238072   2.720   2.568   4.981  0.5435  0.2719  0.5657
 5553TIP3   OH238073   1.180   2.579  12.323 -0.1157  0.8810  0.4854
 5553TIP3    H138074   1.178   2.569  12.228  3.8579  2.9915 -0.0179
 5553TIP3    H238075   1.173   2.489  12.357  0.6507 -0.1391 -1.8878
 5554TIP3   OH238076   1.778   3.693  14.982  0.2329 -0.2875 -0.2057
 5554TIP3    H138077   1.813   3.703  15.070  1.5975  0.5626 -0.8200
 5554TIP3    H238078   1.729   3.610  14.986 -1.0613  0.4988  1.7364
 5555TIP3   OH238079   3.841   4.329  11.539 -0.4392 -0.5506 -0.0659
 5555TIP3    H138080   3.903   4.300  11.472 -0.5973 -1.2309  0.0679
 5555TIP3    H238081   3.882   4.303  11.621 -0.7423 -0.7086  0.0383
 5556TIP3   OH238082   5.139   5.303  14.216  0.0188  0.3656  0.1181
 5556TIP3    H138083   5.205   5.243  14.250 -1.3338 -1.2587  0.0034
 5556TIP3    H238084   5.130   5.280  14.123 -0.3930  0.8491  0.0323
 5557TIP3   OH238085   1.720   6.624   4.657 -0.0011  0.5218 -0.4695
 5557TIP3    H138086   1.698   6.531   4.669 -0.3387  0.3006 -2.4865
 5557TIP3    H238087   1.806   6.633   4.699 -0.8430 -0.1724  1.5886
 5558TIP3   OH238088   0.751   3.804   2.503 -0.1110  0.2353  0.3982
 5558TIP3    H138089   0.671   3.793   2.452  1.1656 -1.5458 -1.3670
 5558TIP3    H238090   0.819   3.823   2.438  1.3806 -1.0121  1.5095
 5559TIP3   OH238091   1.419   3.715  16.238 -0.3719 -0.2283  0.1452
 5559TIP3    H138092   1.398   3.651  16.306  1.5765 -0.8796  0.1779
 5559TIP3    H238093   1.510   3.738  16.253 -1.2852  3.6538  1.0074
 5560TIP3   OH238094   6.012   4.871  14.765  0.3259 -0.4378 -0.2605
 5560TIP3    H138095   5.961   4.909  14.836 -1.7136 -0.7834 -1.4836
 5560TIP3    H238096   6.068   4.942  14.735  0.6487 -0.0643  1.1415
 5561TIP3   OH238097   0.491   6.383   5.452  0.0467  0.6112 -0.4989
 5561TIP3    H138098   0.471   6.290   5.442 -0.2187  0.6469 -0.3246
 5561TIP3    H238099   0.406   6.427   5.446  0.0730  0.7724  0.1705
 5562TIP3   OH238100   1.162   1.592   3.646  0.0577 -0.7551 -0.5880
 5562TIP3    H138101   1.233   1.579   3.583  0.1414 -1.2933 -0.3918
 5562TIP3    H238102   1.108   1.661   3.608  2.0068  1.4749  0.3779
 5563TIP3   OH238103   0.164   3.049  15.130  0.1094 -0.0512 -0.0595
 5563TIP3    H138104   0.242   3.018  15.085 -0.8684 -1.8135 -0.6260
 5563TIP3    H238105   0.107   2.973  15.136 -1.8583  1.3191 -0.2567
 5564TIP3   OH238106   4.956   6.257   3.802  0.0499  0.2313 -0.3952
 5564TIP3    H138107   4.895   6.329   3.820 -0.3981 -0.4351  0.8625
 5564TIP3    H238108   4.904   6.195   3.751  0.0659  0.2358 -0.4171
 5565TIP3   OH238109   4.293   1.691  13.827  0.4206  0.0796  0.0891
 5565TIP3    H138110   4.359   1.733  13.772  0.8838 -0.9270 -0.1563
 5565TIP3    H238111   4.344   1.640  13.890 -0.1230 -0.4375  0.1144
 5566TIP3   OH238112   0.580   5.034   4.788 -0.5317 -0.0939  0.0845
 5566TIP3    H138113   0.622   5.027   4.874 -1.1901 -2.4722  0.2750
 5566TIP3    H238114   0.650   5.016   4.726 -0.4602 -0.2232  0.2019
 5567TIP3   OH238115   5.822   4.392   2.136  0.0067 -0.1236  0.0793
 5567TIP3    H138116   5.813   4.364   2.045 -3.0521 -1.4747  0.6582
 5567TIP3    H238117   5.771   4.473   2.141 -0.9773 -0.7492  0.7789
 5568TIP3   OH238118   4.045   1.934  12.401 -0.2746 -0.7228 -0.0066
 5568TIP3    H138119   4.049   2.021  12.361  0.8932  0.0242  1.6290
 5568TIP3    H238120   4.075   1.875  12.332 -0.3849  0.2397 -0.9164
 5569TIP3   OH238121   3.272   4.098  15.003 -0.7336 -0.2603  0.0983
 5569TIP3    H138122   3.281   4.005  14.984 -2.2951 -0.2901 -0.6501
 5569TIP3    H238123   3.362   4.130  15.009 -0.1731 -1.5518 -0.9488
 5570TIP3   OH238124   2.855   0.359   1.620 -0.1640  0.9180  0.8560
 5570TIP3    H138125   2.840   0.311   1.701  1.0210 -0.5041  0.2842
 5570TIP3    H238126   2.825   0.299   1.551  0.0594  1.5674  0.1863
 5571TIP3   OH238127   4.904   2.351  15.691 -0.0087  0.2869  0.1341
 5571TIP3    H138128   4.867   2.311  15.769  3.8649 -0.6107  1.7785
 5571TIP3    H238129   4.906   2.281  15.626 -2.3466  0.7657 -0.5301
 5572TIP3   OH238130   5.274   6.192   1.102  0.5476  0.5167 -0.1602
 5572TIP3    H138131   5.263   6.101   1.131  1.1277  0.4164 -0.2426
 5572TIP3    H238132   5.282   6.186   1.007  2.3847  0.4463 -0.0494
 5573TIP3   OH238133   3.158   1.577   4.036  0.6024 -0.0895 -0.0612
 5573TIP3    H138134   3.064   1.588   4.020  0.5281  1.5234  1.3088
 5573TIP3    H238135   3.186   1.516   3.967 -1.3115 -0.1270 -0.8811
 5574TIP3   OH238136   2.867   6.759  14.202  0.2498  0.0966 -0.4776
 5574TIP3    H138137   2.852   6.785  14.112 -1.4186 -1.3932 -0.6991
 5574TIP3    H238138   2.849   6.837  14.254 -1.5241  0.2642 -1.2808
 5575TIP3   OH238139   0.037   1.375   3.790 -0.2512 -0.4274  0.3021
 5575TIP3    H138140   0.066   1.393   3.700 -0.3744  1.6641  0.6391
 5575TIP3    H238141  -0.049   1.334   3.779  0.8923 -2.8182 -0.5699
 5576TIP3   OH238142   6.746   5.809   2.571  0.0237  0.7461 -0.0480
 5576TIP3    H138143   6.705   5.811   2.485  2.7123  0.4372 -1.4457
 5576TIP3    H238144   6.714   5.728   2.611 -1.4939  1.0402 -0.6023
 5577TIP3   OH238145   1.687   6.494  12.744 -0.0469  0.3406  0.0229
 5577TIP3    H138146   1.719   6.578  12.711  0.5976  1.2079  2.5757
 5577TIP3    H238147   1.709   6.496  12.837 -0.8818 -2.2849  0.3457
 5578TIP3   OH238148   6.664   3.890   4.680 -0.4436 -0.0426 -0.1211
 5578TIP3    H138149   6.694   3.801   4.664  0.6604  0.2482  0.2960
 5578TIP3    H238150   6.578   3.879   4.721 -0.5167 -0.8979 -0.4843
 5579TIP3   OH238151   3.931   2.844   4.684 -0.4007  0.1790 -0.6272
 5579TIP3    H138152   3.852   2.810   4.727 -0.6223  1.1607 -0.2120
 5579TIP3    H238153   3.952   2.780   4.617 -0.6554 -0.8812  0.2769
 5580TIP3   OH238154   6.644   5.858   6.305 -0.1338 -0.1132  0.2452
 5580TIP3    H138155   6.705   5.873   6.377 -0.6495 -3.7598  1.6527
 5580TIP3    H238156   6.680   5.781   6.259 -2.3943 -0.8931 -0.3293
 5581TIP3   OH238157   1.961   4.734   1.824  0.1736  0.2380 -0.7194
 5581TIP3    H138158   2.035   4.794   1.829  0.1521  0.2211 -0.0122
 5581TIP3    H238159   1.970   4.691   1.739  0.4045  0.9594 -1.0645
 5582TIP3   OH238160   0.704   1.100  12.399 -0.1453 -0.0729  0.1142
 5582TIP3    H138161   0.642   1.035  12.366 -1.1812  0.7218  0.4460
 5582TIP3    H238162   0.744   1.136  12.320 -1.5147  0.7508 -0.2441
 5583TIP3   OH238163   3.480   3.317   5.610  0.5754 -0.2839 -0.0282
 5583TIP3    H138164   3.398   3.319   5.659  0.2661 -0.3459 -0.5336
 5583TIP3    H238165   3.548   3.321   5.677  0.1669 -0.8700  0.4363
 5584TIP3   OH238166   0.641   2.509   4.426  0.1138  0.1682 -0.3428
 5584TIP3    H138167   0.628   2.548   4.513  1.0682  1.4964 -0.7551
 5584TIP3    H238168   0.553   2.489   4.395 -0.2924  0.4746  0.5775
 5585TIP3   OH238169   0.437   6.330   0.164  0.1858  0.1590  0.0389
 5585TIP3    H138170   0.342   6.342   0.166  0.3773  2.3117 -0.7605
 5585TIP3    H238171   0.468   6.396   0.102  2.2298 -0.3962  0.3959
 5586TIP3   OH238172   5.832   1.292   1.327 -1.1751 -0.2220  0.4554
 5586TIP3    H138173   5.877   1.221   1.372 -0.4422  1.2985  2.2665
 5586TIP3    H238174   5.819   1.359   1.394  1.2436  2.8010 -1.7827
 5587TIP3   OH238175   3.161   6.780  12.257 -0.0370  0.3759  0.2026
 5587TIP3    H138176   3.109   6.780  12.337 -0.4099 -0.0878 -0.0336
 5587TIP3    H238177   3.182   6.688  12.241  0.0760  0.4665 -0.2060
 5588TIP3   OH238178   1.703   2.653   4.352  0.4667 -0.4514 -0.0823
 5588TIP3    H138179   1.689   2.565   4.319 -0.1191 -0.7339  0.8764
 5588TIP3    H238180   1.615   2.685   4.375  0.8040 -0.1704  0.9110
 5589TIP3   OH238181   4.559   5.108  15.547 -0.4519  0.2788 -0.3505
 5589TIP3    H138182   4.485   5.141  15.495  0.0281  0.1707 -1.1160
 5589TIP3    H238183   4.637   5.137  15.499  0.1059  2.4595  1.6513
 5590TIP3   OH238184   5.325   2.261  16.237  0.1168 -0.2495  0.6714
 5590TIP3    H138185   5.329   2.352  16.265  0.7229 -0.1465  0.2748
 5590TIP3    H238186   5.363   2.212  16.309 -1.4371 -0.3479  1.4756
 5591TIP3   OH238187   0.698   3.940   0.003 -1.1855  0.1293  0.1919
 5591TIP3    H138188   0.605   3.963   0.002 -1.1259  0.5678 -2.6210
 5591TIP3    H238189   0.742   4.016  -0.032 -0.0190 -0.9244 -0.6990
 5592TIP3   OH238190   0.721   0.273  14.583  0.0318  0.1398 -0.9292
 5592TIP3    H138191   0.756   0.262  14.672 -0.8827 -1.7397 -0.7512
 5592TIP3    H238192   0.784   0.331  14.540  1.6660 -0.6174  0.3111
 5593TIP3   OH238193   6.034   1.486  12.928  0.0485  0.1736  0.4386
 5593TIP3    H138194   5.976   1.559  12.945 -0.8054 -0.2823 -0.4085
 5593TIP3    H238195   6.109   1.500  12.987 -0.7573  0.9368  1.3052
 5594TIP3   OH238196   2.452   6.452   5.242 -0.7363  0.2840 -0.5333
 5594TIP3    H138197   2.484   6.439   5.331  0.2603  0.0089 -0.9271
 5594TIP3    H238198   2.359   6.475   5.254 -0.4960  0.7426  0.5928
 5595TIP3   OH238199   3.555   0.766   2.771 -0.0186  0.7320 -0.7329
 5595TIP3    H138200   3.524   0.786   2.859  1.8618  3.1272 -0.5223
 5595TIP3    H238201   3.614   0.691   2.784 -1.3989 -0.3407 -0.3526
 5596TIP3   OH238202   0.771   3.665  13.272 -0.2771 -0.0424  0.7560
 5596TIP3    H138203   0.866   3.654  13.280 -0.2113  0.4528  0.6862
 5596TIP3    H238204   0.759   3.717  13.193 -0.8245 -3.3738 -1.5511
 5597TIP3   OH238205   3.531   4.355   2.870 -0.1987  0.1532 -0.0347
 5597TIP3    H138206   3.620   4.328   2.891  0.3178  1.3376 -0.6672
 5597TIP3    H238207   3.507   4.302   2.794  0.5065  0.8672 -0.7604
 5598TIP3   OH238208   1.360   4.037   1.507  0.3088 -0.3542 -0.3550
 5598TIP3    H138209   1.307   3.990   1.571 -1.3884  1.3134 -0.4276
 5598TIP3    H238210   1.324   4.011   1.423 -2.2618  2.6070 -0.3546
 5599TIP3   OH238211   1.551   6.323   5.888 -0.2864 -0.0313  0.8648
 5599TIP3    H138212   1.602   6.256   5.933 -0.7251 -0.4139  0.8048
 5599TIP3    H238213   1.523   6.383   5.957  0.6217  0.4342  0.8327
 5600TIP3   OH238214   1.614   5.815   4.452 -0.0949  0.3015  0.2296
 5600TIP3    H138215   1.519   5.826   4.459 -0.2708 -0.5795 -0.4746
 5600TIP3    H238216   1.637   5.852   4.367  0.4281  1.7954  0.9965
 5601TIP3   OH238217   1.498   2.272  13.814 -0.1006 -0.5383  0.1852
 5601TIP3    H138218   1.421   2.215  13.814 -1.3116  1.0579  0.0612
 5601TIP3    H238219   1.527   2.273  13.906  0.0593 -1.4859  0.1569
 5602TIP3   OH238220   3.414   2.039  13.276 -0.0198  0.4789 -0.1913
 5602TIP3    H138221   3.366   2.027  13.194 -0.4094 -0.5635  0.1645
 5602TIP3    H238222   3.503   2.060  13.249 -0.7735  3.1917 -0.8730
 5603TIP3   OH238223   5.002   4.526   4.517  0.1156 -0.5978 -0.1208
 5603TIP3    H138224   4.970   4.571   4.439  1.8426 -0.1709 -0.6402
 5603TIP3    H238225   5.085   4.486   4.489  0.6072 -0.7116  1.3997
 5604TIP3   OH238226   2.988   3.526  13.967  0.5105 -0.2640 -0.1931
 5604TIP3    H138227   2.924   3.586  14.004 -1.2286 -1.8336 -0.4782
 5604TIP3    H238228   2.938   3.473  13.905  1.8920 -2.1695  0.2218
 5605TIP3   OH238229   0.507   1.841  12.066 -0.0882 -0.2937 -0.6456
 5605TIP3    H138230   0.492   1.926  12.026  2.1997 -0.8607 -2.9547
 5605TIP3    H238231   0.423   1.795  12.060 -1.1145  1.4235 -0.1333
 5606TIP3   OH238232   4.962   2.729  11.925  0.4887 -0.3544 -0.1785
 5606TIP3    H138233   4.956   2.675  11.847  2.3393 -0.7115 -0.1316
 5606TIP3    H238234   4.923   2.813  11.900 -0.3325 -0.9580 -0.9745
 5607TIP3   OH238235   1.516   3.007  11.931 -0.3649  0.4676 -0.1362
 5607TIP3    H138236   1.441   2.951  11.951 -1.1132  1.5408  0.1960
 5607TIP3    H238237   1.500   3.038  11.842 -1.5122  2.4266  0.6790
 5608TIP3   OH238238   3.402   2.777   2.802  0.2251 -0.3568  0.5767
 5608TIP3    H138239   3.453   2.721   2.861  1.1293 -0.6257 -0.4316
 5608TIP3    H238240   3.312   2.768   2.833  0.1207 -3.3901 -0.2737
 5609TIP3   OH238241   1.410   0.464  11.654  0.2214 -0.0856  0.3586
 5609TIP3    H138242   1.474   0.398  11.628  0.7727  0.2134  0.9376
 5609TIP3    H238243   1.328   0.436  11.612 -0.2284 -2.6018  2.6390
 5610TIP3   OH238244   3.178   5.400   2.794 -0.1754 -0.2981  0.1440
 5610TIP3    H138245   3.250   5.461   2.784 -0.7690  0.6407  1.4029
 5610TIP3    H238246   3.163   5.395   2.888 -1.6603 -0.5674 -0.0813
 5611TIP3   OH238247   1.394   0.138  13.318 -0.3319 -0.1382 -0.1231
 5611TIP3    H138248   1.298   0.135  13.309 -0.1777 -0.5723 -2.0329
 5611TIP3    H238249   1.415   0.063  13.373 -1.1444  0.4466  1.0209
 5612TIP3   OH238250   6.263   0.269   5.696  0.4454  0.5200 -0.3055
 5612TIP3    H138251   6.256   0.189   5.749 -0.1190 -0.0670 -1.2487
 5612TIP3    H238252   6.176   0.308   5.700  0.1368 -0.0079 -1.5313
 5613TIP3   OH238253   0.956   6.210  13.813  0.4178  0.1547 -0.1635
 5613TIP3    H138254   0.904   6.268  13.757 -1.4471  0.0847  1.3792
 5613TIP3    H238255   1.002   6.152  13.752 -1.4832  0.1119 -1.6633
 5614TIP3   OH238256   0.533   6.015  12.853  0.0348  0.5976 -0.3608
 5614TIP3    H138257   0.457   6.029  12.796 -0.8535 -1.3358  0.2486
 5614TIP3    H238258   0.565   5.928  12.829 -0.5894 -0.4428  2.2522
 5615TIP3   OH238259   6.017   4.814  16.993  0.5326 -0.5391  0.0493
 5615TIP3    H138260   5.974   4.838  17.075  2.2325 -0.0326  0.8417
 5615TIP3    H238261   6.029   4.897  16.948 -0.7364 -0.8561 -0.9334
 5616TIP3   OH238262   1.116   2.461   4.256  0.2660 -0.0009  0.2684
 5616TIP3    H138263   1.040   2.434   4.307 -0.4943 -0.9883 -1.3073
 5616TIP3    H238264   1.099   2.552   4.233 -0.3233 -0.1435  0.1324
 5617TIP3   OH238265   2.014   3.985   1.022 -0.3684  0.4543  0.4382
 5617TIP3    H138266   2.007   4.052   0.954  1.1772 -0.1838 -0.4233
 5617TIP3    H238267   2.069   4.024   1.089 -0.0321  0.3011  0.2552
 5618TIP3   OH238268   1.131   4.103   4.414 -0.0267 -0.1931  0.3350
 5618TIP3    H138269   1.089   4.171   4.466 -1.6115 -0.3992 -0.5969
 5618TIP3    H238270   1.150   4.033   4.476  0.1870  0.4440  1.0118
 5619TIP3   OH238271   0.704   3.128   2.590 -0.5992  0.5503  0.2127
 5619TIP3    H138272   0.699   3.034   2.572 -1.5830  0.2884  1.6819
 5619TIP3    H238273   0.616   3.152   2.618  0.1087  1.4667  1.7982
 5620TIP3   OH238274   0.759   4.858  16.487  0.4103  0.1457 -0.1647
 5620TIP3    H138275   0.793   4.901  16.409 -1.7333 -0.7524 -1.7026
 5620TIP3    H238276   0.755   4.765  16.463  0.2041 -0.2274  1.2208
 5621TIP3   OH238277   2.234   1.083  13.947 -0.0906  0.2930  0.2633
 5621TIP3    H138278   2.220   1.055  13.856 -0.7713 -2.4455  1.1189
 5621TIP3    H238279   2.247   1.002  13.995  0.6377  1.6966  2.6007
 5622TIP3   OH238280   6.122   6.724   5.620  0.6703 -0.0135 -0.2737
 5622TIP3    H138281   6.139   6.770   5.702  1.3118 -0.5155 -0.1229
 5622TIP3    H238282   6.202   6.675   5.602 -0.1469 -1.4312 -0.1919
 5623TIP3   OH238283   6.047   3.172  17.243 -0.2914  0.4886 -0.5633
 5623TIP3    H138284   6.114   3.199  17.306 -1.0596  0.4541  0.2913
 5623TIP3    H238285   6.010   3.254  17.210 -0.0471  0.5025 -0.8127
 5624TIP3   OH238286   2.440   0.190  14.017  0.0691 -0.0101  0.1350
 5624TIP3    H138287   2.369   0.247  14.046 -1.2644 -1.4459 -0.1342
 5624TIP3    H238288   2.424   0.177  13.923  1.1307  0.2309 -0.0942
 5625TIP3   OH238289   2.193   2.561   3.218  0.4225  0.3407 -0.3019
 5625TIP3    H138290   2.231   2.481   3.254 -0.5726  0.1098  0.2866
 5625TIP3    H238291   2.101   2.539   3.204  0.0615  1.4754  0.1640
 5626TIP3   OH238292   5.917   6.641  12.694 -0.0704  0.2835 -0.2602
 5626TIP3    H138293   5.863   6.715  12.667  1.2369  0.7264 -1.8380
 5626TIP3    H238294   6.007   6.670  12.677  0.5044 -1.4414 -0.3220
 5627TIP3   OH238295   4.208   3.164  15.454 -0.3696  0.5829 -0.3078
 5627TIP3    H138296   4.158   3.099  15.503  0.5943 -0.0162 -0.0821
 5627TIP3    H238297   4.199   3.137  15.362  0.7658 -0.4438 -0.1488
 5628TIP3   OH238298   2.363   0.366   4.360 -0.2597  0.0726 -0.5603
 5628TIP3    H138299   2.275   0.354   4.326 -0.1940 -2.1622 -0.0829
 5628TIP3    H238300   2.356   0.439   4.422 -1.9600 -0.6237  0.1092
 5629TIP3   OH238301   5.124   1.623   4.720 -0.3835 -0.6433  0.5445
 5629TIP3    H138302   5.165   1.574   4.648 -0.3882 -1.4109  1.0540
 5629TIP3    H238303   5.170   1.593   4.799  2.0515  2.6507  0.6289
 5630TIP3   OH238304   1.968   6.566  10.741  0.3143  0.4126  0.5449
 5630TIP3    H138305   1.932   6.603  10.661 -0.6654  0.8298  1.1561
 5630TIP3    H238306   1.947   6.630  10.809  1.3742  0.1969  1.0960
 5631TIP3   OH238307   3.337   3.223   3.589 -0.3906  0.0009  0.0864
 5631TIP3    H138308   3.400   3.165   3.631  0.9150  1.3448  0.0485
 5631TIP3    H238309   3.380   3.252   3.509 -1.5115  0.1054 -0.5047
 5632TIP3   OH238310   5.042   5.207  13.058 -0.3189  0.4733 -0.2702
 5632TIP3    H138311   5.105   5.136  13.050 -2.5666 -1.7812  0.4165
 5632TIP3    H238312   4.971   5.183  12.998 -2.3529  0.6466  1.8953
 5633TIP3   OH238313   4.747   3.076  14.256  0.4385 -0.1887 -0.3458
 5633TIP3    H138314   4.703   3.159  14.234  1.0742  0.5824  1.1585
 5633TIP3    H238315   4.711   3.053  14.342  0.1228 -1.6110 -0.8304
 5634TIP3   OH238316   6.319   0.777   2.604  0.2891  0.8501  0.0412
 5634TIP3    H138317   6.337   0.866   2.633  2.4014  0.7605 -0.7867
 5634TIP3    H238318   6.406   0.739   2.587 -0.5625 -1.2378 -0.0039
 5635TIP3   OH238319   1.511   1.952   5.455 -0.5662  0.1770 -0.2851
 5635TIP3    H138320   1.567   1.932   5.530 -1.9057 -3.0762  0.0243
 5635TIP3    H238321   1.522   1.877   5.396  0.6061  2.7089 -3.5798
 5636TIP3   OH238322   3.844   0.716  15.323 -0.0333  0.3739  0.1108
 5636TIP3    H138323   3.837   0.655  15.396  1.1556 -0.1765 -0.2023
 5636TIP3    H238324   3.754   0.734  15.297 -0.4163 -0.9305  0.4779
 5637TIP3   OH238325   3.664   0.735   6.749  0.0447  0.2335 -0.0855
 5637TIP3    H138326   3.606   0.775   6.684 -0.9630  0.6236  1.0243
 5637TIP3    H238327   3.607   0.679   6.801  0.8216  0.0079  0.5413
 5638TIP3   OH238328   4.895   2.361  16.411 -0.4318 -0.5284 -0.6326
 5638TIP3    H138329   4.848   2.331  16.334  0.5427 -0.5570 -1.2382
 5638TIP3    H238330   4.863   2.450  16.427 -1.7810 -1.0801 -0.1047
 5639TIP3   OH238331   6.633   5.309  16.088  0.2734 -0.1011 -0.0618
 5639TIP3    H138332   6.642   5.256  16.167 -0.9778  0.8968  0.8069
 5639TIP3    H238333   6.543   5.294  16.059  0.4142  0.3000 -0.7293
 5640TIP3   OH238334   2.985   3.982  17.128  0.4334 -0.1483 -0.1388
 5640TIP3    H138335   2.977   4.054  17.191  0.3947 -0.7617  0.5688
 5640TIP3    H238336   2.933   4.010  17.053  2.0739  1.4727 -0.7388
 5641TIP3   OH238337   6.638   2.086  11.239 -0.0691  0.7900 -0.2415
 5641TIP3    H138338   6.698   2.154  11.271  0.3228  0.9205 -1.1938
 5641TIP3    H238339   6.551   2.125  11.247 -0.1363  0.2719  1.9586
 5642TIP3   OH238340   0.676   2.236   2.984 -0.6139 -0.2544 -0.2593
 5642TIP3    H138341   0.766   2.263   2.967 -0.7349 -0.3994 -1.1345
 5642TIP3    H238342   0.685   2.160   3.042 -0.1513 -0.5722 -0.7350
 5643TIP3   OH238343   2.586   6.523   6.727  0.2274  0.2344 -0.0827
 5643TIP3    H138344   2.526   6.541   6.799  0.0014  1.6452 -0.5894
 5643TIP3    H238345   2.530   6.490   6.657  0.5746 -2.1563  0.6681
 5644TIP3   OH238346   5.695   3.631  11.125 -0.2682 -0.1668 -0.0794
 5644TIP3    H138347   5.728   3.555  11.173 -1.9137 -1.4498 -0.8595
 5644TIP3    H238348   5.659   3.595  11.044 -0.1802  1.5844 -0.9518
 5645TIP3   OH238349   6.305   6.213   5.113  0.0707  0.4339 -0.1863
 5645TIP3    H138350   6.370   6.204   5.183 -0.5405 -0.1090  0.3313
 5645TIP3    H238351   6.245   6.280   5.144 -1.0566 -0.8520  0.5254
 5646TIP3   OH238352   2.202   2.252   0.194  0.0235  0.5951 -0.2411
 5646TIP3    H138353   2.296   2.241   0.176 -0.3729 -2.2337 -0.9689
 5646TIP3    H238354   2.166   2.284   0.111  0.2809  1.5446 -0.0044
 5647TIP3   OH238355   0.207   0.938   6.066  0.0685  0.5169  0.3015
 5647TIP3    H138356   0.194   0.844   6.080 -0.4239  0.7535  1.6306
 5647TIP3    H238357   0.297   0.945   6.034 -0.1728 -0.4702 -0.6551
 5648TIP3   OH238358   2.768   5.600   3.108  0.5347 -0.3960 -0.1602
 5648TIP3    H138359   2.772   5.504   3.113 -1.8947 -0.6645 -1.4708
 5648TIP3    H238360   2.792   5.620   3.018  0.5848  0.1875 -0.0182
 5649TIP3   OH238361   2.277   5.275  12.328 -0.7703  0.6427 -0.5731
 5649TIP3    H138362   2.304   5.366  12.317  1.3859  0.1267  0.0244
 5649TIP3    H238363   2.319   5.247  12.410 -2.7957 -0.4189  0.1910
 5650TIP3   OH238364   4.586   1.848  13.096  0.0125 -0.5357  0.1367
 5650TIP3    H138365   4.607   1.800  13.016  2.8834  2.1313 -0.8997
 5650TIP3    H238366   4.648   1.813  13.161  0.2320 -0.1416  0.1412
 5651TIP3   OH238367   6.528   0.777  11.144 -0.2781  0.1509  0.3697
 5651TIP3    H138368   6.464   0.719  11.186 -0.8649 -0.4053 -1.2061
 5651TIP3    H238369   6.490   0.796  11.058  0.5767  1.7564  0.3151
 5652TIP3   OH238370   2.345   1.801  14.117 -0.1102  0.7524 -0.3913
 5652TIP3    H138371   2.419   1.794  14.178 -0.8225 -0.6234  0.3541
 5652TIP3    H238372   2.281   1.855  14.163 -1.0702 -1.1201  0.5813
 5653TIP3   OH238373   2.794   0.250   3.255 -0.7071  0.3816  0.1584
 5653TIP3    H138374   2.843   0.192   3.313 -1.6468 -0.4577  0.1377
 5653TIP3    H238375   2.810   0.215   3.167 -0.6049  0.6676  0.0617
 5654TIP3   OH238376   1.173   1.832   3.169 -0.3466 -0.6165 -0.1048
 5654TIP3    H138377   1.132   1.849   3.084  1.1076 -0.1948 -0.7510
 5654TIP3    H238378   1.178   1.737   3.175 -0.7287 -0.6527 -0.3428
 5655TIP3   OH238379   3.562   4.214   3.459  0.2177  0.4120  0.1005
 5655TIP3    H138380   3.616   4.158   3.515  1.6417 -2.2928 -3.5687
 5655TIP3    H238381   3.477   4.217   3.503  0.5876 -3.3310  1.4318
 5656TIP3   OH238382   3.377   0.929  11.109 -0.0771  0.4990  0.9899
 5656TIP3    H138383   3.461   0.948  11.068  0.2037 -1.6160  0.4663
 5656TIP3    H238384   3.319   0.999  11.078  1.3015  1.5861  0.7961
 5657TIP3   OH238385   6.139   4.138   0.308  0.0405  0.2369  0.4753
 5657TIP3    H138386   6.069   4.154   0.371 -1.9754  0.1520 -1.5937
 5657TIP3    H238387   6.106   4.175   0.226  1.4975 -1.7338 -1.0979
 5658TIP3   OH238388   3.293   1.618  16.836 -0.1678  0.5565 -0.2500
 5658TIP3    H138389   3.363   1.565  16.874 -0.4405  1.1356  1.1222
 5658TIP3    H238390   3.234   1.555  16.794 -0.0418 -0.1493  0.6139
 5659TIP3   OH238391   5.044   5.940   5.274 -0.0344 -0.9570 -0.9461
 5659TIP3    H138392   5.018   6.032   5.281  0.6664 -0.6875 -1.6653
 5659TIP3    H238393   5.086   5.934   5.188 -2.3595 -2.5289 -2.0590
 5660TIP3   OH238394   3.682   6.153  13.660 -0.3178 -0.1441 -0.4262
 5660TIP3    H138395   3.639   6.211  13.597 -1.9798  0.6856  1.3908
 5660TIP3    H238396   3.774   6.151  13.631 -0.8467  0.8343 -2.3730
 5661TIP3   OH238397   5.045   2.650  12.239 -0.5029  0.4060  0.3261
 5661TIP3    H138398   5.100   2.572  12.236  0.3321  0.9790  0.2550
 5661TIP3    H238399   5.039   2.678  12.147 -0.8500  0.3943  0.3441
 5662TIP3   OH238400   4.753   3.198   4.655 -0.3218 -0.1192 -0.1168
 5662TIP3    H138401   4.770   3.117   4.702  0.0862  0.5466  0.9093
 5662TIP3    H238402   4.682   3.240   4.704  0.7025  0.9996  0.4402
 5663TIP3   OH238403   3.119   3.066  13.135 -0.0270  0.3124 -0.4957
 5663TIP3    H138404   3.059   2.994  13.116 -0.5698 -0.6114  3.7120
 5663TIP3    H238405   3.066   3.130  13.183  1.4938  1.3523 -0.1074
 5664TIP3   OH238406   3.785   1.661   5.530  0.0808 -0.6408 -0.0515
 5664TIP3    H138407   3.837   1.622   5.460  0.0216 -1.2489  0.2327
 5664TIP3    H238408   3.699   1.621   5.521 -0.3826  0.4558 -0.5922
 5665TIP3   OH238409   3.069   0.653   4.874  0.3160 -0.0205 -0.3917
 5665TIP3    H138410   3.043   0.589   4.940 -0.9962  1.2098  0.3283
 5665TIP3    H238411   3.148   0.693   4.909 -0.8401  1.2248  0.9042
 5666TIP3   OH238412   0.528   5.241   2.476 -0.2467  0.0766  0.1395
 5666TIP3    H138413   0.436   5.243   2.501 -0.2088  0.0432  0.2824
 5666TIP3    H238414   0.568   5.177   2.535 -0.0063  0.5591  0.5069
 5667TIP3   OH238415   3.380   5.082   2.902 -0.1674 -0.2161  0.1862
 5667TIP3    H138416   3.406   5.085   2.810 -1.7499  1.9068 -0.2683
 5667TIP3    H238417   3.287   5.060   2.899 -0.4148  0.6117  1.2212
 5668TIP3   OH238418   2.461   0.719  11.167  0.0264 -0.4453  0.4072
 5668TIP3    H138419   2.492   0.628  11.168  1.8550  0.0047 -2.2705
 5668TIP3    H238420   2.539   0.769  11.142 -1.9594  1.2207 -3.1384
 5669TIP3   OH238421   5.185   3.198  12.158  0.0971  0.0012 -0.5704
 5669TIP3    H138422   5.214   3.165  12.073  1.0050 -0.5201 -0.0764
 5669TIP3    H238423   5.093   3.172  12.164  0.9365 -3.4293  0.1671
 5670TIP3   OH238424   2.745   2.581   3.817  0.0194 -0.1909 -0.4451
 5670TIP3    H138425   2.675   2.525   3.783 -1.8483  1.6165  0.2230
 5670TIP3    H238426   2.770   2.540   3.900 -1.5059  0.0512  0.1677
 5671TIP3   OH238427   0.151   3.175  15.374 -0.7285 -0.0028  0.5556
 5671TIP3    H138428   0.175   3.129  15.293 -0.8764 -1.7792  1.4732
 5671TIP3    H238429   0.110   3.256  15.344 -1.6850 -1.0740 -1.1917
 5672TIP3   OH238430   6.291   1.145   5.473 -0.4320  0.2325 -0.5043
 5672TIP3    H138431   6.306   1.227   5.425 -0.3231  0.1878 -0.5464
 5672TIP3    H238432   6.264   1.082   5.406  2.3188 -0.5770 -0.9748
 5673TIP3   OH238433   3.139   0.461  11.268  1.0128  0.1515 -1.1610
 5673TIP3    H138434   3.175   0.458  11.357 -0.0211 -2.5409 -0.7163
 5673TIP3    H238435   3.105   0.373  11.254  2.8938 -0.1878 -5.0029
 5674TIP3   OH238436   0.349   3.985  11.981 -0.2253 -0.0914 -0.2048
 5674TIP3    H138437   0.378   4.017  11.895 -1.1961 -0.7251 -0.7855
 5674TIP3    H238438   0.292   3.912  11.961 -0.9098  0.1002  0.9737
 5675TIP3   OH238439   4.428   5.277  16.905 -0.1448 -0.4088 -0.1948
 5675TIP3    H138440   4.377   5.231  16.838  1.9759 -1.5949 -1.0674
 5675TIP3    H238441   4.446   5.211  16.971 -3.1543  0.9999  2.2819
 5676TIP3   OH238442   3.294   3.041  11.748 -0.3486  0.1724 -0.8418
 5676TIP3    H138443   3.262   3.080  11.667  0.4928  1.3858 -0.6106
 5676TIP3    H238444   3.380   3.080  11.762 -0.8551  0.6899  1.1036
 5677TIP3   OH238445   0.986   3.306   1.734 -0.2368  0.0160 -0.0950
 5677TIP3    H138446   1.048   3.340   1.670 -1.1890  0.8236 -0.6156
 5677TIP3    H238447   0.946   3.383   1.774 -1.2795 -0.4716 -0.1432
 5678TIP3   OH238448   2.299   2.282  12.742 -0.1240  0.5588 -0.1705
 5678TIP3    H138449   2.290   2.274  12.647 -2.0858 -4.1763  0.1345
 5678TIP3    H238450   2.384   2.242  12.761  0.1885  1.3427  0.0960
 5679TIP3   OH238451   4.027   3.311   2.372 -0.1273  0.2398 -0.6559
 5679TIP3    H138452   3.950   3.357   2.339 -0.4038 -0.6396 -1.2775
 5679TIP3    H238453   4.078   3.291   2.294 -0.1914 -0.8033 -0.4414
 5680TIP3   OH238454   2.705   4.851  14.855  0.2058 -0.1414 -0.5082
 5680TIP3    H138455   2.746   4.827  14.938  1.5083 -0.8912 -1.3348
 5680TIP3    H238456   2.709   4.771  14.802  0.5776  0.6790 -1.7485
 5681TIP3   OH238457   5.069   1.416  13.561 -0.6691 -0.0583  0.3272
 5681TIP3    H138458   5.105   1.454  13.641 -0.6961 -0.4423  0.5244
 5681TIP3    H238459   5.145   1.379  13.515 -0.6644  0.0909  0.2127
 5682TIP3   OH238460   4.365   2.176  14.677  0.3153 -0.3227 -0.3829
 5682TIP3    H138461   4.376   2.270  14.684  1.4249 -0.5665  2.1249
 5682TIP3    H238462   4.272   2.161  14.689  0.2823  0.3973  0.3482
 5683TIP3   OH238463   5.625   5.447  15.165  0.1880  0.4939  0.0948
 5683TIP3    H138464   5.606   5.392  15.241  1.0337  1.0187  0.7042
 5683TIP3    H238465   5.582   5.531  15.185  0.0487  0.4967 -0.2097
 5684TIP3   OH238466   0.833   5.756   0.780 -0.0290  0.3896 -0.2760
 5684TIP3    H138467   0.922   5.729   0.805 -0.0780  0.4082 -0.0825
 5684TIP3    H238468   0.793   5.675   0.747  0.1016  0.4090 -0.4830
 5685TIP3   OH238469   5.453   3.593   2.307  0.1733 -0.3058  0.2750
 5685TIP3    H138470   5.519   3.646   2.352  2.4784 -2.3943 -0.4009
 5685TIP3    H238471   5.491   3.505   2.304 -0.5617 -0.7156 -4.1000
 5686TIP3   OH238472   4.824   0.686  15.582  0.0509  0.3276 -0.2405
 5686TIP3    H138473   4.883   0.700  15.656  1.7649 -0.7122 -1.3391
 5686TIP3    H238474   4.855   0.746  15.515 -1.3553  1.1058 -0.2438
 5687TIP3   OH238475   0.935   5.616   5.580 -0.3932  0.3515  0.7567
 5687TIP3    H138476   0.893   5.654   5.503 -0.3072 -1.0998 -0.0545
 5687TIP3    H238477   1.009   5.673   5.599  0.2715  0.1095 -0.9588
 5688TIP3   OH238478   1.008   5.904  16.829  0.4257  0.2271  0.1702
 5688TIP3    H138479   0.928   5.854  16.812  0.6219  0.3176 -1.1971
 5688TIP3    H238480   1.006   5.974  16.763  1.5488  0.3163  0.2129
 5689TIP3   OH238481   4.243   2.714  13.514 -0.1207  0.1026 -1.0515
 5689TIP3    H138482   4.213   2.624  13.518  0.8738 -0.2439 -1.1064
 5689TIP3    H238483   4.204   2.749  13.434 -1.5050  0.1172 -0.4078
 5690TIP3   OH238484   6.720   0.406   3.614 -0.7842 -0.1299 -0.3118
 5690TIP3    H138485   6.634   0.417   3.654 -0.2891 -1.4145  1.2250
 5690TIP3    H238486   6.711   0.330   3.557 -0.8306  0.1008 -0.6090
 5691TIP3   OH238487   3.319   3.614  16.165 -0.3205  0.2385 -0.5665
 5691TIP3    H138488   3.238   3.641  16.209 -1.1806 -2.5174 -0.2899
 5691TIP3    H238489   3.289   3.569  16.086  0.8583 -1.9672  0.1847
 5692TIP3   OH238490   2.754   4.941  15.599 -0.2123  0.2509  0.6237
 5692TIP3    H138491   2.825   4.970  15.657 -1.4786  0.5954  2.0381
 5692TIP3    H238492   2.677   4.934  15.655 -1.4195  0.2522 -0.9560
 5693TIP3   OH238493   5.214   2.751   5.211  0.3026 -0.0336  0.1084
 5693TIP3    H138494   5.145   2.792   5.263 -1.4371 -0.2637 -1.9120
 5693TIP3    H238495   5.245   2.820   5.153 -0.2863 -0.6445 -0.9717
 5694TIP3   OH238496   0.982   3.270   4.354 -0.0532 -0.4049 -0.4759
 5694TIP3    H138497   0.965   3.218   4.433 -1.1244  0.4687 -0.1145
 5694TIP3    H238498   1.013   3.354   4.386 -1.4764  0.3176 -0.9388
 5695TIP3   OH238499   5.383   2.854  16.789 -0.2464  0.9111  0.5451
 5695TIP3    H138500   5.313   2.839  16.853 -0.5399  0.4020  0.1129
 5695TIP3    H238501   5.337   2.891  16.713  0.0628  1.2670  0.5289
 5696TIP3   OH238502   0.763   0.610   4.397 -0.4087  0.3852 -0.1020
 5696TIP3    H138503   0.723   0.685   4.441  0.4411  0.2180  0.9924
 5696TIP3    H238504   0.841   0.645   4.354 -0.2725  0.2129  0.0055
 5697TIP3   OH238505   6.658   0.574  14.376 -0.2866 -0.3622  0.2891
 5697TIP3    H138506   6.692   0.484  14.378 -0.8549 -0.5655  1.4108
 5697TIP3    H238507   6.565   0.564  14.395 -0.2704  0.4972  0.8622
 5698TIP3   OH238508   4.105   4.376   1.932  0.2602 -0.8909  0.0045
 5698TIP3    H138509   4.075   4.464   1.908 -0.3254 -0.4350  2.1863
 5698TIP3    H238510   4.195   4.389   1.960 -0.0777 -0.8026  1.1059
 5699TIP3   OH238511   4.498   6.689   1.516  0.0969  0.1171  0.6840
 5699TIP3    H138512   4.466   6.736   1.593 -0.2733 -0.1485  0.6926
 5699TIP3    H238513   4.558   6.751   1.474  0.0524  0.3832  1.0086
 5700TIP3   OH238514   5.173   5.911  12.369  0.1739 -0.1291  0.1533
 5700TIP3    H138515   5.207   5.960  12.295 -0.9550  0.8080  0.2192
 5700TIP3    H238516   5.095   5.960  12.397 -0.7667 -1.7295  0.4868
 5701TIP3   OH238517   2.850   1.050   3.666 -0.0904 -0.1334  0.1753
 5701TIP3    H138518   2.773   1.092   3.628  1.5163  1.6151 -1.4150
 5701TIP3    H238519   2.875   0.984   3.601  0.4045  0.1365  0.0843
 5702TIP3   OH238520   3.191   5.213   3.209 -0.0869  0.1079 -0.0319
 5702TIP3    H138521   3.280   5.185   3.230 -0.1308 -0.0151 -0.0128
 5702TIP3    H238522   3.153   5.139   3.162 -0.4652 -0.1709  0.7121
 5703TIP3   OH238523   1.463   2.759  16.534 -0.1228 -0.3404  0.0680
 5703TIP3    H138524   1.554   2.787  16.532 -0.3731  0.5319  0.1669
 5703TIP3    H238525   1.461   2.685  16.595  0.7240 -1.1857 -0.8967
 5704TIP3   OH238526   5.400   0.371   4.633 -0.0724 -0.0257  0.6196
 5704TIP3    H138527   5.466   0.303   4.620 -0.3380 -0.3387  0.8840
 5704TIP3    H238528   5.328   0.345   4.577  0.5945  1.1107 -0.8208
 5705TIP3   OH238529   2.121   6.403   2.862 -0.3116  0.3897  0.7145
 5705TIP3    H138530   2.132   6.321   2.813 -0.5961  0.6566  0.1899
 5705TIP3    H238531   2.075   6.377   2.942  1.8251 -0.3562  1.7831
 5706TIP3   OH238532   1.914   3.949   2.381 -0.0362 -0.4375 -0.1418
 5706TIP3    H138533   1.928   4.003   2.459  2.9568 -0.8504 -0.2997
 5706TIP3    H238534   1.865   3.873   2.413  0.0035  0.0134  1.0429
 5707TIP3   OH238535   0.879   3.735  12.139 -0.4623  0.0939 -0.3885
 5707TIP3    H138536   0.877   3.648  12.099  0.4535  0.5816 -1.5216
 5707TIP3    H238537   0.787   3.762  12.140 -0.7702 -0.8889  0.0351
 5708TIP3   OH238538   6.579   5.621  17.015 -0.1326 -0.1566 -0.0847
 5708TIP3    H138539   6.592   5.712  16.987 -0.0159 -0.2203 -0.2370
 5708TIP3    H238540   6.620   5.617  17.102 -2.8888  0.7769  1.3955
 5709TIP3   OH238541   2.021   4.100   2.968 -0.3743 -0.3511  0.3519
 5709TIP3    H138542   2.040   4.139   2.882  0.6817 -2.5485 -0.4787
 5709TIP3    H238543   2.101   4.052   2.990 -1.3849 -1.4946  1.6225
 5710TIP3   OH238544   4.819   1.447   0.165 -0.4744  0.2803  0.3020
 5710TIP3    H138545   4.914   1.448   0.181 -0.6901  1.9971  1.7433
 5710TIP3    H238546   4.788   1.370   0.212  0.0822  0.2556  0.6441
 5711TIP3   OH238547   6.510   0.512  12.210 -0.2314  0.3883  0.8063
 5711TIP3    H138548   6.601   0.497  12.235 -0.2226 -0.0278  0.5294
 5711TIP3    H238549   6.515   0.552  12.124 -0.3176  0.1004  0.6666
 5712TIP3   OH238550   2.614   5.470  10.606  0.2150  0.3329  0.6771
 5712TIP3    H138551   2.679   5.512  10.549  0.0134  2.0698  1.6359
 5712TIP3    H238552   2.662   5.398  10.647  0.0831 -1.6256 -2.3458
 5713TIP3   OH238553   2.535   0.667   5.269 -0.1639 -0.1423 -0.2674
 5713TIP3    H138554   2.511   0.605   5.338 -0.7982 -0.3192 -0.6403
 5713TIP3    H238555   2.535   0.614   5.189  1.6197 -0.1831 -0.2756
 5714TIP3   OH238556   6.276   0.231   1.167  0.2336 -0.0607  0.1762
 5714TIP3    H138557   6.217   0.246   1.093 -1.0986  0.1038  1.2306
 5714TIP3    H238558   6.227   0.261   1.243  2.5875  2.4022  0.8932
 5715TIP3   OH238559   6.705   4.806   6.722  0.0617 -0.1646  0.0362
 5715TIP3    H138560   6.759   4.735   6.688 -0.7805  0.6695 -3.4116
 5715TIP3    H238561   6.766   4.878   6.737  0.2810  0.0946 -1.8187
 5716TIP3   OH238562   4.729   0.006  11.667  0.3955  0.0865  0.1200
 5716TIP3    H138563   4.664   0.068  11.700 -0.0526 -0.3009 -0.0142
 5716TIP3    H238564   4.685  -0.079  11.671  0.7969 -0.1430 -0.2310
 5717TIP3   OH238565   3.386   5.723  15.177 -0.2528 -0.6734 -0.3129
 5717TIP3    H138566   3.462   5.666  15.169  0.1257 -0.4289  1.3281
 5717TIP3    H238567   3.313   5.664  15.195 -0.1133 -0.7460  0.0092
 5718TIP3   OH238568   5.003   5.762  16.303 -0.7604 -0.7397 -0.0110
 5718TIP3    H138569   5.039   5.676  16.329 -1.0256 -1.0909 -0.7893
 5718TIP3    H238570   5.039   5.778  16.216  0.0348  0.3887  0.5019
 5719TIP3   OH238571   1.171   6.537   2.638 -0.2189 -0.1829 -0.3463
 5719TIP3    H138572   1.082   6.533   2.671  0.1577 -2.0984  0.5937
 5719TIP3    H238573   1.186   6.451   2.598  1.6347 -0.4141  0.7299
 5720TIP3   OH238574   1.786   1.886  15.911  0.3536  0.4583  0.6074
 5720TIP3    H138575   1.816   1.952  15.972 -0.0376  1.2921 -0.0736
 5720TIP3    H238576   1.786   1.930  15.826  2.5543 -1.1574 -0.3232
 5721TIP3   OH238577   4.930   0.691  13.242  0.2207 -0.1505 -0.1026
 5721TIP3    H138578   4.914   0.629  13.313  0.1572  0.5213  0.4683
 5721TIP3    H238579   4.846   0.734  13.227  0.1621 -0.4824 -0.7807
 5722TIP3   OH238580   3.007   1.245   3.829  0.1845 -0.0465 -0.6232
 5722TIP3    H138581   2.955   1.324   3.819  0.6335  0.1294 -1.6910
 5722TIP3    H238582   2.967   1.181   3.770  0.7889 -0.1063 -0.9793
 5723TIP3   OH238583   4.714   2.026   5.160 -0.2991  0.3734 -0.1069
 5723TIP3    H138584   4.737   2.088   5.229 -1.8960  1.4391 -0.4802
 5723TIP3    H238585   4.791   2.025   5.103  0.5511  0.4113  0.9955
 5724TIP3   OH238586   2.929   0.947  14.447  0.9377 -0.2980  0.7906
 5724TIP3    H138587   3.008   0.977  14.402 -0.1107  0.1609 -0.8254
 5724TIP3    H238588   2.962   0.901  14.525  2.7531  0.4351  0.5086
 5725TIP3   OH238589   6.369   1.275  16.518 -0.0466 -0.6372 -0.1057
 5725TIP3    H138590   6.323   1.194  16.540 -1.0231  0.0790  0.5891
 5725TIP3    H238591   6.331   1.340  16.577 -0.5587  0.7178 -1.8394
 5726TIP3   OH238592   2.500   6.765   3.543 -0.2795 -0.3090 -0.2432
 5726TIP3    H138593   2.423   6.783   3.596  0.3456 -0.3718  0.7097
 5726TIP3    H238594   2.466   6.754   3.454 -1.5149 -1.5658  0.3578
 5727TIP3   OH238595   2.364   1.221   2.513  0.5890 -0.5577 -0.2878
 5727TIP3    H138596   2.389   1.181   2.430 -0.3087 -2.4954  0.2934
 5727TIP3    H238597   2.410   1.169   2.579  0.4565  0.2697  0.4739
 5728TIP3   OH238598   5.116   5.130   3.842 -0.1384 -0.5810 -0.4348
 5728TIP3    H138599   5.081   5.176   3.766 -2.4787 -0.0266  0.8749
 5728TIP3    H238600   5.126   5.039   3.812 -0.9648 -0.3700 -1.4224
 5729TIP3   OH238601   1.884   3.066  13.106  0.4449  0.1091 -0.2262
 5729TIP3    H138602   1.964   3.116  13.087  0.7220  0.0857  0.8275
 5729TIP3    H238603   1.888   2.992  13.046  0.6091  0.7394 -1.0118
 5730TIP3   OH238604   1.343   4.065   5.058  0.1485  0.1490 -0.2963
 5730TIP3    H138605   1.392   4.101   5.132  0.4859 -0.7575 -0.0654
 5730TIP3    H238606   1.256   4.047   5.095  0.7931 -1.8787  0.3904
 5731TIP3   OH238607   5.730   4.626  17.209 -0.3840 -0.4898  0.4518
 5731TIP3    H138608   5.778   4.544  17.217 -1.6103 -1.0713  2.7503
 5731TIP3    H238609   5.795   4.689  17.176  0.6003 -2.2979 -1.2497
 5732TIP3   OH238610   2.896   4.799   3.667 -0.1514  0.1440 -0.1498
 5732TIP3    H138611   2.857   4.776   3.583  0.9062  2.6872 -1.4405
 5732TIP3    H238612   2.989   4.776   3.658 -0.1742 -0.2921  0.6408
 5733TIP3   OH238613   1.183   1.195   4.365 -0.3705  0.3599 -0.1027
 5733TIP3    H138614   1.206   1.279   4.405 -1.2757  1.1249 -1.1279
 5733TIP3    H238615   1.237   1.131   4.412 -0.8990  1.2773  1.8583
 5734TIP3   OH238616   5.121   2.051   1.991  0.0600  0.1040 -0.0405
 5734TIP3    H138617   5.106   2.011   1.905  0.0389  1.1330 -0.5313
 5734TIP3    H238618   5.077   2.136   1.986  0.1604  0.2264  0.9538
 5735TIP3   OH238619   3.963   0.404   1.441 -0.3132 -0.0152  0.4291
 5735TIP3    H138620   4.002   0.484   1.474 -0.4879 -1.0014  3.2245
 5735TIP3    H238621   4.031   0.337   1.450 -1.4835 -1.0460  2.2144
 5736TIP3   OH238622   0.180   2.395   4.863  0.3813 -0.0997  0.0268
 5736TIP3    H138623   0.148   2.359   4.946  0.8556  0.9103  0.6623
 5736TIP3    H238624   0.104   2.392   4.804 -0.7283  1.6218  1.2920
 5737TIP3   OH238625   0.620   1.722  12.520  0.0111  0.4797  0.1268
 5737TIP3    H138626   0.532   1.757  12.532 -0.8931 -1.7253  0.2872
 5737TIP3    H238627   0.653   1.709  12.609 -0.7666 -1.5875  0.1727
 5738TIP3   OH238628   2.125   4.923  13.759  0.0472  0.0329  0.2537
 5738TIP3    H138629   2.180   4.910  13.835 -0.3652 -1.0999  0.3701
 5738TIP3    H238630   2.173   4.987  13.705  0.3073  0.8849  1.4663
 5739TIP3   OH238631   6.549   5.550  14.968 -0.0733 -0.0588 -0.5110
 5739TIP3    H138632   6.503   5.468  14.986 -1.1122  0.7170  0.5021
 5739TIP3    H238633   6.637   5.522  14.940 -0.2997 -1.4974  0.1077
 5740TIP3   OH238634   6.002   4.666   0.657 -0.3599 -0.1339 -0.2028
 5740TIP3    H138635   5.983   4.586   0.609 -1.0155  0.7466 -1.4465
 5740TIP3    H238636   6.063   4.638   0.726  2.3096 -1.1055 -2.7732
 5741TIP3   OH238637   2.028   0.203  11.619 -0.4936 -0.3908  0.0504
 5741TIP3    H138638   2.122   0.209  11.601 -0.6543  0.4360 -0.5871
 5741TIP3    H238639   2.010   0.109  11.622  0.3396 -0.5575  0.1158
 5742TIP3   OH238640   0.133   3.296  16.250  0.6090  0.4028 -0.3713
 5742TIP3    H138641   0.130   3.237  16.176  3.4548  1.1521 -1.2013
 5742TIP3    H238642   0.162   3.380  16.214  1.5200  0.9509  1.4587
 5743TIP3   OH238643   4.761   0.077  14.016  0.6245 -0.0129 -0.7781
 5743TIP3    H138644   4.806   0.091  14.099  0.2124  0.7090 -0.6601
 5743TIP3    H238645   4.830   0.052  13.954  1.3118  1.7040 -0.7576
 5744TIP3   OH238646   1.763   0.051   0.475 -0.0586 -0.0993 -0.0736
 5744TIP3    H138647   1.699   0.006   0.421  1.4803 -1.8789 -0.5090
 5744TIP3    H238648   1.737   0.031   0.565 -0.1623 -0.7347 -0.2443
 5745TIP3   OH238649   0.419   2.880   3.819  0.0525  0.0170  0.3438
 5745TIP3    H138650   0.373   2.801   3.791 -1.0173  0.3264  1.1484
 5745TIP3    H238651   0.493   2.847   3.870  0.3018 -0.4819 -0.3292
 5746TIP3   OH238652   0.539   0.415  12.360  0.5512  0.0649  0.2552
 5746TIP3    H138653   0.582   0.450  12.439  1.7870 -1.1907  0.1679
 5746TIP3    H238654   0.598   0.440  12.288  0.5838 -0.7327  0.0021
 5747TIP3   OH238655   1.973   2.076  11.822  0.5853  0.2234 -0.3256
 5747TIP3    H138656   1.996   1.999  11.771  0.0677 -0.6088  0.6502
 5747TIP3    H238657   1.955   2.042  11.910  0.5515  1.4829  0.1774
 5748TIP3   OH238658   5.997   0.883   2.840  0.4932 -0.2295 -0.1998
 5748TIP3    H138659   6.008   0.978   2.844 -0.0662 -0.1124 -1.0624
 5748TIP3    H238660   6.084   0.848   2.857  0.4489  0.3809  1.5093
 5749TIP3   OH238661   2.708   0.503   1.191  0.0695  0.5434  0.1768
 5749TIP3    H138662   2.740   0.548   1.269 -0.0224  1.9575 -0.5674
 5749TIP3    H238663   2.757   0.543   1.119  0.2043 -0.7789 -0.5102
 5750TIP3   OH238664   3.307   2.426   0.716  0.3245  0.3050 -0.3039
 5750TIP3    H138665   3.321   2.415   0.810  1.6939  0.9821 -0.4024
 5750TIP3    H238666   3.375   2.488   0.689 -0.6417  0.8664 -1.5729
 5751TIP3   OH238667   1.339   1.112   3.462 -0.1064  0.4443  0.3024
 5751TIP3    H138668   1.316   1.029   3.503  1.2351 -0.0158  0.1351
 5751TIP3    H238669   1.425   1.098   3.423  1.4832  2.6970  2.6821
 5752TIP3   OH238670   2.977   2.924   0.331  0.4008  0.0196 -0.2955
 5752TIP3    H138671   3.010   2.924   0.421  0.2026  2.5694 -0.1715
 5752TIP3    H238672   3.045   2.878   0.282  1.8041  0.8913  0.7504
 5753TIP3   OH238673   4.609   1.555  12.923  0.0403  0.2603  0.1249
 5753TIP3    H138674   4.613   1.504  12.843 -0.9146  0.4832 -0.0863
 5753TIP3    H238675   4.544   1.510  12.977  1.1730 -0.2795  1.0688
 5754TIP3   OH238676   6.509   5.423   5.401 -0.1502 -0.0093 -0.2653
 5754TIP3    H138677   6.519   5.511   5.366 -0.4954 -0.2501 -0.9713
 5754TIP3    H238678   6.505   5.366   5.324 -1.3900 -0.4956  0.1443
 5755TIP3   OH238679   3.823   0.388  15.314 -1.1060 -0.0225  0.5871
 5755TIP3    H138680   3.884   0.461  15.323  0.2175 -1.0266  0.1162
 5755TIP3    H238681   3.764   0.397  15.388 -1.0935  1.6151  0.4430
 5756TIP3   OH238682   6.307   4.282   4.626 -0.1502  0.8374  0.2681
 5756TIP3    H138683   6.373   4.351   4.637  1.0731 -0.0962 -0.7810
 5756TIP3    H238684   6.304   4.268   4.531  0.4774 -1.2977  0.5109
 5757TIP3   OH238685   5.176   5.516  12.044  0.5276  0.2459 -0.8648
 5757TIP3    H138686   5.200   5.512  12.137  0.1514  3.8123 -0.4486
 5757TIP3    H238687   5.112   5.587  12.039  0.6149  0.2391 -3.8663
 5758TIP3   OH238688   0.964   5.170   0.830  0.1253  0.0717 -0.5901
 5758TIP3    H138689   1.017   5.134   0.759 -0.7032 -0.5484 -0.9037
 5758TIP3    H238690   1.003   5.256   0.847  0.9282 -0.1706 -1.1373
 5759TIP3   OH238691   2.834   4.984  14.238  0.2051  0.0128  0.3200
 5759TIP3    H138692   2.923   4.965  14.208 -0.3761 -1.5248 -0.5703
 5759TIP3    H238693   2.845   5.036  14.318  1.8869 -0.3427  0.3448
 5760TIP3   OH238694   0.030   4.265   4.423  0.6283  0.3133  0.2107
 5760TIP3    H138695   0.041   4.359   4.438  1.4728  0.2055  0.3130
 5760TIP3    H238696   0.043   4.226   4.509  0.8415  0.0645  0.0669
 5761TIP3   OH238697   1.820   6.566   6.112  0.0227  0.1475  0.5211
 5761TIP3    H138698   1.910   6.536   6.095 -0.5581 -0.5177 -1.7872
 5761TIP3    H238699   1.829   6.659   6.129  1.1280  0.2273 -0.3473
 5762TIP3   OH238700   3.198   2.589   5.626  0.4722 -0.3885  0.2075
 5762TIP3    H138701   3.143   2.510   5.629 -0.6282  0.2144 -2.1808
 5762TIP3    H238702   3.178   2.635   5.708 -3.1785  0.1338 -0.8257
 5763TIP3   OH238703   3.689   6.161  14.832  0.5853 -0.4122  0.2476
 5763TIP3    H138704   3.709   6.240  14.780 -1.4159 -0.2071 -0.2642
 5763TIP3    H238705   3.613   6.185  14.884  0.8795 -1.5430  1.2347
 5764TIP3   OH238706   5.540   3.745   1.033  0.1898 -0.6639  0.3334
 5764TIP3    H138707   5.455   3.785   1.017  0.6770 -0.2181 -1.3498
 5764TIP3    H238708   5.559   3.696   0.953  0.6657 -2.3819  1.4378
 5765TIP3   OH238709   4.993   1.275   3.570 -0.3824 -0.1118  0.4925
 5765TIP3    H138710   4.910   1.277   3.522 -0.4805 -0.2866  0.6531
 5765TIP3    H238711   4.969   1.249   3.659 -0.0702 -0.9082  0.3565
 5766TIP3   OH238712   6.754   6.303   1.475 -0.5686  0.2532  0.5599
 5766TIP3    H138713   6.744   6.212   1.445 -2.3625  0.6739 -0.2610
 5766TIP3    H238714   6.673   6.321   1.523 -0.6283  1.6821 -0.0348
 5767TIP3   OH238715   3.630   1.535  15.377 -0.5657  0.2644  0.0177
 5767TIP3    H138716   3.600   1.445  15.364 -0.9941  0.2771  0.8595
 5767TIP3    H238717   3.630   1.573  15.289  0.3759 -0.7741 -0.4570
 5768TIP3   OH238718   4.216   6.154  14.915  0.1798  0.3484 -0.0796
 5768TIP3    H138719   4.268   6.146  14.835  0.3791 -1.3471  0.1851
 5768TIP3    H238720   4.226   6.070  14.959 -0.8428  0.8488  1.1814
 5769TIP3   OH238721   2.173   6.387   3.607 -0.1697  0.3322 -0.1450
 5769TIP3    H138722   2.129   6.446   3.547  0.1523 -1.4198 -2.2390
 5769TIP3    H238723   2.104   6.327   3.636 -0.8784  2.5062  3.2618
 5770TIP3   OH238724   2.582   1.736  14.268 -0.0673 -0.2460  0.0687
 5770TIP3    H138725   2.577   1.667  14.203  2.2421  0.4547 -0.9756
 5770TIP3    H238726   2.674   1.736  14.295  0.2678  2.9452 -0.6472
 5771TIP3   OH238727   2.535   0.836   1.669 -0.0726  0.2506  0.4592
 5771TIP3    H138728   2.469   0.898   1.699 -0.3782 -0.7516  1.9556
 5771TIP3    H238729   2.580   0.808   1.748 -0.5544 -2.1034 -0.0210
 5772TIP3   OH238730   5.567   4.863   2.952  0.2576 -0.1156 -0.2536
 5772TIP3    H138731   5.633   4.829   3.012 -0.7205 -0.0938  0.8798
 5772TIP3    H238732   5.592   4.954   2.938  0.2021  0.0489  0.6084
 5773TIP3   OH238733   0.086   3.716   1.882  0.1746  0.3531 -0.3290
 5773TIP3    H138734  -0.004   3.747   1.873  0.6276  1.5663 -0.8321
 5773TIP3    H238735   0.115   3.696   1.793  1.4831  3.2118 -0.6471
 5774TIP3   OH238736   5.425   5.208  17.171 -0.0858  0.4386 -0.0657
 5774TIP3    H138737   5.462   5.155  17.101  1.3303  0.3442  0.7314
 5774TIP3    H238738   5.389   5.145  17.233  1.3768  0.3813  0.7592
 5775TIP3   OH238739   5.309   0.125   5.579  0.2757  0.5581 -0.1513
 5775TIP3    H138740   5.221   0.104   5.609  0.9329 -1.6465  0.4438
 5775TIP3    H238741   5.304   0.121   5.484  0.3072 -2.7340 -0.1446
 5776TIP3   OH238742   3.127   1.494   1.733 -0.8814 -0.0786 -0.4507
 5776TIP3    H138743   3.065   1.452   1.793 -0.7869 -1.0069 -0.9907
 5776TIP3    H238744   3.074   1.558   1.685 -1.8397 -2.0110 -2.0973
 5777TIP3   OH238745   5.593   3.548  16.931  0.3096 -0.0392  0.3329
 5777TIP3    H138746   5.533   3.522  16.861  0.9644  1.4853 -0.8698
 5777TIP3    H238747   5.558   3.629  16.965  1.0451  0.2506  0.4282
 5778TIP3   OH238748   3.658   1.889   6.324  0.2882 -0.0603 -0.3777
 5778TIP3    H138749   3.569   1.881   6.357 -0.2110 -0.2323 -1.7194
 5778TIP3    H238750   3.712   1.894   6.403 -0.9507  0.6854  0.4598
 5779TIP3   OH238751   4.518   0.213  11.954 -0.0931 -0.1720  0.5300
 5779TIP3    H138752   4.485   0.275  12.019 -0.7408  2.7402 -2.3153
 5779TIP3    H238753   4.440   0.183  11.907  0.5920  2.3574 -2.5482
 5780TIP3   OH238754   5.241   1.174  13.903  0.3704  0.1781  0.4093
 5780TIP3    H138755   5.245   1.093  13.953 -0.5856 -0.5219 -0.6057
 5780TIP3    H238756   5.148   1.197  13.902  0.6641  1.5452  1.0431
 5781TIP3   OH238757   0.223   4.223  16.500  0.9728 -0.8524 -0.3428
 5781TIP3    H138758   0.199   4.164  16.429  2.4161 -0.5786 -1.0847
 5781TIP3    H238759   0.284   4.285  16.460 -0.0030  0.7423  0.5847
 5782TIP3   OH238760   0.978   2.012   5.765 -0.2530 -0.8128 -0.0419
 5782TIP3    H138761   1.049   1.958   5.799  0.4386 -1.0422 -1.7462
 5782TIP3    H238762   0.949   1.967   5.686  1.2390  1.8743 -2.3221
 5783TIP3   OH238763   4.052   0.814  11.018  0.1514 -0.5892 -0.5888
 5783TIP3    H138764   3.994   0.886  11.042  1.1640  0.4136 -1.0521
 5783TIP3    H238765   4.140   0.847  11.035  0.6524 -1.6606 -0.9714
 5784TIP3   OH238766   0.078   1.890   4.998  0.8880  0.2386  0.0125
 5784TIP3    H138767   0.153   1.948   4.989  1.6995 -0.4224  1.9364
 5784TIP3    H238768   0.110   1.819   5.053 -1.3086  0.2491  1.4109
 5785TIP3   OH238769   2.182   1.394  12.992 -0.6452 -0.0366 -0.3072
 5785TIP3    H138770   2.158   1.486  13.003  1.1558  0.6105 -1.5336
 5785TIP3    H238771   2.156   1.353  13.075 -0.4441  1.7976  0.7152
 5786TIP3   OH238772   5.532   1.646   4.985  0.1968 -0.2317 -0.4681
 5786TIP3    H138773   5.602   1.654   4.919  1.4359  1.0728  0.9350
 5786TIP3    H238774   5.563   1.579   5.045 -0.8380 -1.2679 -1.0556
 5787TIP3   OH238775   4.921   1.889  17.208  0.2013 -0.0232 -0.1990
 5787TIP3    H138776   4.923   1.795  17.221  0.2382  0.1311  1.0306
 5787TIP3    H238777   5.009   1.912  17.179  0.1058 -0.3954 -0.7960
 5788TIP3   OH238778   3.347   5.049  12.854 -0.4490 -0.3877  0.2009
 5788TIP3    H138779   3.259   5.047  12.817 -0.7410  0.3649  0.8293
 5788TIP3    H238780   3.351   4.971  12.911  0.3798 -2.1911 -2.1498
 5789TIP3   OH238781   5.508   0.087   1.363  0.0056  0.3518 -0.2832
 5789TIP3    H138782   5.472   0.133   1.287 -0.4236  1.5404  0.6327
 5789TIP3    H238783   5.595   0.126   1.376 -0.1314  0.5171  0.1502
 5790TIP3   OH238784   5.169   4.847  15.720  0.2032 -0.1217  0.3602
 5790TIP3    H138785   5.087   4.891  15.743  0.9441  0.9000  1.1706
 5790TIP3    H238786   5.221   4.915  15.676  0.5160 -0.8342 -0.4010
 5791TIP3   OH238787   3.784   4.799   1.300 -0.4110  0.3855  0.0236
 5791TIP3    H138788   3.783   4.874   1.241  0.2787 -0.1527 -0.6909
 5791TIP3    H238789   3.876   4.778   1.311 -0.5707 -0.0079  0.6692
 5792TIP3   OH238790   2.519   1.107   3.909  0.3621  0.5186 -0.5892
 5792TIP3    H138791   2.427   1.088   3.931  0.1897  1.6572 -0.2524
 5792TIP3    H238792   2.542   1.041   3.844  0.8622 -2.9955  2.7467
 5793TIP3   OH238793   0.293   1.901  13.332  0.3789  0.5490  0.1893
 5793TIP3    H138794   0.350   1.825  13.333  0.8349  0.8659 -0.6562
 5793TIP3    H238795   0.260   1.905  13.243 -0.1657  0.9540  0.4061
 5794TIP3   OH238796   5.650   3.563   4.032  0.0499  0.0337  0.6527
 5794TIP3    H138797   5.593   3.633   4.062  0.4239  1.6129 -1.9663
 5794TIP3    H238798   5.691   3.530   4.112 -0.2868  2.6802  2.0499
 5795TIP3   OH238799   6.017   3.847   1.069 -0.3576 -0.1110 -0.4765
 5795TIP3    H138800   6.032   3.778   1.005  2.2627  0.6293 -0.7887
 5795TIP3    H238801   5.921   3.857   1.072 -0.7577 -2.9469 -1.1928
 5796TIP3   OH238802   1.046   2.141  11.716 -0.1246  0.0281 -0.1665
 5796TIP3    H138803   0.963   2.141  11.669 -0.1429  0.8270 -0.1537
 5796TIP3    H238804   1.031   2.085  11.792 -0.3424 -0.6169 -0.6790
 5797TIP3   OH238805   3.320   1.751  11.197 -0.5988 -0.2510  1.1005
 5797TIP3    H138806   3.320   1.837  11.156  0.3450  0.0158  1.6183
 5797TIP3    H238807   3.298   1.690  11.126 -5.0317  0.6426  1.4305
 5798TIP3   OH238808   0.318   4.320   5.591  0.0610  0.4200  0.0337
 5798TIP3    H138809   0.246   4.295   5.532 -0.1975 -1.1287  0.9441
 5798TIP3    H238810   0.287   4.401   5.632 -0.8416  0.1809 -0.1379
 5799TIP3   OH238811   1.353   6.589  12.814 -0.4912 -0.5869  0.8188
 5799TIP3    H138812   1.329   6.554  12.728 -0.0060 -0.1775  0.5044
 5799TIP3    H238813   1.371   6.513  12.868 -0.3193 -0.8400  0.4083
 5800TIP3   OH238814   1.163   3.176  16.260 -0.3850  0.1006 -0.2325
 5800TIP3    H138815   1.245   3.205  16.221 -0.8623  2.4616  0.3198
 5800TIP3    H238816   1.096   3.200  16.196 -0.7726 -0.4144 -0.0271
 5801TIP3   OH238817   1.177   6.122   4.605  0.1023  0.4897  0.2214
 5801TIP3    H138818   1.196   6.198   4.549  1.2210 -1.0576 -1.6096
 5801TIP3    H238819   1.225   6.050   4.565 -0.1372 -1.0136  2.4617
 5802TIP3   OH238820   3.639   4.992   3.030 -0.0876 -0.7101 -0.0733
 5802TIP3    H138821   3.554   4.982   2.988 -0.1403  3.7701 -1.6600
 5802TIP3    H238822   3.702   4.959   2.966 -0.5051 -0.0626 -0.8355
 5803TIP3   OH238823   3.053   5.059  16.626  0.3131  0.2270 -0.0285
 5803TIP3    H138824   3.126   4.998  16.617 -0.3383 -0.4760 -0.7582
 5803TIP3    H238825   3.032   5.058  16.719 -0.5541 -1.7519 -0.1786
 5804TIP3   OH238826   6.597   4.063  14.511  0.1301 -0.7020  0.1094
 5804TIP3    H138827   6.514   4.066  14.559 -0.4711 -0.4664 -0.8969
 5804TIP3    H238828   6.661   4.099  14.571 -0.3724 -1.5050  1.1517
 5805TIP3   OH238829   4.721   5.457   1.609 -0.5386 -0.3610  0.0207
 5805TIP3    H138830   4.741   5.501   1.527 -2.5412 -1.8451 -1.3804
 5805TIP3    H238831   4.625   5.457   1.614 -0.5371 -2.1857  1.2674
 5806TIP3   OH238832   3.355   0.476   3.275  0.1164 -0.4852 -0.2229
 5806TIP3    H138833   3.280   0.506   3.223  2.1185 -0.5985 -3.4441
 5806TIP3    H238834   3.405   0.421   3.215  1.9577 -1.7796  2.3319
 5807TIP3   OH238835   2.426   4.027  13.887 -0.0949 -0.2655 -0.5004
 5807TIP3    H138836   2.340   4.000  13.855 -1.2499 -0.1528  2.2235
 5807TIP3    H238837   2.460   3.951  13.933  0.5803  0.1748 -0.2501
 5808TIP3   OH238838   2.447   5.497  13.650 -0.4219  0.1699 -0.8540
 5808TIP3    H138839   2.516   5.536  13.596 -0.0669 -0.2238 -0.6944
 5808TIP3    H238840   2.375   5.560  13.647 -0.3545  0.2165 -1.6652
 5809TIP3   OH238841   1.859   6.643  16.381 -0.1749 -0.5164 -0.3305
 5809TIP3    H138842   1.937   6.652  16.325  0.0624 -0.0523  0.0695
 5809TIP3    H238843   1.889   6.669  16.468 -1.6714  3.7641 -0.8320
 5810TIP3   OH238844   4.037   4.530  13.446 -0.1759 -0.5759  0.0016
 5810TIP3    H138845   4.119   4.579  13.448 -1.1754  1.3496 -1.4622
 5810TIP3    H238846   3.977   4.581  13.501 -0.1077 -2.6874  2.1866
 5811TIP3   OH238847   2.139   5.843   3.076 -0.0188 -0.9434 -0.1823
 5811TIP3    H138848   2.121   5.866   3.167 -2.3396 -1.5019 -0.4320
 5811TIP3    H238849   2.136   5.747   3.074  1.6734 -1.0337 -0.5932
 5812TIP3   OH238850   6.313   5.495  13.761  0.1250  0.2581  0.1959
 5812TIP3    H138851   6.271   5.581  13.760 -2.0054 -0.6986  0.9264
 5812TIP3    H238852   6.404   5.513  13.783  0.2312  2.4634 -1.6512
 5813TIP3   OH238853   6.558   2.655  13.977 -0.5389  0.7493  0.2859
 5813TIP3    H138854   6.556   2.750  13.967  0.5517  0.7725  0.1759
 5813TIP3    H238855   6.471   2.627  13.950 -0.5215  1.6213 -0.7795
 5814TIP3   OH238856   5.951   6.720   4.859 -0.6611  0.7895 -0.0577
 5814TIP3    H138857   6.034   6.767   4.860 -0.7896  1.0789 -1.1798
 5814TIP3    H238858   5.889   6.780   4.899 -0.1356  0.1358  1.8151
 5815TIP3   OH238859   4.151   2.719  12.309  0.0305  0.9064  0.9814
 5815TIP3    H138860   4.083   2.705  12.243 -0.9948  1.1248  1.9689
 5815TIP3    H238861   4.140   2.648  12.371  2.1511 -0.3507  0.0324
 5816TIP3   OH238862   0.982   0.056  12.835  0.1665 -0.2665  0.7194
 5816TIP3    H138863   1.024  -0.029  12.817  0.2564 -0.0922  0.1116
 5816TIP3    H238864   0.890   0.042  12.814  0.5020  0.3594 -1.3979
 5817TIP3   OH238865   2.052   5.967   4.526  0.6914 -0.4722 -0.3267
 5817TIP3    H138866   2.145   5.968   4.502  0.1322  2.2605 -3.1281
 5817TIP3    H238867   2.020   5.881   4.498  1.8748 -0.4367 -1.9229
 5818TIP3   OH238868   0.910   2.968  12.709 -0.0191 -0.0034  0.0097
 5818TIP3    H138869   0.861   2.885  12.709  0.4886 -0.3235 -1.1659
 5818TIP3    H238870   0.997   2.944  12.679 -0.0828  1.0696 -1.1008
 5819TIP3   OH238871   2.559   3.047  13.167  0.3995  0.3844 -0.2306
 5819TIP3    H138872   2.557   3.030  13.261  0.0834  4.4005  0.6746
 5819TIP3    H238873   2.468   3.063  13.143  0.7866  3.5608 -0.1012
 5820TIP3   OH238874   5.113   4.595   5.602  0.1010  0.2921  0.2527
 5820TIP3    H138875   5.076   4.509   5.623  0.3088  0.4079  1.1529
 5820TIP3    H238876   5.200   4.575   5.567 -0.3228  0.0848 -0.7206
 5821TIP3   OH238877   5.910   0.828   5.161 -0.7147  0.4647 -0.0593
 5821TIP3    H138878   5.888   0.921   5.152 -2.7982  0.0452  0.3681
 5821TIP3    H238879   5.930   0.799   5.072 -1.9097  0.8865 -0.4705
 5822TIP3   OH238880   2.621   4.828   6.491  0.1672  0.0305 -0.1480
 5822TIP3    H138881   2.537   4.785   6.510  0.0673  0.8382  1.4749
 5822TIP3    H238882   2.684   4.757   6.484 -0.2635 -0.4819  0.9239
 5823TIP3   OH238883   6.145   0.792  11.621  0.2740  0.1937 -0.2065
 5823TIP3    H138884   6.205   0.746  11.679 -0.0346  0.9957  0.7908
 5823TIP3    H238885   6.192   0.800  11.538  0.7079 -1.0208 -0.0898
 5824TIP3   OH238886   0.506   5.791   4.645 -0.7732 -0.5140  0.0744
 5824TIP3    H138887   0.449   5.761   4.715  0.7210  0.4079  1.7530
 5824TIP3    H238888   0.476   5.879   4.625 -0.6661 -0.4557  0.1666
 5825TIP3   OH238889   1.891   5.003   2.424  0.2832 -0.2072  0.0875
 5825TIP3    H138890   1.876   5.089   2.462 -0.3110 -0.6447  0.8685
 5825TIP3    H238891   1.843   4.943   2.481  0.2711 -0.9983 -0.7358
 5826TIP3   OH238892   3.452   3.745   1.667  0.1840  0.1641 -0.3281
 5826TIP3    H138893   3.461   3.814   1.732 -1.5139 -0.2621  0.4090
 5826TIP3    H238894   3.489   3.783   1.587  0.9722  1.2242  0.5119
 5827TIP3   OH238895   4.496   2.302   1.111 -0.1652 -0.0803  0.0577
 5827TIP3    H138896   4.482   2.208   1.118  0.6235 -0.1366  1.1735
 5827TIP3    H238897   4.468   2.336   1.196 -0.1248  0.6549 -0.2153
 5828TIP3   OH238898   5.469   0.502   5.854  0.1339 -0.0587 -0.4647
 5828TIP3    H138899   5.385   0.457   5.843 -0.3879  1.1182 -1.5470
 5828TIP3    H238900   5.492   0.487   5.946  0.0081 -2.4952 -0.7592
 5829TIP3   OH238901   0.559   1.675  15.466 -0.1069  0.8495 -0.2875
 5829TIP3    H138902   0.610   1.601  15.498 -0.9892 -0.0957 -0.9695
 5829TIP3    H238903   0.618   1.723  15.409  0.5330  0.7777  0.3052
 5830TIP3   OH238904   3.048   1.325  14.414 -0.1132 -0.9881  0.4982
 5830TIP3    H138905   2.989   1.393  14.446  0.5675  0.8291 -1.8533
 5830TIP3    H238906   3.136   1.360  14.428  0.2933 -1.8290  0.1575
 5831TIP3   OH238907   1.971   4.213   4.028 -0.0909 -0.1519  0.4350
 5831TIP3    H138908   2.012   4.286   4.073  0.0610  0.6324 -0.9305
 5831TIP3    H238909   2.034   4.186   3.961 -0.7772 -0.5125 -0.0908
 5832TIP3   OH238910   4.592   4.102  12.796 -0.0725 -0.2954 -0.2962
 5832TIP3    H138911   4.600   4.086  12.702  0.6059 -0.3084 -0.2427
 5832TIP3    H238912   4.501   4.126  12.808  0.2758  1.7566 -1.2774
 5833TIP3   OH238913   4.446   3.238   0.171 -0.4907  0.0163  0.3349
 5833TIP3    H138914   4.469   3.325   0.203  2.1479  0.7633 -2.9913
 5833TIP3    H238915   4.384   3.255   0.100  1.2441 -0.5765 -1.3918
 5834TIP3   OH238916   4.832   6.588   3.529 -0.3263  0.0503  0.2669
 5834TIP3    H138917   4.782   6.665   3.558  0.1588 -0.5704  2.9907
 5834TIP3    H238918   4.775   6.547   3.463 -2.1000  0.9344  1.1710
 5835TIP3   OH238919   2.044   5.699  11.988  0.1300  0.7268  0.6949
 5835TIP3    H138920   2.027   5.757  12.062  2.0633  2.1985  0.0834
 5835TIP3    H238921   2.039   5.755  11.911  0.2194 -0.3273 -0.1153
 5836TIP3   OH238922   2.753   5.765  17.001 -0.3115 -0.4522  0.4707
 5836TIP3    H138923   2.741   5.733  16.912  1.0380  0.0496  0.0875
 5836TIP3    H238924   2.673   5.814  17.021 -0.2376  0.2156 -0.8129
 5837TIP3   OH238925   5.520   6.304  11.634  0.1242  0.2393 -0.0840
 5837TIP3    H138926   5.496   6.214  11.612  1.2170 -0.4604  1.3993
 5837TIP3    H238927   5.451   6.358  11.594  0.0487 -1.1457 -1.9621
 5838TIP3   OH238928   3.561   4.911   4.936 -0.3720  0.4745 -0.2227
 5838TIP3    H138929   3.591   4.895   4.846  0.6949  1.0561  0.0147
 5838TIP3    H238930   3.523   4.828   4.963  0.0791  0.0279 -0.9202
 5839TIP3   OH238931   0.630   1.115  14.014 -0.7507  0.0030 -0.2958
 5839TIP3    H138932   0.663   1.126  14.103 -0.0938 -2.6060 -0.1289
 5839TIP3    H238933   0.671   1.185  13.964  0.9267 -0.0390  0.9578
 5840TIP3   OH238934   1.509   5.777   1.745 -0.0932 -0.2514  0.0478
 5840TIP3    H138935   1.575   5.719   1.783  0.4076  0.4077  0.2196
 5840TIP3    H238936   1.426   5.730   1.755  0.1163 -0.3691  1.3924
 5841TIP3   OH238937   3.118   4.019   2.430 -0.0413  0.2881  0.0096
 5841TIP3    H138938   3.155   3.952   2.488 -0.1730  0.0699 -0.1563
 5841TIP3    H238939   3.067   4.076   2.487  0.8229  0.7962  0.3015
 5842TIP3   OH238940   3.426   0.412  13.435  0.2105 -0.5724 -0.4179
 5842TIP3    H138941   3.433   0.341  13.371  0.7115 -0.6794 -0.2487
 5842TIP3    H238942   3.387   0.484  13.386 -0.0063 -0.8581 -0.6762
 5843TIP3   OH238943   3.830   2.321  12.903 -0.6450  0.1326 -0.4754
 5843TIP3    H138944   3.766   2.361  12.962 -0.8869  0.3121 -0.8587
 5843TIP3    H238945   3.867   2.249  12.954 -1.2051 -0.0197 -0.2787
 5844TIP3   OH238946   1.645   1.298   0.752  0.1103 -0.2166 -0.1293
 5844TIP3    H138947   1.565   1.247   0.754 -0.9835  1.4427  0.6657
 5844TIP3    H238948   1.658   1.319   0.659 -0.8680  0.2002 -0.1837
 5845TIP3   OH238949   2.178   2.904  14.902  0.0593 -0.0295  0.2857
 5845TIP3    H138950   2.231   2.849  14.960  2.2551  0.9921 -0.6483
 5845TIP3    H238951   2.150   2.844  14.832  1.8014 -0.1890 -0.3272
 5846TIP3   OH238952   0.813   5.030  17.234 -0.3829 -0.0496  0.0223
 5846TIP3    H138953   0.758   4.979  17.175  0.0758  0.1653 -0.6093
 5846TIP3    H238954   0.884   5.063  17.178  0.3129 -0.2139  0.7828
 5847TIP3   OH238955   3.361   5.117  17.212  0.0536  0.2464  0.0959
 5847TIP3    H138956   3.412   5.036  17.206  1.0214  0.9319 -1.5464
 5847TIP3    H238957   3.339   5.125  17.305  2.7191 -0.2591  0.8422
 5848TIP3   OH238958   2.603   4.608  13.345 -0.1472 -0.0222  0.7904
 5848TIP3    H138959   2.691   4.614  13.308 -0.8927 -0.4288 -1.1494
 5848TIP3    H238960   2.544   4.613  13.270 -1.6947 -3.2022  1.6244
 5849TIP3   OH238961   6.644   5.389  14.575 -0.0515  0.1552  0.4932
 5849TIP3    H138962   6.589   5.467  14.579  0.0817  0.3417 -0.6985
 5849TIP3    H238963   6.583   5.316  14.581 -0.2153  0.3422  1.2340
 5850TIP3   OH238964   2.175   2.116  10.586 -0.1642 -0.4661 -0.1100
 5850TIP3    H138965   2.177   2.111  10.491 -0.3764 -0.1856 -0.1326
 5850TIP3    H238966   2.120   2.043  10.614  0.4640 -0.9644 -0.1616
 5851TIP3   OH238967   4.505   3.166  12.811 -0.0431 -0.3305  0.0095
 5851TIP3    H138968   4.534   3.100  12.748  1.4813 -0.8604  1.1764
 5851TIP3    H238969   4.410   3.156  12.814 -0.0255 -1.1446 -1.2534
 5852TIP3   OH238970   1.042   6.148   2.894  0.3563 -0.4830 -0.3659
 5852TIP3    H138971   0.976   6.211   2.925  0.1092 -1.5551  1.4265
 5852TIP3    H238972   1.048   6.165   2.800  1.9725  3.7514  0.2827
 5853TIP3   OH238973   6.246   0.607   4.840 -0.0164 -0.2222 -0.5843
 5853TIP3    H138974   6.289   0.569   4.917 -1.4880  1.0351  0.9538
 5853TIP3    H238975   6.167   0.555   4.828 -0.8262  0.8242  0.0543
 5854TIP3   OH238976   0.216   3.240  11.478  0.1859  0.3084  0.1688
 5854TIP3    H138977   0.191   3.324  11.438 -0.8196  0.4189  0.9946
 5854TIP3    H238978   0.283   3.263  11.542  0.7390  0.3208 -0.4039
 5855TIP3   OH238979   6.246   0.509  11.064  0.1253  0.0402  0.0685
 5855TIP3    H138980   6.190   0.439  11.096  3.3012 -2.1051  1.4881
 5855TIP3    H238981   6.264   0.486  10.973  1.5670 -1.4145  0.6722
 5856TIP3   OH238982   6.707   4.787   0.496 -0.0897  0.2026  0.3362
 5856TIP3    H138983   6.715   4.767   0.590  1.7779  0.0216  0.1786
 5856TIP3    H238984   6.622   4.750   0.471  0.5150 -2.0958  1.4162
 5857TIP3   OH238985   0.659   3.484   4.118 -0.1632 -0.2353 -0.0944
 5857TIP3    H138986   0.718   3.411   4.134  1.4385  1.3405  1.6439
 5857TIP3    H238987   0.576   3.458   4.159  0.6707 -0.7145  1.3594
 5858TIP3   OH238988   6.575   5.026   5.041 -0.0238 -0.1961  0.0707
 5858TIP3    H138989   6.490   5.029   5.084 -0.8070 -2.4762 -1.1820
 5858TIP3    H238990   6.638   5.046   5.111 -1.5689  4.2454  0.5063
 5859TIP3   OH238991   6.714   1.199   5.953  0.0658 -0.2975 -0.9435
 5859TIP3    H138992   6.803   1.204   5.988 -0.8719  2.3274  1.4070
 5859TIP3    H238993   6.711   1.268   5.887 -0.5973  0.5958  0.0027
 5860TIP3   OH238994   2.176   5.397  13.561 -0.1003  0.3118 -0.7099
 5860TIP3    H138995   2.192   5.492  13.565  1.1689  0.1187 -0.7422
 5860TIP3    H238996   2.130   5.377  13.642 -1.4607  1.1345 -1.2486
 5861TIP3   OH238997   4.228   0.441   4.684 -0.0425  0.2269  0.4433
 5861TIP3    H138998   4.298   0.402   4.737  0.0719 -0.5272 -0.2424
 5861TIP3    H238999   4.149   0.392   4.708  0.1234 -0.5173 -0.5092
 5862TIP3   OH239000   5.925   1.483  17.055 -0.0523  0.4761 -0.1929
 5862TIP3    H139001   5.933   1.556  16.993 -0.9282  0.4119 -0.3902
 5862TIP3    H239002   5.905   1.407  16.999 -2.0714  0.6363  0.2416
 5863TIP3   OH239003   5.836   3.316  13.466 -0.0305 -0.2361 -0.4275
 5863TIP3    H139004   5.762   3.276  13.512  0.8356 -1.4732 -0.0287
 5863TIP3    H239005   5.848   3.400  13.509 -0.3238 -0.6369  0.4693
 5864TIP3   OH239006   0.699   1.929   5.314  0.1730  0.5187 -0.4807
 5864TIP3    H139007   0.776   1.986   5.308  1.2668 -0.8467 -0.0710
 5864TIP3    H239008   0.725   1.850   5.265 -0.8806 -0.0663 -0.1175
 5865TIP3   OH239009   2.066   5.953  10.917  0.5910  0.2165  0.4798
 5865TIP3    H139010   2.100   5.918  11.000  0.2424 -2.1820 -0.3309
 5865TIP3    H239011   1.973   5.968  10.934  0.8546  1.4208  1.0044
 5866TIP3   OH239012   5.668   0.483   3.995 -0.3020 -0.4438 -0.3239
 5866TIP3    H139013   5.591   0.540   3.991  0.1956  0.3589  0.8806
 5866TIP3    H239014   5.680   0.467   4.089  1.7418  0.5190 -0.3683
 5867TIP3   OH239015   4.135   2.760   0.984  0.2650  0.0543  0.3741
 5867TIP3    H139016   4.136   2.792   1.074  0.4374  0.7572  0.1306
 5867TIP3    H239017   4.117   2.838   0.931 -0.0110 -0.3807 -0.1885
 5868TIP3   OH239018   0.288   1.100  11.392 -0.2327 -0.0603  0.1496
 5868TIP3    H139019   0.226   1.126  11.460  1.3263 -0.0077  1.6145
 5868TIP3    H239020   0.373   1.126  11.426  0.6438 -0.2898 -1.7258
 5869TIP3   OH239021   1.927   5.724  13.665 -0.1239 -0.1795  0.3821
 5869TIP3    H139022   1.880   5.643  13.684  0.3117 -0.0908  1.9452
 5869TIP3    H239023   1.998   5.726  13.729  0.0754  1.2694  0.1348
 5870TIP3   OH239024   5.727   3.201   1.515 -0.3020  0.4494  0.6460
 5870TIP3    H139025   5.691   3.119   1.549  0.6477 -0.3300 -0.1403
 5870TIP3    H239026   5.822   3.188   1.517 -0.1642  1.1728 -0.3469
 5871TIP3   OH239027   6.432   3.611   1.808 -0.0969  0.0830  0.5653
 5871TIP3    H139028   6.338   3.614   1.824 -0.6455  0.7987 -2.2502
 5871TIP3    H239029   6.455   3.519   1.815 -0.9637 -0.0839  1.3990
 5872TIP3   OH239030   0.514   5.735   0.071 -0.6875 -0.1936 -0.3140
 5872TIP3    H139031   0.607   5.718   0.055 -0.7301  0.9244 -2.0450
 5872TIP3    H239032   0.512   5.804   0.136 -0.2545  0.4128 -0.9291
 5873TIP3   OH239033   6.758   6.692  11.849 -0.3363 -0.2018  0.1327
 5873TIP3    H139034   6.757   6.787  11.862 -0.7142  0.0709 -1.5939
 5873TIP3    H239035   6.672   6.673  11.810  0.6334 -0.8623 -1.8014
 5874TIP3   OH239036   4.058   0.701  13.562 -0.1082  0.7899 -0.5604
 5874TIP3    H139037   4.112   0.711  13.484  0.5440  1.1623 -0.0771
 5874TIP3    H239038   4.048   0.607  13.573 -2.0455  0.7033 -2.3053
 5875TIP3   OH239039   5.884   2.295   2.149 -0.3160  0.0983 -0.1610
 5875TIP3    H139040   5.815   2.239   2.184  0.3030 -1.1280 -0.8299
 5875TIP3    H239041   5.894   2.364   2.215 -0.7999 -0.8106  0.9103
 5876TIP3   OH239042   0.766   0.494  12.228 -0.5051  0.0772  0.5877
 5876TIP3    H139043   0.759   0.443  12.147 -1.9593 -0.4331  1.0123
 5876TIP3    H239044   0.825   0.565  12.205 -0.5762 -0.2744 -0.8201
 5877TIP3   OH239045   6.536   5.765  13.515 -0.3665 -0.0447 -0.1172
 5877TIP3    H139046   6.550   5.760  13.421  0.7350  0.5650 -0.0083
 5877TIP3    H239047   6.594   5.836  13.544 -2.8831  1.8409  0.6113
 5878TIP3   OH239048   6.199   4.444   4.008 -0.4120  0.1668 -0.5794
 5878TIP3    H139049   6.230   4.357   3.981 -1.8839  0.1089 -2.2384
 5878TIP3    H239050   6.276   4.485   4.047  0.4014 -1.7632 -0.0098
 5879TIP3   OH239051   6.499   3.504   2.649  0.3796  0.2500 -0.6106
 5879TIP3    H139052   6.580   3.486   2.697  1.2224  1.1522 -1.6391
 5879TIP3    H239053   6.441   3.544   2.714  0.4163 -1.1722  0.3530
 5880TIP3   OH239054   5.933   3.464  14.186  0.1538  0.3393 -0.2346
 5880TIP3    H139055   5.954   3.450  14.279 -0.7475 -0.6427 -0.1557
 5880TIP3    H239056   5.971   3.549  14.165  2.3241 -0.3887  0.4333
 5881TIP3   OH239057   5.874   0.501   2.544  0.3458 -0.3273  0.6769
 5881TIP3    H139058   5.906   0.558   2.614  1.7784  0.0293 -0.2241
 5881TIP3    H239059   5.947   0.443   2.524 -0.5125 -1.3660  0.4112
 5882TIP3   OH239060   1.926   2.259   3.546 -0.5022  0.3465  0.3670
 5882TIP3    H139061   1.867   2.262   3.470 -0.3702 -0.4137  0.2347
 5882TIP3    H239062   1.971   2.344   3.543  1.0663 -0.4693 -1.6676
 5883TIP3   OH239063   0.626   4.519  13.864 -0.2674  0.1050 -0.4707
 5883TIP3    H139064   0.614   4.510  13.769  1.8040 -0.8201 -0.7132
 5883TIP3    H239065   0.717   4.494  13.879 -0.7321 -0.4572  1.8711
 5884TIP3   OH239066   0.192   3.278   3.644  0.6961 -0.5195  0.0590
 5884TIP3    H139067   0.132   3.295   3.717  2.4085 -0.3576  1.4992
 5884TIP3    H239068   0.198   3.183   3.640  3.2117 -0.6045  2.5214
 5885TIP3   OH239069   5.779   3.588   4.285 -0.1791 -0.1463 -0.5796
 5885TIP3    H139070   5.853   3.543   4.243  1.1822 -0.5381  2.0213
 5885TIP3    H239071   5.806   3.679   4.290 -0.5250 -0.0225 -0.8925
 5886TIP3   OH239072   5.569   1.425   5.165  0.1667  0.2444  0.1000
 5886TIP3    H139073   5.604   1.350   5.118  0.4010 -0.2132  0.9885
 5886TIP3    H239074   5.474   1.413   5.163  0.1910  0.0742  0.0027
 5887TIP3   OH239075   1.607   0.669   5.332  0.5625 -0.2194 -0.1592
 5887TIP3    H139076   1.659   0.602   5.377 -0.3990  0.5170  2.2377
 5887TIP3    H239077   1.661   0.747   5.334 -0.4933  0.5417  2.3173
 5888TIP3   OH239078   5.561   0.408   2.906 -0.7658 -0.0551 -0.0125
 5888TIP3    H139079   5.611   0.408   2.824 -1.8697  3.2725 -0.8657
 5888TIP3    H239080   5.619   0.365   2.969  1.5836  0.3037 -1.7722
 5889TIP3   OH239081   5.095   5.150   2.658 -0.2012 -0.4742 -0.4294
 5889TIP3    H139082   5.042   5.087   2.706  2.3430 -1.3583  1.4635
 5889TIP3    H239083   5.085   5.232   2.706 -1.4922 -0.0426 -1.3785
 5890TIP3   OH239084   0.512   4.740   3.637  0.0253  0.0156 -0.6365
 5890TIP3    H139085   0.431   4.724   3.685 -0.6413 -1.7460 -2.2193
 5890TIP3    H239086   0.498   4.824   3.594 -0.6218  0.1313 -0.2127
 5891TIP3   OH239087   1.985   1.819   1.731 -0.2645 -0.0019 -0.2372
 5891TIP3    H139088   1.942   1.903   1.715 -0.0685  0.0298 -0.6104
 5891TIP3    H239089   2.078   1.840   1.728 -0.1801  0.1810  1.8291
 5892TIP3   OH239090   1.811   3.299   4.092  0.6941  0.2518 -0.1001
 5892TIP3    H139091   1.828   3.392   4.107  2.1839  0.0050 -0.0980
 5892TIP3    H239092   1.892   3.266   4.053  0.3089 -1.1160  0.2056
 5893TIP3   OH239093   6.673   2.557   1.220 -0.1532  0.3810 -0.3083
 5893TIP3    H139094   6.622   2.537   1.142  2.3368  0.1643 -2.0048
 5893TIP3    H239095   6.720   2.637   1.198  1.6393 -0.4181  0.3861
 5894TIP3   OH239096   4.633   3.184   3.011 -0.9784 -0.2033 -0.5442
 5894TIP3    H139097   4.678   3.128   2.948 -1.7212 -1.1306 -0.2836
 5894TIP3    H239098   4.561   3.129   3.045 -0.6827  0.2998  0.9951
 5895TIP3   OH239099   1.443   4.540  13.992 -0.4612  0.0854  0.0791
 5895TIP3    H139100   1.451   4.520  13.899  3.6638  0.4171  0.1652
 5895TIP3    H239101   1.442   4.454  14.035  4.3504 -0.3480 -0.1564
 5896TIP3   OH239102   3.254   4.197   0.429  0.2332  0.6401 -0.0821
 5896TIP3    H139103   3.286   4.266   0.371  2.0440 -0.8202 -0.9339
 5896TIP3    H239104   3.299   4.212   0.512  0.0933  0.8923 -0.0529
 5897TIP3   OH239105   5.802   2.947  15.217  0.3398  0.4759  0.0404
 5897TIP3    H139106   5.893   2.962  15.243 -0.0561  0.7547  1.3715
 5897TIP3    H239107   5.795   2.852  15.209  0.5805  0.4070  0.6095
 5898TIP3   OH239108   0.278   1.655  15.422 -0.0130  0.6484  0.1461
 5898TIP3    H139109   0.256   1.730  15.367  0.3427  0.3075 -0.4729
 5898TIP3    H239110   0.374   1.658  15.430 -0.0518  0.6259  0.6453
 5899TIP3   OH239111   2.579   1.187  14.688  0.3022 -0.1104 -0.4676
 5899TIP3    H139112   2.618   1.100  14.702 -0.2688 -0.4713 -1.0333
 5899TIP3    H239113   2.512   1.172  14.621  0.8328  0.9581 -1.2631
 5900TIP3   OH239114   1.452   4.741  10.954 -0.0921 -0.6932 -0.0595
 5900TIP3    H139115   1.400   4.746  11.034 -0.2934  1.3486 -0.2812
 5900TIP3    H239116   1.501   4.659  10.963 -0.4551 -0.7435  1.9252
 5901TIP3   OH239117   0.107   3.999   3.773 -0.5106 -0.0571 -0.0108
 5901TIP3    H139118   0.051   3.921   3.777 -0.2271 -0.2779 -0.1920
 5901TIP3    H239119   0.126   4.021   3.864  3.2634 -3.0622  0.2138
 5902TIP3   OH239120   3.524   0.044   2.029  0.0237  0.1559 -0.1405
 5902TIP3    H139121   3.457   0.004   1.974  0.5962  0.3556 -0.9988
 5902TIP3    H239122   3.592  -0.022   2.037  1.0242  0.9363 -1.6550
 5903TIP3   OH239123   4.048   2.976   2.369 -0.3938  0.2495  0.2448
 5903TIP3    H139124   3.959   2.949   2.390 -0.3343 -0.0833  0.0708
 5903TIP3    H239125   4.046   2.997   2.276  0.5077 -3.1751 -0.6817
 5904TIP3   OH239126   6.524   4.469   4.643 -0.3477  0.1659  0.7715
 5904TIP3    H139127   6.565   4.555   4.652 -0.6899  0.4375 -0.1493
 5904TIP3    H239128   6.590   4.416   4.598  0.4153 -0.4843  2.5676
 5905TIP3   OH239129   6.775   4.371   2.266  0.4143  0.3141 -0.0789
 5905TIP3    H139130   6.843   4.313   2.301  0.0374 -0.9617 -1.3446
 5905TIP3    H239131   6.815   4.411   2.189  0.4266  1.2021  0.3800
 5906TIP3   OH239132   1.419   3.699  15.964 -0.0130 -0.5001  0.1997
 5906TIP3    H139133   1.437   3.790  15.942  1.3565 -1.0494 -1.1114
 5906TIP3    H239134   1.432   3.694  16.059  2.9029  0.0717 -0.0708
 5907TIP3   OH239135   0.193   0.446  12.377  0.4124 -0.1478 -0.3895
 5907TIP3    H139136   0.135   0.370  12.377 -1.2208  1.0435  0.2956
 5907TIP3    H239137   0.231   0.447  12.465  0.7318 -0.3863 -0.5238
 5908TIP3   OH239138   2.434   4.175  11.715 -0.2629  0.0238 -0.2157
 5908TIP3    H139139   2.428   4.264  11.679  1.1393 -0.3199 -1.3778
 5908TIP3    H239140   2.356   4.131  11.681 -0.7977  0.7103  0.0998
 5909TIP3   OH239141   3.533   1.428  16.274 -0.3399  0.5874  0.5967
 5909TIP3    H139142   3.504   1.464  16.358 -0.8015  0.7114  0.3877
 5909TIP3    H239143   3.489   1.343  16.268  0.4518  0.1469  0.9176
 5910TIP3   OH239144   2.564   0.982  12.526  0.1547 -0.6679 -0.1317
 5910TIP3    H139145   2.630   0.914  12.540  1.0350 -0.1960 -1.6992
 5910TIP3    H239146   2.598   1.033  12.453 -0.9034  0.9487  0.4527
 5911TIP3   OH239147   3.388   0.913   0.507  0.1096  0.2625 -0.0093
 5911TIP3    H139148   3.304   0.927   0.464 -0.0201  0.0185  0.1614
 5911TIP3    H239149   3.385   0.969   0.585  0.7929  1.5701 -0.8892
 5912TIP3   OH239150   5.548   6.729   2.658  0.2429 -0.1515 -0.1236
 5912TIP3    H139151   5.607   6.690   2.593  1.6099  0.9405  0.4190
 5912TIP3    H239152   5.606   6.768   2.723 -0.9063 -3.5617  3.3883
 5913TIP3   OH239153   2.737   1.740  15.159  0.3621  0.3822 -0.2003
 5913TIP3    H139154   2.663   1.779  15.206  0.3538  0.1843 -0.0470
 5913TIP3    H239155   2.771   1.812  15.105  0.2058  0.5390 -0.0938
 5914TIP3   OH239156   2.381   1.269   0.407 -0.0136  0.7387  0.2346
 5914TIP3    H139157   2.471   1.300   0.407 -0.1851  1.2407  0.2403
 5914TIP3    H239158   2.380   1.198   0.343 -0.1709  2.3741 -1.6720
 5915TIP3   OH239159   2.596   2.017  15.924 -0.1302 -0.3236 -0.0298
 5915TIP3    H139160   2.537   2.081  15.886 -0.2328 -0.6644 -0.4452
 5915TIP3    H239161   2.639   1.975  15.850  1.5498  0.7472  0.2721
 5916TIP3   OH239162   4.403   2.749   0.866  0.2408 -0.5317  0.0831
 5916TIP3    H139163   4.376   2.804   0.792 -0.3271 -0.3935  0.3944
 5916TIP3    H239164   4.322   2.713   0.901  0.5147 -0.6552  0.6026
 5917TIP3   OH239165   6.651   3.030   4.666 -0.4258 -0.2585  0.2399
 5917TIP3    H139166   6.689   3.072   4.589 -0.1135  1.6215  1.3516
 5917TIP3    H239167   6.710   2.958   4.686  1.0260  0.8786  0.2441
 5918TIP3   OH239168   4.661   1.899  11.641  0.4257 -0.3654  0.2074
 5918TIP3    H139169   4.702   1.976  11.602  1.2670  0.2054  2.0986
 5918TIP3    H239170   4.569   1.905  11.616  0.9433 -0.1966 -1.8448
 5919TIP3   OH239171   4.024   3.117  16.897  0.3017  0.5714  0.1046
 5919TIP3    H139172   4.009   3.052  16.966  1.0902 -0.8549 -0.9948
 5919TIP3    H239173   3.958   3.184  16.912 -1.8980 -1.4680  0.1410
 5920TIP3   OH239174   1.930   1.716  11.781 -0.3463  0.0328  0.5410
 5920TIP3    H139175   1.914   1.805  11.751 -0.8243 -0.5005 -0.8873
 5920TIP3    H239176   2.018   1.696  11.750 -0.3231 -0.0635  0.6684
 5921TIP3   OH239177   2.961   0.344  15.835 -0.4454 -0.4951 -0.0731
 5921TIP3    H139178   2.954   0.257  15.875 -0.2520 -0.4391  0.0870
 5921TIP3    H239179   2.917   0.336  15.751 -1.8219 -0.3257  0.6002
 5922TIP3   OH239180   4.215   5.021  12.795 -0.0109 -0.1724 -0.5342
 5922TIP3    H139181   4.289   5.078  12.818 -0.4616 -0.2229  1.2314
 5922TIP3    H239182   4.254   4.934  12.786  0.4756  0.1615 -1.9320
 5923TIP3   OH239183   0.015   1.374  10.839 -0.4113 -0.7664  0.0556
 5923TIP3    H139184   0.026   1.436  10.767 -0.9852 -1.6973 -0.8620
 5923TIP3    H239185  -0.080   1.358  10.843 -0.7480  1.1903  2.7076
 5924TIP3   OH239186   2.277   1.435   0.931  0.3588 -0.3729  0.6602
 5924TIP3    H139187   2.260   1.410   0.840  0.0307 -1.2611  0.9439
 5924TIP3    H239188   2.257   1.355   0.981  1.0925 -0.0785  1.4544
 5925TIP3   OH239189   3.512   0.390   5.047  0.2658 -0.5439 -0.0382
 5925TIP3    H139190   3.500   0.447   5.123  2.6570  0.5280 -0.3915
 5925TIP3    H239191   3.531   0.450   4.974 -1.9658 -1.5349 -1.5668
 5926TIP3   OH239192   0.135   5.183  15.294  0.0331 -0.2774  0.1909
 5926TIP3    H139193   0.193   5.108  15.287  0.8255  0.3240  0.1586
 5926TIP3    H239194   0.047   5.146  15.294  0.4029 -1.1740 -0.1610
 5927TIP3   OH239195   4.517   1.448  14.977  0.1417  0.2333  0.6335
 5927TIP3    H139196   4.559   1.386  14.918  1.6523  0.8651  1.0061
 5927TIP3    H239197   4.445   1.399  15.016  1.4304 -1.3652  1.0920
 5928TIP3   OH239198   1.651   0.448  12.722  0.0650  0.2015  0.4419
 5928TIP3    H139199   1.646   0.541  12.744  0.2880 -0.1809  2.2425
 5928TIP3    H239200   1.598   0.440  12.643  0.7848  1.9973 -0.3004
 5929TIP3   OH239201   1.681   5.661  14.676 -0.2876 -0.5268  0.0136
 5929TIP3    H139202   1.739   5.711  14.620 -2.3453 -1.1717 -2.9415
 5929TIP3    H239203   1.740   5.612  14.734  1.9959  0.3231 -1.4463
 5930TIP3   OH239204   3.232   1.487   0.968  0.0788  0.2851  0.3881
 5930TIP3    H139205   3.250   1.438   1.048 -1.0381 -0.2490  0.3383
 5930TIP3    H239206   3.223   1.420   0.900  0.7072  0.7153 -0.1287
 5931TIP3   OH239207   6.160   0.809  13.276 -0.1090  0.1676  0.1654
 5931TIP3    H139208   6.135   0.861  13.352 -0.3335  1.3544 -0.7061
 5931TIP3    H239209   6.145   0.866  13.201 -0.4425 -1.1749 -0.8323
 5932TIP3   OH239210   2.500   4.511   1.370  0.4940  0.1327  0.0128
 5932TIP3    H139211   2.466   4.550   1.289  0.5065 -0.2553 -0.1771
 5932TIP3    H239212   2.443   4.436   1.387  0.3228  0.3678  0.5100
 5933TIP3   OH239213   4.476   2.336   0.277  0.2577  0.6156 -0.4332
 5933TIP3    H139214   4.437   2.390   0.345 -0.0492  2.2788 -1.8575
 5933TIP3    H239215   4.570   2.342   0.292  0.1785  0.7013  0.0285
 5934TIP3   OH239216   0.728   6.001   5.888  0.5177 -0.0168  0.3439
 5934TIP3    H139217   0.638   6.021   5.862  0.0452 -1.6154  0.6458
 5934TIP3    H239218   0.721   5.918   5.935  2.3870 -1.0722 -1.1117
 5935TIP3   OH239219   1.475   3.253  16.951 -0.1600  0.0666  0.2627
 5935TIP3    H139220   1.477   3.253  16.855  0.2627 -2.2842  0.2005
 5935TIP3    H239221   1.536   3.322  16.976 -1.3510  1.6991 -1.1168
 5936TIP3   OH239222   6.665   3.321  10.555 -0.3524 -0.1798 -0.4250
 5936TIP3    H139223   6.755   3.311  10.525 -0.6055 -0.4607 -1.1035
 5936TIP3    H239224   6.648   3.242  10.607  0.1026  0.3325  0.5455
 5937TIP3   OH239225   4.489   3.450  10.791 -0.0021  0.2942  0.0139
 5937TIP3    H139226   4.393   3.445  10.797 -0.0590  0.4219 -0.6401
 5937TIP3    H239227   4.520   3.423  10.877 -0.5911 -0.8518 -0.1179
 5938TIP3   OH239228   4.684   2.831  13.270  0.1740 -0.2718 -0.5153
 5938TIP3    H139229   4.670   2.851  13.363 -0.1562 -2.3274 -0.0833
 5938TIP3    H239230   4.754   2.891  13.243 -0.6683  1.3230  0.6695
 5939TIP3   OH239231   0.258   0.462  14.180 -0.2164 -0.0228 -0.4560
 5939TIP3    H139232   0.233   0.437  14.269 -0.4976  1.9819  0.0965
 5939TIP3    H239233   0.325   0.529  14.192  0.6405 -0.6019 -1.8062
 5940TIP3   OH239234   2.068   0.327  15.859 -0.0484  0.4700 -0.0392
 5940TIP3    H139235   2.018   0.404  15.832  0.3175  0.3922 -1.0030
 5940TIP3    H239236   2.158   0.347  15.832  0.5744  0.8193  2.0923
 5941TIP3   OH239237   6.139   6.160   5.492  0.0136  0.0900 -0.1669
 5941TIP3    H139238   6.128   6.067   5.468 -1.4210 -0.2711  1.6432
 5941TIP3    H239239   6.065   6.204   5.450  1.0439  0.5727 -1.5496
 5942TIP3   OH239240   1.290   4.746  15.258  0.6752  0.7925  0.0205
 5942TIP3    H139241   1.337   4.664  15.241 -1.3412 -0.9954  2.3101
 5942TIP3    H239242   1.264   4.777  15.171  2.7674 -0.1203 -1.0180
 5943TIP3   OH239243   5.216   2.071   3.699 -0.0060  0.1404  0.5302
 5943TIP3    H139244   5.269   2.150   3.696  0.5011 -0.2189 -1.7400
 5943TIP3    H239245   5.154   2.080   3.627 -0.4487 -1.1862  0.7057
 5944TIP3   OH239246   2.481   0.167  14.652  0.9132  0.0837 -0.2538
 5944TIP3    H139247   2.499   0.130  14.566  2.1317  1.5039 -0.6507
 5944TIP3    H239248   2.562   0.152  14.702  0.9600  1.0241 -0.0221
 5945TIP3   OH239249   2.247   6.449   1.014  0.2058 -0.1108  0.5667
 5945TIP3    H139250   2.208   6.369   1.050  0.6129 -0.3149  0.5587
 5945TIP3    H239251   2.205   6.520   1.062 -0.7070 -0.2948  0.0471
 5946TIP3   OH239252   4.217   4.906  14.815 -0.3735 -0.0376  0.5394
 5946TIP3    H139253   4.273   4.980  14.839 -0.5275  0.4774 -0.6600
 5946TIP3    H239254   4.268   4.857  14.751  0.2138 -1.6540  2.1606
 5947TIP3   OH239255   2.470   6.544  15.828  0.4219 -0.8150 -0.1591
 5947TIP3    H139256   2.484   6.485  15.901 -1.8397 -2.1674 -0.7055
 5947TIP3    H239257   2.430   6.489  15.760 -0.8346  1.1106 -1.0818
 5948TIP3   OH239258   1.700   0.199  12.839 -0.1791  0.6095  0.8503
 5948TIP3    H139259   1.744   0.217  12.922 -0.4547 -0.2209  1.1903
 5948TIP3    H239260   1.680   0.286  12.803  0.7016  0.9840  1.2328
 5949TIP3   OH239261   2.144   3.377  15.564  0.7253 -0.2294  0.7864
 5949TIP3    H139262   2.068   3.356  15.619  1.6042 -1.0124  1.7387
 5949TIP3    H239263   2.180   3.456  15.603  0.2935  0.2763  0.1931
 5950TIP3   OH239264   3.038   0.990   0.584 -0.2337  0.5464  0.2094
 5950TIP3    H139265   3.029   1.085   0.576  0.4928  0.5210 -1.3206
 5950TIP3    H239266   2.965   0.963   0.640 -1.4666  1.8228 -0.7065
 5951TIP3   OH239267   4.463   4.161   2.666 -0.0424 -0.0797 -0.2938
 5951TIP3    H139268   4.521   4.187   2.738  1.3602  1.2180 -1.8003
 5951TIP3    H239269   4.375   4.184   2.697  0.5710  0.9260  0.8155
 5952TIP3   OH239270   2.793   0.673  13.703  0.1818  0.3065 -0.1438
 5952TIP3    H139271   2.833   0.636  13.625  0.7008  0.2408  0.1524
 5952TIP3    H239272   2.859   0.730  13.741 -0.1862  0.6041  0.0638
 5953TIP3   OH239273   3.634   3.860   1.081 -0.1417 -0.6235  0.1754
 5953TIP3    H139274   3.688   3.781   1.077 -0.2353 -0.7085  0.5705
 5953TIP3    H239275   3.695   3.929   1.106 -0.2927 -0.8020  1.0791
 5954TIP3   OH239276   5.313   4.956  13.733 -0.3259  0.1128  0.5830
 5954TIP3    H139277   5.381   5.013  13.697 -0.6100  1.5606  2.1829
 5954TIP3    H239278   5.351   4.922  13.814 -0.1017 -2.2036 -0.4178
 5955TIP3   OH239279   5.906   5.200   2.496  0.1089 -0.1116  0.2792
 5955TIP3    H139280   5.910   5.137   2.425  0.4042 -1.6320  1.5860
 5955TIP3    H239281   5.969   5.267   2.472  1.7331 -1.6539  0.0605
 5956TIP3   OH239282   3.975   6.075  12.376  0.0789 -0.5710 -0.1200
 5956TIP3    H139283   3.950   6.079  12.284  0.1476  1.0238 -0.0990
 5956TIP3    H239284   3.893   6.087  12.424 -0.1555 -2.6800  0.0729
 5957TIP3   OH239285   2.038   1.287  15.972 -0.0921 -0.3670  0.1433
 5957TIP3    H139286   2.002   1.303  16.059 -0.5715  0.2376 -0.1647
 5957TIP3    H239287   2.127   1.320  15.976 -0.4834  0.7337  0.0682
 5958TIP3   OH239288   0.064   2.195  15.927  0.1317  0.7543  0.0840
 5958TIP3    H139289   0.135   2.148  15.885  0.0286  3.0203 -2.9438
 5958TIP3    H239290   0.106   2.271  15.969 -0.2700  0.9095  0.2164
 5959TIP3   OH239291   5.429   0.714   1.978  0.3049  0.1889  0.0703
 5959TIP3    H139292   5.346   0.712   2.025 -0.1909 -1.4776 -0.8153
 5959TIP3    H239293   5.477   0.787   2.018 -0.6563 -0.2456  2.1651
 5960TIP3   OH239294   6.284   0.044   4.544  0.1381 -0.3421 -0.1395
 5960TIP3    H139295   6.235   0.111   4.592  1.7234  1.3272 -0.7390
 5960TIP3    H239296   6.245   0.043   4.457  2.7033  3.0007 -1.5423
 5961TIP3   OH239297   2.285   6.035  12.611  0.1242  0.7237  0.1073
 5961TIP3    H139298   2.362   6.071  12.654  0.1497  0.7420  0.0454
 5961TIP3    H239299   2.217   6.102  12.622 -1.0487 -0.7607  3.5148
 5962TIP3   OH239300   1.337   3.678   3.681 -0.0337 -0.1447 -0.0884
 5962TIP3    H139301   1.419   3.657   3.726  0.5308  0.9870 -0.5532
 5962TIP3    H239302   1.292   3.739   3.740  0.6724  1.2816 -1.0010
 5963TIP3   OH239303   0.390   3.978  13.299 -0.5669  0.2829  0.3788
 5963TIP3    H139304   0.483   3.967  13.279 -1.4438 -2.2375 -3.4032
 5963TIP3    H239305   0.373   3.917  13.370  0.2439 -1.4366 -0.8331
 5964TIP3   OH239306   0.143   1.612   3.111  0.0408  0.2631  0.3356
 5964TIP3    H139307   0.168   1.672   3.041 -0.3864 -0.6582 -0.6406
 5964TIP3    H239308   0.068   1.653   3.152 -1.7292 -0.6002 -1.8110
 5965TIP3   OH239309   5.571   6.357  12.862  0.0511  0.2090 -0.0565
 5965TIP3    H139310   5.540   6.266  12.867  1.2308 -0.1628  1.9253
 5965TIP3    H239311   5.501   6.404  12.816 -1.3591 -1.4010  0.3196
 5966TIP3   OH239312   4.390   0.338   4.316  0.0328 -0.4059  0.1986
 5966TIP3    H139313   4.392   0.408   4.381 -0.6921  1.3666 -1.5801
 5966TIP3    H239314   4.297   0.315   4.308 -0.2317  1.1058 -1.8497
 5967TIP3   OH239315   0.741   4.651   6.477  0.6546  0.7718 -0.1611
 5967TIP3    H139316   0.738   4.646   6.381 -1.4981 -2.8955 -0.0693
 5967TIP3    H239317   0.649   4.645   6.504  1.2878  0.7079  2.1771
 5968TIP3   OH239318   3.385   6.001   0.963  0.4156 -0.0826  0.4518
 5968TIP3    H139319   3.461   5.968   0.915  0.8696  0.0646  1.0455
 5968TIP3    H239320   3.407   6.093   0.981  0.1338 -0.0614  0.6917
 5969TIP3   OH239321   2.892   1.514  16.973  0.4024  0.2022  0.0841
 5969TIP3    H139322   2.978   1.553  16.991  0.5748 -0.6772  1.3171
 5969TIP3    H239323   2.909   1.420  16.968 -0.5626 -0.0312  0.8926
 5970TIP3   OH239324   2.600   1.659   3.594  0.8056  0.1315 -0.5188
 5970TIP3    H139325   2.661   1.628   3.528  0.3108 -0.4791 -0.6926
 5970TIP3    H239326   2.616   1.754   3.599  0.1663  0.3559 -2.2267
 5971TIP3   OH239327   2.262   3.662  16.795  0.4261  0.3738 -0.0677
 5971TIP3    H139328   2.199   3.726  16.828  1.3759  1.1717  0.2435
 5971TIP3    H239329   2.339   3.714  16.771  0.1057 -0.2624 -2.7553
 5972TIP3   OH239330   2.116   2.520   2.562 -0.1344  0.5615 -0.3183
 5972TIP3    H139331   2.023   2.533   2.541  0.0215  0.2796 -1.2240
 5972TIP3    H239332   2.150   2.469   2.488  1.2840  2.6884 -1.2216
 5973TIP3   OH239333   2.757   5.450  15.267  0.3872  0.5933 -0.0079
 5973TIP3    H139334   2.813   5.472  15.192  0.1965 -1.2295 -0.7246
 5973TIP3    H239335   2.818   5.422  15.335  0.4420  0.1374 -0.2420
 5974TIP3   OH239336   5.384   4.363  11.956 -0.4551 -0.1643  0.3027
 5974TIP3    H139337   5.383   4.302  12.029  1.3911 -0.0239  0.4932
 5974TIP3    H239338   5.453   4.426  11.977 -1.6704  1.4815 -0.3179
 5975TIP3   OH239339   5.673   3.882   4.894  0.0001  0.2321 -0.0517
 5975TIP3    H139340   5.593   3.839   4.865 -1.0304  1.2070  1.2023
 5975TIP3    H239341   5.714   3.819   4.954 -0.6056  0.3012  0.4430
 5976TIP3   OH239342   4.882   5.696   4.494 -1.2553 -0.2848  0.4621
 5976TIP3    H139343   4.914   5.635   4.561 -3.0061 -1.3508  0.3760
 5976TIP3    H239344   4.805   5.737   4.534 -0.6695  1.1862  0.1401
 5977TIP3   OH239345   6.768   1.413   0.168 -0.3345  1.0156  0.1780
 5977TIP3    H139346   6.793   1.461   0.089  1.4264 -0.2745 -0.0925
 5977TIP3    H239347   6.803   1.465   0.240 -0.8208  1.5205  0.0596
 5978TIP3   OH239348   3.356   2.758   3.308 -0.2766 -0.3054 -0.0490
 5978TIP3    H139349   3.417   2.764   3.234  0.4381 -1.4471  0.4155
 5978TIP3    H239350   3.378   2.833   3.363  1.0526 -0.9472  0.3358
 5979TIP3   OH239351   2.678   4.989   0.900 -0.7850 -0.2199 -0.3220
 5979TIP3    H139352   2.674   5.026   0.988 -0.4555 -0.3446 -0.2528
 5979TIP3    H239353   2.770   4.998   0.875 -0.8745 -0.2010 -0.6453
 5980TIP3   OH239354   2.419   0.810  12.338  0.1124 -0.5035  0.0077
 5980TIP3    H139355   2.438   0.883  12.396 -1.8255  0.0662 -0.0090
 5980TIP3    H239356   2.479   0.741  12.365 -1.3489 -0.6187  3.3820
 5981TIP3   OH239357   0.356   0.905   1.925 -0.1186 -0.2159  0.0901
 5981TIP3    H139358   0.372   0.964   1.852 -0.2234 -1.2467 -0.7928
 5981TIP3    H239359   0.364   0.960   2.003  0.8878  0.7260 -0.6447
 5982TIP3   OH239360   1.536   0.073  13.966  0.2403  0.4863 -0.0101
 5982TIP3    H139361   1.555   0.150  13.913  0.9651 -1.1665 -2.3085
 5982TIP3    H239362   1.618   0.056  14.013 -0.5641  2.2662  2.2275
 5983TIP3   OH239363   1.099   2.103   0.676  0.3473  0.1145 -0.2389
 5983TIP3    H139364   1.176   2.112   0.619  1.3594 -2.8989  0.4727
 5983TIP3    H239365   1.030   2.075   0.616  0.6744 -0.3362 -0.4157
 5984TIP3   OH239366   5.620   4.015  17.085  0.0629  0.3741  0.0991
 5984TIP3    H139367   5.663   4.015  17.000 -2.3374  0.7266 -1.1902
 5984TIP3    H239368   5.537   4.062  17.071 -1.6600 -1.8563  1.9369
 5985TIP3   OH239369   1.481   4.958  16.395 -0.0523 -0.2094  0.0234
 5985TIP3    H139370   1.406   5.012  16.370 -0.8178 -0.5687  1.4335
 5985TIP3    H239371   1.478   4.884  16.335 -1.2807 -0.5903  0.5138
 5986TIP3   OH239372   1.029   1.028  17.023 -0.5821 -0.0514  0.2376
 5986TIP3    H139373   0.973   1.055  16.950 -1.6091 -0.6174  0.7868
 5986TIP3    H239374   1.001   0.939  17.043  1.6222 -0.9697 -0.4706
 5987TIP3   OH239375   0.092   4.383   3.989  0.5223  0.0813 -0.3287
 5987TIP3    H139376   0.152   4.380   3.915  0.7602 -0.1955 -0.1292
 5987TIP3    H239377   0.096   4.474   4.020 -0.1518  0.3962 -1.1112
 5988TIP3   OH239378   5.382   0.995  11.894 -0.4241  0.2082 -0.4538
 5988TIP3    H139379   5.372   1.050  11.971 -0.7217  0.9112 -0.9740
 5988TIP3    H239380   5.296   0.954  11.883 -0.8828  1.3151 -1.2778
 5989TIP3   OH239381   1.643   2.555   0.572  0.0245  0.1267  0.2916
 5989TIP3    H139382   1.575   2.525   0.513  0.7358 -0.8480 -0.0614
 5989TIP3    H239383   1.724   2.516   0.538  0.5184 -0.1111  1.6369
 5990TIP3   OH239384   2.503   1.044  14.289 -0.1375 -0.4330 -0.4705
 5990TIP3    H139385   2.596   1.058  14.275  0.0477 -1.5319 -0.4136
 5990TIP3    H239386   2.470   1.129  14.319  1.0218 -0.2859  0.4601
 5991TIP3   OH239387   1.474   0.360  13.482  0.2169 -0.6488 -0.3308
 5991TIP3    H139388   1.462   0.282  13.429 -0.3227 -1.0202  0.3256
 5991TIP3    H239389   1.387   0.381  13.514  0.2792  0.5020 -0.8755
 5992TIP3   OH239390   3.167   0.984   3.551 -0.4195  0.0303  0.4122
 5992TIP3    H139391   3.254   0.947   3.537 -0.4454 -0.4235  1.3382
 5992TIP3    H239392   3.145   0.960   3.641 -1.3053  0.5491  0.3499
 5993TIP3   OH239393   0.663   2.543   6.191  0.1559  0.3315 -0.2106
 5993TIP3    H139394   0.572   2.569   6.179 -0.4946 -0.5654  2.1505
 5993TIP3    H239395   0.675   2.469   6.132 -0.9570 -0.1451  0.1419
 5994TIP3   OH239396   4.551   3.169   4.359  0.0973 -0.0563  0.2034
 5994TIP3    H139397   4.477   3.164   4.419 -1.1747 -1.7144 -1.4093
 5994TIP3    H239398   4.529   3.240   4.298 -1.0418 -1.6220 -1.2944
 5995TIP3   OH239399   3.446   4.902   0.508 -0.1269  0.7814  0.2872
 5995TIP3    H139400   3.481   4.988   0.483  2.8084 -0.0703  1.0996
 5995TIP3    H239401   3.420   4.913   0.600  1.8390  0.4363  0.9290
 5996TIP3   OH239402   2.511   3.784  13.988 -0.5075 -0.2346 -0.4283
 5996TIP3    H139403   2.539   3.704  14.033 -1.0927 -0.2763 -0.1315
 5996TIP3    H239404   2.519   3.853  14.054  0.8148  0.1156 -0.9275
 5997TIP3   OH239405   5.046   2.919  12.934  0.3095  0.8199 -1.3781
 5997TIP3    H139406   5.120   2.925  12.873  0.1057  0.7883 -1.6336
 5997TIP3    H239407   4.969   2.934  12.879  0.1615  1.4380 -1.0122
 5998TIP3   OH239408   1.926   1.807  14.835  0.2489 -0.5344  0.3105
 5998TIP3    H139409   1.994   1.785  14.898  1.7482  0.9646 -0.7058
 5998TIP3    H239410   1.910   1.726  14.787  2.0626 -0.6940 -0.0873
 5999TIP3   OH239411   3.398   3.525  11.791  0.4533  0.2111  0.4782
 5999TIP3    H139412   3.443   3.511  11.874  0.1323 -0.0905  0.6044
 5999TIP3    H239413   3.390   3.620  11.783 -0.0308  0.2260  1.0739
 6000TIP3   OH239414   2.572   5.935  16.278  0.6219  0.1497 -0.2699
 6000TIP3    H139415   2.664   5.963  16.278  0.5856  0.3029 -1.2381
 6000TIP3    H239416   2.527   6.002  16.330  0.9419  0.5049 -0.4431
 6001TIP3   OH239417   1.297   1.296   3.659 -0.6192 -0.7713 -0.1692
 6001TIP3    H139418   1.288   1.234   3.586 -3.7337 -1.5383  0.7051
 6001TIP3    H239419   1.284   1.382   3.619 -1.3065 -1.1049 -0.6919
 6002TIP3   OH239420   3.076   0.012   3.152  0.3110  0.3825 -0.8861
 6002TIP3    H139421   3.142  -0.041   3.108  0.3675  0.3022 -0.7065
 6002TIP3    H239422   3.015   0.039   3.083  0.7187  0.7373 -1.1096
 6003TIP3   OH239423   4.122   4.249  16.756  0.4124  0.0749  0.0398
 6003TIP3    H139424   4.138   4.155  16.750  2.0568  0.2687  0.7495
 6003TIP3    H239425   4.191   4.289  16.703 -1.0612  0.8710 -1.3485
 6004TIP3   OH239426   0.162   4.888   4.208 -0.5577  0.3236  0.0964
 6004TIP3    H139427   0.090   4.905   4.268  0.2711  1.7816  0.7193
 6004TIP3    H239428   0.214   4.820   4.251 -0.8543  0.1830  0.2355
 6005TIP3   OH239429   1.993   1.427  15.739  0.1226 -0.4951 -0.1696
 6005TIP3    H139430   1.967   1.369  15.668 -0.6255 -0.1099 -0.2209
 6005TIP3    H239431   1.990   1.372  15.818  0.6932 -0.8516 -0.3889
 6006TIP3   OH239432   2.783   0.393  15.332 -0.1423  0.2383 -0.0038
 6006TIP3    H139433   2.726   0.332  15.285 -1.0316  0.5706  0.6086
 6006TIP3    H239434   2.870   0.378  15.296 -0.9529  1.3773 -2.6970
 6007TIP3   OH239435   6.122   2.604   0.049 -0.1477  0.2532  0.5823
 6007TIP3    H139436   6.217   2.594   0.055 -0.1244 -0.6259 -0.7254
 6007TIP3    H239437   6.109   2.667  -0.023 -0.5571  0.1563  0.5660
 6008TIP3   OH239438   6.552   1.779  15.622 -0.5397 -0.1742  0.1123
 6008TIP3    H139439   6.609   1.854  15.639 -0.4677  0.3411 -2.1059
 6008TIP3    H239440   6.610   1.711  15.587 -0.7697 -0.9093  1.1166
 6009TIP3   OH239441   4.825   2.112   0.636  0.0843  0.2738 -0.1338
 6009TIP3    H139442   4.817   2.149   0.724 -0.1118 -0.6993  0.2681
 6009TIP3    H239443   4.912   2.138   0.607  0.1050  0.6980  0.3022
 6010TIP3   OH239444   2.219   1.945   2.973 -0.4190 -0.0277  0.3086
 6010TIP3    H139445   2.292   1.989   3.017 -0.0326 -0.9124  0.5684
 6010TIP3    H239446   2.242   1.947   2.880  0.8790 -1.9485  0.5399
 6011TIP3   OH239447   1.504   0.986  16.252 -0.2199  0.1548 -0.6010
 6011TIP3    H139448   1.465   1.058  16.301 -0.8273  0.0625 -0.9386
 6011TIP3    H239449   1.579   1.025  16.208 -0.4267  0.5374 -0.6197
 6012TIP3   OH239450   6.202   3.994   0.782  0.1868 -0.1079  0.0896
 6012TIP3    H139451   6.112   4.020   0.759 -0.1237 -0.3274  1.0187
 6012TIP3    H239452   6.225   3.927   0.718 -1.5703 -2.5069  1.7748
 6013TIP3   OH239453   6.530   5.884   0.743  0.2451 -0.2352  0.3791
 6013TIP3    H139454   6.473   5.936   0.800  1.2768  1.2345  0.1258
 6013TIP3    H239455   6.617   5.892   0.782  1.0190  0.9941 -1.4511
 6014TIP3   OH239456   0.831   4.704   4.716 -0.0196 -0.0301  0.2866
 6014TIP3    H139457   0.878   4.680   4.795  0.2190  0.9954  0.4706
 6014TIP3    H239458   0.865   4.645   4.648  2.4902  1.4921  0.1131
 6015TIP3   OH239459   0.581   0.346   6.503  0.3078 -0.6354 -0.5736
 6015TIP3    H139460   0.614   0.435   6.490  0.9753 -0.8804 -0.5953
 6015TIP3    H239461   0.650   0.301   6.551  0.5654 -1.5271 -1.7318
 6016TIP3   OH239462   5.712   4.601   4.687  0.2453  0.3663  0.1559
 6016TIP3    H139463   5.737   4.535   4.751  0.0948  0.5046  0.3602
 6016TIP3    H239464   5.683   4.552   4.611 -2.2379  0.1161  1.1726
 6017TIP3   OH239465   2.229   0.673  13.332  0.5149 -0.1495  0.6946
 6017TIP3    H139466   2.298   0.612  13.305  0.1902 -1.3854  2.4539
 6017TIP3    H239467   2.275   0.747  13.371  0.8647 -0.5689  1.0810
 6018TIP3   OH239468   0.953   2.872  11.961 -0.2336  0.8547 -0.2931
 6018TIP3    H139469   0.974   2.811  11.892  2.0504 -0.6020  1.5430
 6018TIP3    H239470   0.986   2.956  11.930 -1.0787  0.6893 -1.7466
 6019TIP3   OH239471   0.939   4.094  15.790  0.2753 -0.0117 -0.0453
 6019TIP3    H139472   0.906   4.031  15.727 -0.5061  2.3833 -2.2010
 6019TIP3    H239473   1.034   4.089  15.782  0.1881  0.5867 -1.8721
 6020TIP3   OH239474   4.925   0.466   5.734 -0.0715  0.1361  0.4631
 6020TIP3    H139475   4.885   0.494   5.651  0.9969  0.3241  0.0012
 6020TIP3    H239476   4.867   0.397   5.766 -0.1064 -0.4646 -0.8230
 6021TIP3   OH239477   3.932   2.307   3.796 -0.7018 -0.4576 -0.0546
 6021TIP3    H139478   4.000   2.298   3.863 -0.2921  1.1828 -0.2229
 6021TIP3    H239479   3.977   2.291   3.713 -0.3711  1.1669 -0.2099
 6022TIP3   OH239480   0.681   2.945   5.913  0.1279 -0.2816  0.6053
 6022TIP3    H139481   0.731   2.877   5.867  0.5188  0.4023  0.0046
 6022TIP3    H239482   0.724   2.951   5.999  2.5751  1.8193 -0.6387
 6023TIP3   OH239483   4.807   6.482  14.860 -0.1823 -0.4426  0.0878
 6023TIP3    H139484   4.733   6.433  14.824  1.0634 -1.6286 -0.9771
 6023TIP3    H239485   4.839   6.534  14.786  1.2814 -1.5120 -0.0764
 6024TIP3   OH239486   5.954   4.869   1.468  0.3223 -0.1005  0.6659
 6024TIP3    H139487   5.953   4.789   1.522 -0.9725  0.6586  1.8286
 6024TIP3    H239488   6.024   4.853   1.404  0.6016 -1.8518  1.3315
 6025TIP3   OH239489   2.854   3.819   1.454 -0.4315 -0.1246  0.7941
 6025TIP3    H139490   2.830   3.764   1.529 -2.1845  0.0291  0.3873
 6025TIP3    H239491   2.798   3.788   1.383  1.1748 -0.2402 -0.4900
 6026TIP3   OH239492   5.644   5.007  13.470  0.2456 -0.0632 -0.2686
 6026TIP3    H139493   5.593   5.056  13.534 -0.6098 -1.5750  0.2831
 6026TIP3    H239494   5.735   5.026  13.492 -0.0519  0.4205  0.6084
 6027TIP3   OH239495   3.664   5.569  13.716 -0.3037  0.9669  0.0329
 6027TIP3    H139496   3.588   5.611  13.755 -0.2824  0.5549  0.5412
 6027TIP3    H239497   3.671   5.606  13.628 -2.6670 -0.8742 -1.0517
 6028TIP3   OH239498   1.100   1.476   0.523 -0.6160 -0.0906 -0.4330
 6028TIP3    H139499   1.033   1.475   0.454  0.1539  0.5993 -1.2283
 6028TIP3    H239500   1.169   1.419   0.489 -0.2770  0.1751 -0.1900
 6029TIP3   OH239501   4.259   2.886  17.237  0.0184 -0.0218  0.2923
 6029TIP3    H139502   4.190   2.899  17.172  1.3771 -1.3608 -1.4879
 6029TIP3    H239503   4.323   2.954  17.217  1.1428 -1.3468 -0.8132
 6030TIP3   OH239504   0.131   6.563   4.207  0.0357 -0.0682 -0.3655
 6030TIP3    H139505   0.044   6.597   4.187 -0.0336  0.0163  0.0585
 6030TIP3    H239506   0.164   6.621   4.276  0.0874 -0.6005  0.0682
 6031TIP3   OH239507   6.028   1.778  14.543 -0.3457 -0.2647  0.3533
 6031TIP3    H139508   6.089   1.837  14.499  0.0726  0.4470  1.8229
 6031TIP3    H239509   5.949   1.779  14.488  0.6407 -0.5275 -1.1023
 6032TIP3   OH239510   3.364   0.886   4.874 -0.5646 -0.2458  0.1887
 6032TIP3    H139511   3.442   0.914   4.921 -1.3056  1.0073  0.7322
 6032TIP3    H239512   3.397   0.830   4.803  0.8794  0.7536  0.0284
 6033TIP3   OH239513   3.417   1.321   5.884 -0.0837 -0.4868 -0.2283
 6033TIP3    H139514   3.432   1.415   5.879  0.5347 -0.3324  2.7180
 6033TIP3    H239515   3.495   1.287   5.927 -0.2352 -2.4084 -1.3729
 6034TIP3   OH239516   5.843   1.986   5.266  0.0509 -0.1913 -0.1065
 6034TIP3    H139517   5.864   1.958   5.355 -0.8055  0.0878  0.1989
 6034TIP3    H239518   5.770   1.929   5.240 -0.2052  0.2365 -0.3332
 6035TIP3   OH239519   3.409   3.425  14.514  0.3150  0.2138 -0.0803
 6035TIP3    H139520   3.371   3.490  14.574 -0.4714 -1.2659  1.0683
 6035TIP3    H239521   3.396   3.341  14.557  0.7616 -0.8024 -1.8206
 6036TIP3   OH239522   0.755   1.741  11.992  0.3348  0.1265  0.7446
 6036TIP3    H139523   0.692   1.799  12.034 -1.4656 -0.1941 -1.3619
 6036TIP3    H239524   0.741   1.656  12.034 -0.3574  0.1647  0.6094
 6037TIP3   OH239525   1.002   5.948  11.711  0.4408  0.7720 -0.3820
 6037TIP3    H139526   1.083   5.929  11.758 -0.8649 -0.0905  1.6850
 6037TIP3    H239527   1.011   5.901  11.628  1.9088  0.4449 -0.0674
 6038TIP3   OH239528   6.307   4.894   0.815  0.4628 -0.1541 -0.0571
 6038TIP3    H139529   6.400   4.877   0.830  0.3084 -0.7641  0.2452
 6038TIP3    H239530   6.300   4.907   0.720  0.8958  0.1660 -0.0454
 6039TIP3   OH239531   6.634   1.508  12.961  0.0179  0.3020 -0.1419
 6039TIP3    H139532   6.686   1.429  12.944  0.2055 -0.1286  2.1527
 6039TIP3    H239533   6.543   1.479  12.953  0.0934  0.0207  0.0125
 6040TIP3   OH239534   6.183   1.586   5.140  0.3108  0.2115 -0.7038
 6040TIP3    H139535   6.217   1.498   5.125 -1.4535 -0.8195  0.9099
 6040TIP3    H239536   6.226   1.640   5.074  3.1507 -1.4025 -0.3314
 6041TIP3   OH239537   4.151   4.570   4.374  0.2276 -0.0552 -0.1426
 6041TIP3    H139538   4.150   4.536   4.285 -0.7202 -0.4233 -0.0012
 6041TIP3    H239539   4.204   4.650   4.368 -1.2580  0.8868 -1.4017
 6042TIP3   OH239540   4.745   0.508  11.060 -0.5271 -0.2062 -0.0753
 6042TIP3    H139541   4.823   0.562  11.052 -0.9471  0.4770  0.3260
 6042TIP3    H239542   4.686   0.559  11.116 -1.6342 -0.2858 -1.1231
 6043TIP3   OH239543   0.881   1.343   3.134  0.2492  0.1161 -0.0161
 6043TIP3    H139544   0.835   1.390   3.065 -0.7830  0.6128  0.9765
 6043TIP3    H239545   0.905   1.259   3.095 -0.5224  0.2992 -0.9020
 6044TIP3   OH239546   1.525   2.929  13.077  0.1834  0.2028 -0.2904
 6044TIP3    H139547   1.558   2.842  13.057 -1.1427 -0.7192  1.2366
 6044TIP3    H239548   1.559   2.948  13.165 -2.0535 -0.1778  0.7226
 6045TIP3   OH239549   2.883   3.413  15.373  0.6197 -0.1746  0.3219
 6045TIP3    H139550   2.900   3.323  15.399  0.1828 -0.2460  0.3656
 6045TIP3    H239551   2.846   3.406  15.285  0.4587 -0.0500  0.3788
 6046TIP3   OH239552   5.214   0.278   4.905 -0.1911 -1.3729  0.5125
 6046TIP3    H139553   5.158   0.309   4.834 -1.1378 -0.8935  1.4394
 6046TIP3    H239554   5.290   0.336   4.901 -1.1583  0.0095  1.1372
 6047TIP3   OH239555   2.048   6.662  12.745 -0.6748 -0.5602 -0.4132
 6047TIP3    H139556   2.069   6.614  12.665 -0.3668 -0.4725 -0.3854
 6047TIP3    H239557   1.953   6.674  12.741 -0.7597 -1.1840 -0.4130
 6048TIP3   OH239558   0.967   1.989  11.411  0.3199 -0.1410  0.3774
 6048TIP3    H139559   0.994   1.941  11.333  2.1265 -0.0722  0.9242
 6048TIP3    H239560   1.027   2.063  11.416 -0.0271  0.0752  1.6118
 6049TIP3   OH239561   4.415   6.639  15.395 -0.5419  0.2180 -0.3012
 6049TIP3    H139562   4.328   6.598  15.392  0.0076 -0.9654 -0.4953
 6049TIP3    H239563   4.474   6.573  15.358  0.1280  1.8722 -2.3772
 6050TIP3   OH239564   3.599   4.859   5.931  0.2815 -0.4507 -0.0387
 6050TIP3    H139565   3.521   4.914   5.926  0.7399  0.1788 -0.4256
 6050TIP3    H239566   3.593   4.817   6.017  0.4040  0.9497  0.6881
 6051TIP3   OH239567   3.412   2.109   3.483  0.0262 -0.5391  0.1325
 6051TIP3    H139568   3.410   2.115   3.579 -1.2327  0.5516  0.0695
 6051TIP3    H239569   3.486   2.164   3.457 -0.1024 -0.2140  0.4489
 6052TIP3   OH239570   2.500   0.179   2.091 -0.6624  0.0514  0.2707
 6052TIP3    H139571   2.415   0.147   2.120 -1.1810  0.8407 -0.3207
 6052TIP3    H239572   2.551   0.189   2.171 -0.8066 -1.2978  0.5471
 6053TIP3   OH239573   6.321   2.809  12.382 -0.1274  0.5960 -0.0465
 6053TIP3    H139574   6.390   2.821  12.318 -0.1453 -0.7106 -0.3420
 6053TIP3    H239575   6.240   2.818  12.333 -0.1457 -1.2479 -0.4343
 6054TIP3   OH239576   2.941   2.093  13.598  0.2503  0.2402  0.0293
 6054TIP3    H139577   2.994   2.024  13.557  0.1646  0.8838 -1.2187
 6054TIP3    H239578   2.894   2.133  13.525 -2.1754 -0.4476  1.1192
 6055TIP3   OH239579   2.922   2.910   2.017 -0.6387 -0.0653 -0.6595
 6055TIP3    H139580   2.941   2.872   2.103 -2.2381  0.0818 -0.2099
 6055TIP3    H239581   2.961   2.848   1.955  1.2463  0.2285  0.1344
 6056TIP3   OH239582   1.089   0.802  13.074  0.1438  0.1158  0.5490
 6056TIP3    H139583   1.174   0.824  13.036 -0.6719  0.4381 -1.1430
 6056TIP3    H239584   1.031   0.873  13.048 -1.5372 -1.8653 -1.4864
 6057TIP3   OH239585   0.674   3.444   3.196  0.2899  0.2309  0.2770
 6057TIP3    H139586   0.719   3.381   3.253  1.1310  2.8826  2.7497
 6057TIP3    H239587   0.598   3.472   3.246 -1.9981 -1.1610 -2.1960
 6058TIP3   OH239588   3.466   4.526   3.353  0.3627 -0.5371 -0.1653
 6058TIP3    H139589   3.532   4.458   3.364  1.0455  0.0301 -0.6670
 6058TIP3    H239590   3.499   4.581   3.282 -0.8659 -0.4958 -0.7341
 6059TIP3   OH239591   2.509   1.950  13.637 -0.2042  0.1089 -0.1900
 6059TIP3    H139592   2.434   2.004  13.614 -0.0321  0.6835  0.5546
 6059TIP3    H239593   2.485   1.910  13.720  0.0286 -0.2625 -0.3022
 6060TIP3   OH239594   6.088   5.052  16.857 -0.7629  0.1816 -0.1897
 6060TIP3    H139595   6.078   5.020  16.767 -2.0101 -0.3787  0.1246
 6060TIP3    H239596   6.154   5.121  16.851  0.1971 -0.8007 -1.2938
 6061TIP3   OH239597   4.045   3.140   0.645  0.4502  0.8589  0.3523
 6061TIP3    H139598   4.114   3.205   0.633 -1.1302  2.9454  1.9844
 6061TIP3    H239599   3.984   3.156   0.573  0.9538 -0.1307 -0.3313
 6062TIP3   OH239600   3.139   3.340   2.774 -0.0659 -0.5409  0.3617
 6062TIP3    H139601   3.226   3.323   2.809  1.1748  1.1306 -1.7174
 6062TIP3    H239602   3.137   3.297   2.689 -1.5876 -1.2458  0.7177
 6063TIP3   OH239603   2.270   5.399   4.545  0.1209 -0.5907  0.0896
 6063TIP3    H139604   2.175   5.387   4.539  0.1867 -2.0062  1.1999
 6063TIP3    H239605   2.303   5.370   4.460 -0.5587  1.9481 -1.1061
 6064TIP3   OH239606   6.630   5.717   4.864  0.1987  0.8505  0.2860
 6064TIP3    H139607   6.582   5.670   4.932 -0.9698  0.2727 -0.8982
 6064TIP3    H239608   6.565   5.774   4.823  1.2581  2.4294  0.7096
 6065TIP3   OH239609   5.894   2.752   1.316 -0.0378 -0.7047  0.2349
 6065TIP3    H139610   5.984   2.779   1.334  0.8296 -1.1774 -2.8522
 6065TIP3    H239611   5.844   2.833   1.323  0.8709 -0.1607  0.6367
 6066TIP3   OH239612   1.158   1.028   4.788 -0.2704 -0.5934  0.7527
 6066TIP3    H139613   1.120   1.019   4.701 -0.9945 -1.8369  1.1868
 6066TIP3    H239614   1.250   1.051   4.771 -0.6720  0.3364 -0.3128
 6067TIP3   OH239615   5.684   0.817  14.290  0.1654  0.8296  0.2041
 6067TIP3    H139616   5.648   0.815  14.201  0.0506 -2.1522  0.2377
 6067TIP3    H239617   5.610   0.796  14.347  0.7342  0.3926  0.7991
 6068TIP3   OH239618   1.029   1.799   3.519 -0.1901 -0.2578 -0.1144
 6068TIP3    H139619   0.977   1.818   3.597 -0.2112 -0.6474 -0.0309
 6068TIP3    H239620   1.002   1.865   3.455  0.6546  0.7892  0.5700
 6069TIP3   OH239621   5.870   0.594   2.812 -0.6737  0.4613  0.2598
 6069TIP3    H139622   5.822   0.668   2.848  0.0588  1.6810 -1.1338
 6069TIP3    H239623   5.962   0.621   2.816 -0.4820  0.2055 -1.4271
 6070TIP3   OH239624   3.105   2.332  12.565 -0.1543  0.0601 -0.2288
 6070TIP3    H139625   3.029   2.275  12.576 -1.2642  1.4648 -0.3106
 6070TIP3    H239626   3.150   2.297  12.489 -0.1543 -1.3884  0.4016
 6071TIP3   OH239627   6.497   6.342  11.027  0.0698 -0.7114  0.0979
 6071TIP3    H139628   6.404   6.362  11.016  0.5123  1.2952 -0.2088
 6071TIP3    H239629   6.509   6.261  10.977 -1.6219 -1.3731  0.6658
 6072TIP3   OH239630   4.996   1.868  12.610 -0.0567  0.0696 -0.1333
 6072TIP3    H139631   4.977   1.903  12.697  0.9149 -0.3320  0.2457
 6072TIP3    H239632   4.911   1.869  12.565 -0.4343  0.9646  0.5617
 6073TIP3   OH239633   3.710   2.267   3.638 -0.0275 -0.0232  0.1801
 6073TIP3    H139634   3.741   2.190   3.589  2.0785  1.5024 -1.0509
 6073TIP3    H239635   3.770   2.273   3.712 -0.5705  0.1019  0.6120
 6074TIP3   OH239636   3.674   1.351   5.688 -0.6474 -0.0033  0.5962
 6074TIP3    H139637   3.641   1.391   5.608  1.3947 -0.5725 -0.6024
 6074TIP3    H239638   3.686   1.259   5.666  0.0821 -0.1434  1.5091
 6075TIP3   OH239639   2.155   5.066  13.313 -0.1029  0.1699  0.2984
 6075TIP3    H139640   2.139   5.046  13.221 -0.7671 -0.7011  0.5848
 6075TIP3    H239641   2.249   5.080  13.319 -0.0683  0.3527 -0.5275
 6076TIP3   OH239642   1.459   1.546   5.577  0.3481  0.3104 -0.0585
 6076TIP3    H139643   1.364   1.555   5.587  0.2608 -0.9757  0.4546
 6076TIP3    H239644   1.485   1.486   5.646  1.5682  0.7426 -0.1168
 6077TIP3   OH239645   6.736   4.209  15.649  0.3589 -0.5383 -0.6814
 6077TIP3    H139646   6.790   4.279  15.685 -1.2840  0.3120  0.3027
 6077TIP3    H239647   6.711   4.157  15.725 -2.3465  0.6906 -0.6068
 6078TIP3   OH239648   5.997   6.499   2.126  0.3474 -0.0246  0.6544
 6078TIP3    H139649   6.035   6.413   2.143 -0.0270 -0.0344  1.4854
 6078TIP3    H239650   5.945   6.518   2.204 -0.8189  0.2795 -0.1691
 6079TIP3   OH239651   3.856   4.687   5.443 -0.3844 -0.1589 -0.6365
 6079TIP3    H139652   3.902   4.626   5.385  1.3424 -0.3693  0.8429
 6079TIP3    H239653   3.855   4.643   5.528 -1.3851  0.8191 -0.1209
 6080TIP3   OH239654   4.398   6.232  17.148  0.2312 -0.3585 -0.2600
 6080TIP3    H139655   4.375   6.324  17.134 -0.0328 -0.0574  1.8358
 6080TIP3    H239656   4.330   6.198  17.205  2.0421 -0.9130  1.7046
 6081TIP3   OH239657   6.666   6.213   3.864 -0.3999  0.0732  0.6712
 6081TIP3    H139658   6.711   6.138   3.902 -2.6444 -1.1394  1.1427
 6081TIP3    H239659   6.644   6.185   3.775 -0.5377  0.4825  0.5728
 6082TIP3   OH239660   5.243   4.339   2.931  0.0349  0.1190 -0.2484
 6082TIP3    H139661   5.168   4.289   2.900 -0.2278  0.8932 -0.8909
 6082TIP3    H239662   5.274   4.290   3.008 -1.6571  0.2571  0.5727
 6083TIP3   OH239663   1.537   2.794  11.672 -0.4299  0.2572 -0.5424
 6083TIP3    H139664   1.571   2.752  11.593 -0.4119 -0.8534  0.0293
 6083TIP3    H239665   1.452   2.828  11.647 -0.4346 -0.1154 -1.0409
 6084TIP3   OH239666   4.079   3.948  11.162 -0.0784  0.0468  0.4748
 6084TIP3    H139667   3.989   3.977  11.156 -0.2319  0.1467  2.4577
 6084TIP3    H239668   4.131   4.021  11.130 -0.6745  0.0265 -0.5782
 6085TIP3   OH239669   3.701   4.988   2.454  0.0597 -0.2667 -0.5561
 6085TIP3    H139670   3.732   4.927   2.387  0.5011 -0.1112 -0.4967
 6085TIP3    H239671   3.780   5.022   2.494 -0.1962 -0.8590  0.5134
 6086TIP3   OH239672   1.695   1.585   4.720 -0.6084 -0.1316  0.4997
 6086TIP3    H139673   1.765   1.586   4.655  0.3264  1.0040  1.4764
 6086TIP3    H239674   1.731   1.537   4.794 -1.3351 -0.6354  0.5389
 6087TIP3   OH239675   5.754   1.223  15.257 -0.2182  0.4812 -0.2396
 6087TIP3    H139676   5.670   1.197  15.296  0.6009  1.6210  2.4906
 6087TIP3    H239677   5.797   1.140  15.237 -1.4477 -0.1233 -0.5119
 6088TIP3   OH239678   5.105   5.753   3.551 -0.2019 -0.7530 -0.0178
 6088TIP3    H139679   5.102   5.776   3.644 -0.3658 -1.6052  0.1998
 6088TIP3    H239680   5.063   5.666   3.547 -5.1799  1.3488 -1.5694
 6089TIP3   OH239681   1.860   4.431   1.615  0.1917 -0.2239  0.0091
 6089TIP3    H139682   1.859   4.352   1.560  1.0049 -1.1847  1.3220
 6089TIP3    H239683   1.778   4.428   1.663 -0.7319  0.8533 -1.3838
 6090TIP3   OH239684   1.470   0.940   2.210 -0.3987 -0.2159  0.3353
 6090TIP3    H139685   1.527   1.015   2.191 -0.2904 -0.3411  0.1655
 6090TIP3    H239686   1.413   0.971   2.281 -2.1606  0.9273 -1.4972
 6091TIP3   OH239687   2.376   3.910  15.135 -0.9700 -0.1976 -0.2787
 6091TIP3    H139688   2.417   3.990  15.168  1.0257 -1.8402  1.5347
 6091TIP3    H239689   2.306   3.941  15.077  0.4494  2.8150 -0.5647
 6092TIP3   OH239690   0.244   0.939  12.229 -0.2806  0.4613  0.1088
 6092TIP3    H139691   0.224   0.875  12.160 -0.4237  0.6784 -0.0500
 6092TIP3    H239692   0.252   0.886  12.308 -0.6081  0.2657  0.0138
 6093TIP3   OH239693   4.333   0.562   4.464 -0.3945 -0.5075  0.2204
 6093TIP3    H139694   4.421   0.558   4.502  0.1842  2.1533 -0.6116
 6093TIP3    H239695   4.274   0.545   4.537  0.7745 -2.2735  0.8101
 6094TIP3   OH239696   1.972   5.009  12.414  0.3203  0.1619 -0.0979
 6094TIP3    H139697   1.948   4.917  12.400  1.5131 -0.1273 -0.3663
 6094TIP3    H239698   2.013   5.011  12.500 -0.7424  0.6789  0.4240
 6095TIP3   OH239699   5.051   6.088   2.752 -0.1008  0.1954 -0.0524
 6095TIP3    H139700   5.069   6.134   2.834 -1.7081  1.5316 -0.3902
 6095TIP3    H239701   5.132   6.099   2.701  0.3674  0.6612  0.7669
 6096TIP3   OH239702   6.100   2.014  14.369 -0.1119  0.2952 -0.1891
 6096TIP3    H139703   6.164   2.084  14.387 -1.1822  1.2498  0.0057
 6096TIP3    H239704   6.077   2.027  14.277 -1.6773  1.3905  0.3214
 6097TIP3   OH239705   3.047   3.687   5.345  0.1601  0.4331  0.2846
 6097TIP3    H139706   3.104   3.758   5.315 -2.0178  1.7129 -1.1106
 6097TIP3    H239707   3.084   3.608   5.304  1.6242  0.9966  0.4491
 6098TIP3   OH239708   2.392   2.962   2.768 -0.1630  0.2096  0.2734
 6098TIP3    H139709   2.458   2.911   2.815 -0.3459  0.0463  0.3523
 6098TIP3    H239710   2.330   2.897   2.735 -0.1683  0.3461  0.0180
 6099TIP3   OH239711   6.256   3.375  14.868  0.1117  0.3512 -0.6610
 6099TIP3    H139712   6.295   3.420  14.793 -1.0030  0.1302 -1.3936
 6099TIP3    H239713   6.272   3.434  14.942 -1.3530  2.0582 -1.6004
 6100TIP3   OH239714   0.355   5.358   0.547  0.1976 -0.2149  0.1244
 6100TIP3    H139715   0.293   5.378   0.477  1.4178  0.7847 -0.7352
 6100TIP3    H239716   0.436   5.335   0.501  1.2903  1.3209  1.1853
 6101TIP3   OH239717   2.374   2.533  13.304  0.1394  0.7011 -0.6920
 6101TIP3    H139718   2.403   2.557  13.216 -1.4079  0.1227 -1.3976
 6101TIP3    H239719   2.376   2.437  13.305 -0.8729  0.6676 -0.4868
 6102TIP3   OH239720   4.493   4.256   0.132 -0.1504  0.1203  0.0368
 6102TIP3    H139721   4.569   4.247   0.075 -1.0228 -0.0538 -1.1467
 6102TIP3    H239722   4.485   4.172   0.176  0.8920  0.4597  0.9054
 6103TIP3   OH239723   3.153   0.786  13.621 -0.3581 -0.2861  0.1658
 6103TIP3    H139724   3.092   0.822  13.685 -0.2515 -0.4076  0.3385
 6103TIP3    H239725   3.155   0.692  13.639 -0.3615 -0.3271 -0.0452
 6104TIP3   OH239726   1.756   3.349  12.493  0.1093 -0.1658  0.0757
 6104TIP3    H139727   1.817   3.281  12.523 -0.5304 -0.2791  1.1840
 6104TIP3    H239728   1.681   3.342  12.553  0.9519  2.9802  1.7044
 6105TIP3   OH239729   4.303   2.215  14.114 -0.2591 -0.0722 -0.0136
 6105TIP3    H139730   4.275   2.158  14.185 -2.0824  0.1288 -0.5324
 6105TIP3    H239731   4.354   2.284  14.158  1.8749 -1.9398  0.6218
 6106TIP3   OH239732   3.862   4.165  12.492 -0.2226 -0.7347 -0.8380
 6106TIP3    H139733   3.891   4.150  12.582  1.2038  1.0534 -0.9453
 6106TIP3    H239734   3.847   4.077  12.457  1.7739 -1.6105  0.3480
 6107TIP3   OH239735   3.845   0.057   3.448 -0.2983  0.8864 -0.0531
 6107TIP3    H139736   3.925   0.024   3.489 -0.2836 -0.2414 -0.9323
 6107TIP3    H239737   3.847   0.152   3.464  0.9646  0.8107  0.3521
 6108TIP3   OH239738   0.073   3.768   1.286 -0.1388  0.0321  0.0646
 6108TIP3    H139739   0.027   3.843   1.323  0.9912  0.5630  0.4361
 6108TIP3    H239740   0.164   3.778   1.316 -0.0845 -1.8123  0.6244
 6109TIP3   OH239741   5.045   1.390   0.311  0.4712  0.3718 -0.4491
 6109TIP3    H139742   5.004   1.451   0.372  1.7047 -0.2095  1.0471
 6109TIP3    H239743   5.129   1.367   0.353 -0.0209 -2.5062 -0.8117
 6110TIP3   OH239744   4.760   1.244  16.055 -0.0268 -0.6694  0.3225
 6110TIP3    H139745   4.671   1.265  16.083 -0.5780 -0.4695 -1.4373
 6110TIP3    H239746   4.795   1.325  16.019 -0.2394 -1.4154 -1.6860
 6111TIP3   OH239747   0.936   0.566   1.702  0.1405  0.0653  0.4223
 6111TIP3    H139748   0.973   0.501   1.641  0.2303 -1.5058  2.0726
 6111TIP3    H239749   0.952   0.650   1.659  1.3206 -0.8868 -1.1349
 6112TIP3   OH239750   2.808   4.130  14.474 -0.1910 -0.9667 -0.3709
 6112TIP3    H139751   2.828   4.056  14.533 -1.0812 -0.1590  1.0000
 6112TIP3    H239752   2.891   4.178  14.468  0.6957 -2.5800 -2.1150
 6113TIP3   OH239753   0.230   6.441   4.477  0.1730 -0.5980 -0.3872
 6113TIP3    H139754   0.139   6.459   4.501 -0.1594 -0.7543 -1.4787
 6113TIP3    H239755   0.225   6.391   4.396  1.2021 -2.1126  0.4361
 6114TIP3   OH239756   3.143   1.889  13.552  0.7364  1.0692  0.0295
 6114TIP3    H139757   3.235   1.914  13.542  0.5193  2.4266  1.1371
 6114TIP3    H239758   3.141   1.835  13.631  0.6820  0.3270 -0.4640
 6115TIP3   OH239759   2.341   2.974   3.519 -0.3348  0.2977 -0.0528
 6115TIP3    H139760   2.344   2.888   3.561  0.7212 -0.9470 -2.4849
 6115TIP3    H239761   2.373   3.034   3.586  0.2322 -1.3843  1.2749
 6116TIP3   OH239762   3.872   2.442  11.192  0.1707  0.2442  0.2794
 6116TIP3    H139763   3.902   2.523  11.152 -0.0025 -0.2489 -0.8971
 6116TIP3    H239764   3.784   2.429  11.156  0.0881 -0.3147  0.6672
 6117TIP3   OH239765   1.524   4.430  13.480  0.4832  0.1967  0.1593
 6117TIP3    H139766   1.534   4.389  13.394 -1.6397  1.0950 -0.5831
 6117TIP3    H239767   1.431   4.421  13.501  0.7426  0.9756  1.8617
 6118TIP3   OH239768   1.084   1.442  11.003 -0.5151  0.1981  0.2544
 6118TIP3    H139769   1.108   1.487  10.921  0.9601 -3.9335 -1.8836
 6118TIP3    H239770   1.006   1.392  10.981 -0.3031 -0.7108  1.4761
 6119TIP3   OH239771   5.337   2.916   0.101  0.1104 -0.3632 -0.1140
 6119TIP3    H139772   5.303   3.005   0.112  0.8813 -0.0828  0.0731
 6119TIP3    H239773   5.263   2.859   0.121 -0.3337  0.2342 -0.0318
 6120TIP3   OH239774   0.665   2.673  10.846  0.3820  0.0676 -0.1747
 6120TIP3    H139775   0.755   2.707  10.844  0.3213  0.3841  1.1962
 6120TIP3    H239776   0.610   2.750  10.835  0.2613  0.3178  1.8267
 6121TIP3   OH239777   2.890   3.940   1.745  0.5383  0.2414 -1.0278
 6121TIP3    H139778   2.896   4.035   1.754  0.6623  0.1960 -0.6434
 6121TIP3    H239779   2.899   3.906   1.834  3.3158 -0.2804 -1.4261
 6122TIP3   OH239780   2.177   0.224   0.998 -0.0607  0.3004 -0.3370
 6122TIP3    H139781   2.197   0.180   1.081  0.6082 -1.4796 -1.3854
 6122TIP3    H239782   2.262   0.235   0.956 -0.4179  1.0018 -0.8752
 6123TIP3   OH239783   2.507   5.868   3.998  0.3087  0.6238 -0.2606
 6123TIP3    H139784   2.505   5.879   3.903 -2.7414  0.0488 -0.3400
 6123TIP3    H239785   2.466   5.783   4.013  0.7102  0.7291  1.5904
 6124TIP3   OH239786   5.261   2.966   6.007  0.3372  1.0550 -0.7303
 6124TIP3    H139787   5.198   3.038   6.011  0.4703  1.1353  0.2325
 6124TIP3    H239788   5.228   2.902   6.071 -0.6810 -0.5081 -2.7058
 6125TIP3   OH239789   2.070   1.631   3.878  0.0493 -0.0262 -0.2557
 6125TIP3    H139790   2.043   1.708   3.928  0.2351 -0.3738  0.3972
 6125TIP3    H239791   2.157   1.653   3.844 -0.3129  0.4251 -0.8974
 6126TIP3   OH239792   3.283   2.428  15.627  0.2002  0.5407 -0.2524
 6126TIP3    H139793   3.372   2.393  15.620 -0.4503 -1.0503 -0.8792
 6126TIP3    H239794   3.258   2.451  15.537 -0.8434 -1.2083 -0.4543
 6127TIP3   OH239795   3.311   3.339  17.113 -0.2276 -0.1464  0.5401
 6127TIP3    H139796   3.352   3.285  17.179 -1.0395 -0.2052  1.0093
 6127TIP3    H239797   3.264   3.407  17.162 -1.1364 -0.3992  0.0623
 6128TIP3   OH239798   5.397   0.050  12.037 -0.0809  1.0675  0.5041
 6128TIP3    H139799   5.329  -0.012  12.063 -0.4649  1.6913  1.0255
 6128TIP3    H239800   5.350   0.129  12.010  0.3613  0.7711 -1.2079
 6129TIP3   OH239801   2.609   0.762   4.237  0.0458 -0.3150 -0.1562
 6129TIP3    H139802   2.686   0.788   4.187  0.0706  2.2056  1.0770
 6129TIP3    H239803   2.633   0.678   4.276  1.1816 -0.8019 -1.8154
 6130TIP3   OH239804   0.461   5.432   0.809 -0.6967  0.4258  0.0050
 6130TIP3    H139805   0.527   5.379   0.853  0.8329  2.2633  0.0345
 6130TIP3    H239806   0.465   5.405   0.717  1.0554  1.3696 -0.2401
 6131TIP3   OH239807   4.831   6.538   0.581  0.2518 -0.3775  0.1677
 6131TIP3    H139808   4.911   6.509   0.538  0.7056 -0.6000  1.1478
 6131TIP3    H239809   4.800   6.462   0.630 -0.1960 -0.0981  0.3308
 6132TIP3   OH239810   2.524   3.101   4.950  0.7753  0.0988  0.9050
 6132TIP3    H139811   2.488   3.146   4.873 -0.5733 -1.2255  0.7172
 6132TIP3    H239812   2.449   3.088   5.008  1.0487 -1.9973  0.8791
 6133TIP3   OH239813   5.465   0.516   3.135 -0.2920  0.3268 -0.7805
 6133TIP3    H139814   5.473   0.611   3.144 -2.2285  0.6240 -1.6979
 6133TIP3    H239815   5.489   0.498   3.044  0.9176 -0.2208 -0.3879
 6134TIP3   OH239816   1.831   4.273  13.289 -0.2709 -0.3165 -0.5962
 6134TIP3    H139817   1.771   4.310  13.225  0.9072  2.7988 -0.0703
 6134TIP3    H239818   1.900   4.339  13.299 -0.3003 -0.6507  3.7149
 6135TIP3   OH239819   1.922   0.622  15.109 -0.1992 -0.5350  0.6672
 6135TIP3    H139820   1.851   0.562  15.133 -1.3102  0.3659 -0.2453
 6135TIP3    H239821   1.919   0.692  15.174 -0.6611 -0.1045  0.1919
 6136TIP3   OH239822   5.964   1.613  11.805  0.2439  0.0739  0.7479
 6136TIP3    H139823   5.927   1.663  11.878 -0.7270  0.2730  0.1280
 6136TIP3    H239824   6.000   1.534  11.846  1.7936  1.2184  1.7454
 6137TIP3   OH239825   1.687   4.163  15.509  0.8885 -0.3475 -0.5055
 6137TIP3    H139826   1.624   4.189  15.575  0.9156 -1.3653 -0.0573
 6137TIP3    H239827   1.690   4.236  15.447 -3.1733 -1.5279 -2.4035
 6138TIP3   OH239828   4.029   0.031  16.629  0.0056  0.3027 -0.7788
 6138TIP3    H139829   4.066   0.035  16.541  1.9040  1.1532 -0.0004
 6138TIP3    H239830   4.088  -0.027  16.677 -0.6144  0.3848  0.1047
 6139TIP3   OH239831   6.378   2.734  11.068  0.1920  0.7033  0.3902
 6139TIP3    H139832   6.466   2.770  11.077 -0.3451  1.7055  2.2707
 6139TIP3    H239833   6.364   2.727  10.974  2.7245 -0.6838  0.0119
 6140TIP3   OH239834   2.000   3.992   1.452  0.6705 -0.1432  0.5180
 6140TIP3    H139835   1.943   3.924   1.415 -1.6583  1.6685  0.5503
 6140TIP3    H239836   1.982   3.990   1.546 -0.3376  1.2295  0.3907
 6141TIP3   OH239837   2.628   2.698   3.443 -0.1029  0.1241 -0.2867
 6141TIP3    H139838   2.570   2.715   3.517 -1.1475 -0.8431 -0.8394
 6141TIP3    H239839   2.569   2.694   3.367  0.5683 -1.5264 -0.7740
 6142TIP3   OH239840   2.605   6.696  16.535 -0.5731 -0.0201 -0.0101
 6142TIP3    H139841   2.697   6.719  16.522 -0.5369  0.3317  0.8693
 6142TIP3    H239842   2.594   6.694  16.630 -1.0675 -1.6681 -0.0749
 6143TIP3   OH239843   5.034   1.576   5.579  0.2702  0.7037  0.4528
 6143TIP3    H139844   4.954   1.620   5.551  0.5998  2.1353  1.6591
 6143TIP3    H239845   5.055   1.616   5.664  0.2847 -2.1537  1.9235
 6144TIP3   OH239846   4.561   4.535   1.951 -0.0585  0.4676 -0.2967
 6144TIP3    H139847   4.601   4.488   1.878  0.3238  0.9869 -0.4274
 6144TIP3    H239848   4.473   4.500   1.957  0.1839 -0.1785 -0.4698
 6145TIP3   OH239849   6.766   4.062   2.381  0.0073  0.2276 -0.3844
 6145TIP3    H139850   6.821   4.096   2.452 -0.9146  1.1802 -0.0970
 6145TIP3    H239851   6.694   4.124   2.376 -0.7439 -0.6889 -1.1381
 6146TIP3   OH239852   0.703   4.007   3.297 -0.5027  0.9720 -0.3146
 6146TIP3    H139853   0.783   3.962   3.325 -0.2430  2.5755  1.7905
 6146TIP3    H239854   0.686   3.973   3.209  0.5146 -2.0009  0.5164
 6147TIP3   OH239855   4.221   2.952  12.419  0.1222 -0.1931  0.1704
 6147TIP3    H139856   4.317   2.949  12.416  0.1466  0.8290 -0.4900
 6147TIP3    H239857   4.193   2.871  12.377  0.6981  0.3641 -1.3198
 6148TIP3   OH239858   1.107   2.392   3.843 -0.0820  0.9612  0.2680
 6148TIP3    H139859   1.151   2.357   3.921  1.8199 -1.5491 -1.7427
 6148TIP3    H239860   1.149   2.477   3.829 -0.0941  1.2277  1.6769
 6149TIP3   OH239861   1.268   5.691   2.621  0.1284  0.2969 -0.0911
 6149TIP3    H139862   1.215   5.757   2.666 -0.1288  0.3908 -0.5262
 6149TIP3    H239863   1.303   5.636   2.692  0.3636  0.9093  0.2721
 6150TIP3   OH239864   5.341   5.903  10.399 -0.1103 -0.1120 -0.7383
 6150TIP3    H139865   5.316   5.866  10.484 -0.6077  0.0625 -0.8035
 6150TIP3    H239866   5.263   5.952  10.371  0.9528  2.1720  0.0145
 6151TIP3   OH239867   3.049   5.985  14.284  0.5572  0.1714  0.3173
 6151TIP3    H139868   3.127   5.996  14.338  0.1234  0.9733  0.8036
 6151TIP3    H239869   3.080   5.945  14.203  1.2378 -0.9578  1.1108
 6152TIP3   OH239870   0.031   3.757  16.113 -0.0708 -0.4464  0.0285
 6152TIP3    H139871  -0.036   3.736  16.178 -0.7517  1.8711  0.1570
 6152TIP3    H239872  -0.018   3.767  16.031  0.2795  0.1200 -0.1145
 6153TIP3   OH239873   5.315   3.363   4.820 -0.0032  0.0872  0.6354
 6153TIP3    H139874   5.402   3.350   4.858  0.3615  2.7738  0.9184
 6153TIP3    H239875   5.266   3.409   4.888 -0.4078  1.9813 -0.8488
 6154TIP3   OH239876   5.798   6.288  14.527 -0.4402  0.7504 -0.0852
 6154TIP3    H139877   5.879   6.325  14.561 -0.5411 -0.1984  1.2690
 6154TIP3    H239878   5.807   6.194  14.540 -1.4675  0.5679 -0.5614
 6155TIP3   OH239879   2.199   5.527   3.566  0.2965  0.6590  0.1223
 6155TIP3    H139880   2.155   5.610   3.546  0.8215  0.9462  0.1334
 6155TIP3    H239881   2.130   5.470   3.598 -0.1307  0.9809 -0.2261
 6156TIP3   OH239882   0.330   5.434   3.697  0.2924 -0.0533 -0.0530
 6156TIP3    H139883   0.382   5.510   3.724 -0.4049  0.1216  0.8806
 6156TIP3    H239884   0.314   5.386   3.778 -1.7063  0.3711 -0.1211
 6157TIP3   OH239885   5.502   6.761  15.220  0.3869  0.2394  0.1180
 6157TIP3    H139886   5.592   6.791  15.228  0.3883  0.3658 -0.3163
 6157TIP3    H239887   5.453   6.839  15.193 -0.2199  0.6846  2.2856
 6158TIP3   OH239888   1.634   2.969   2.922 -0.1477  0.1870 -0.3724
 6158TIP3    H139889   1.574   2.974   2.997 -0.2994  0.4627 -0.5090
 6158TIP3    H239890   1.603   3.037   2.862  0.3170  0.3461 -0.4359
 6159TIP3   OH239891   5.829   4.704  15.383 -0.1120 -0.0152 -0.2574
 6159TIP3    H139892   5.896   4.709  15.314  0.5462  1.7188  0.4609
 6159TIP3    H239893   5.815   4.610  15.395  2.4908 -0.4706 -0.1648
 6160TIP3   OH239894   3.364   4.021   5.488  0.1755  0.6610 -0.3315
 6160TIP3    H139895   3.312   3.990   5.563  2.1385  0.5701  1.0609
 6160TIP3    H239896   3.335   3.967   5.415 -1.4621  0.4133  0.4462
 6161TIP3   OH239897   1.117   4.674   5.178  0.3856 -0.3493  0.5938
 6161TIP3    H139898   1.096   4.748   5.120 -0.3623 -1.3278 -0.4414
 6161TIP3    H239899   1.032   4.644   5.209  0.6613 -0.9076  0.8177
 6162TIP3   OH239900   2.910   5.179  15.235  0.2263  0.1601 -0.2060
 6162TIP3    H139901   2.976   5.233  15.278  0.5650  0.0731 -0.6139
 6162TIP3    H239902   2.917   5.202  15.142  1.7150 -1.9597 -0.6796
 6163TIP3   OH239903   4.472   3.291  13.974  0.0547 -0.3164  0.1171
 6163TIP3    H139904   4.437   3.373  13.938  0.2415 -0.2344  0.1248
 6163TIP3    H239905   4.444   3.291  14.066  1.6312  0.6242  0.6218
 6164TIP3   OH239906   3.367   3.835   0.665 -0.2634  0.1624 -0.3250
 6164TIP3    H139907   3.280   3.853   0.700 -0.7051 -0.5143 -1.0452
 6164TIP3    H239908   3.425   3.894   0.714 -1.1211  0.6446  0.1371
 6165TIP3   OH239909   0.244   1.396   4.983 -0.2869  0.2810 -1.0126
 6165TIP3    H139910   0.221   1.376   4.893 -0.7620 -0.0708 -0.8202
 6165TIP3    H239911   0.257   1.491   4.985 -0.4270  0.3085 -1.4116
 6166TIP3   OH239912   6.290   0.324   2.109  0.4742 -0.6530 -0.2094
 6166TIP3    H139913   6.203   0.364   2.108 -0.0628 -1.7358  0.7400
 6166TIP3    H239914   6.326   0.341   2.022 -0.3266  0.5700 -0.3230
 6167TIP3   OH239915   3.760   0.556  15.536 -0.0736  0.4208 -0.0784
 6167TIP3    H139916   3.678   0.506  15.544  0.1610 -0.4927 -2.6177
 6167TIP3    H239917   3.818   0.517  15.603 -1.0062 -0.3906  0.2852
 6168TIP3   OH239918   1.275   5.383  16.721  0.6447 -0.2923 -0.0647
 6168TIP3    H139919   1.355   5.409  16.766  0.8222 -1.4836  0.3207
 6168TIP3    H239920   1.225   5.334  16.786 -0.3214  0.2568 -0.3642
 6169TIP3   OH239921   0.124   1.995   1.783 -0.8507 -0.6648  0.1425
 6169TIP3    H139922   0.179   2.042   1.721 -0.3488 -0.5723  0.6497
 6169TIP3    H239923   0.063   1.945   1.728 -0.0846 -0.9845 -0.4317
 6170TIP3   OH239924   1.007   4.852   5.661  0.0439  0.8149 -0.2735
 6170TIP3    H139925   1.086   4.880   5.616 -1.1594  1.9674 -1.7860
 6170TIP3    H239926   1.038   4.795   5.732  2.1431  0.6533 -1.2567
 6171TIP3   OH239927   2.411   6.136   5.853 -0.1580 -0.1482 -0.1103
 6171TIP3    H139928   2.328   6.155   5.811  0.8491 -0.8967 -2.5934
 6171TIP3    H239929   2.422   6.042   5.845  2.2108  0.2088 -2.6047
 6172TIP3   OH239930   2.524   6.286   6.078 -0.3440  0.4201  0.0050
 6172TIP3    H139931   2.614   6.267   6.054  0.5924  1.3271  2.5669
 6172TIP3    H239932   2.478   6.292   5.994  1.8278 -0.5803 -1.3353
 6173TIP3   OH239933   1.422   2.930  11.121  0.3912 -0.7226 -0.3198
 6173TIP3    H139934   1.483   2.927  11.047 -1.2581 -2.0967 -1.7059
 6173TIP3    H239935   1.346   2.977  11.087 -0.2029 -0.9607  0.6552
 6174TIP3   OH239936   2.718   4.549   2.776 -0.4656  0.1412  0.1115
 6174TIP3    H139937   2.719   4.566   2.870  0.6767 -4.0465  1.0477
 6174TIP3    H239938   2.810   4.534   2.753 -0.8176  0.2681 -1.5281
 6175TIP3   OH239939   0.894   2.113   6.619 -0.1702 -0.4263 -0.1227
 6175TIP3    H139940   0.816   2.126   6.673 -0.3984  0.6122 -0.6719
 6175TIP3    H239941   0.860   2.100   6.531  0.2561 -0.7071 -0.2466
 6176TIP3   OH239942   5.899   5.358   5.956  0.6343 -0.0764 -0.3612
 6176TIP3    H139943   5.889   5.441   5.908  2.7213  0.6373  0.3588
 6176TIP3    H239944   5.810   5.325   5.964 -0.4847  2.8198  0.5835
 6177TIP3   OH239945   4.236   0.490   1.340 -0.0378 -0.9053  0.0701
 6177TIP3    H139946   4.181   0.468   1.264 -0.7315 -1.1286  0.6208
 6177TIP3    H239947   4.200   0.572   1.372  0.2537 -0.8112  0.1557
 6178TIP3   OH239948   5.322   4.791   3.529 -0.3017 -0.1239 -0.2937
 6178TIP3    H139949   5.287   4.829   3.448 -1.8810  0.8405  0.7898
 6178TIP3    H239950   5.385   4.857   3.561 -0.6687  0.1133 -0.0564
 6179TIP3   OH239951   4.736   6.417   3.838 -0.0089  0.0813  0.0835
 6179TIP3    H139952   4.725   6.507   3.805 -2.4193 -0.1516  0.0435
 6179TIP3    H239953   4.729   6.425   3.933  1.7246  0.1262  0.2366
 6180TIP3   OH239954   2.872   2.293   3.609 -0.3565 -0.2839  0.1026
 6180TIP3    H139955   2.855   2.233   3.682  0.3956  0.2504  0.7358
 6180TIP3    H239956   2.835   2.376   3.638 -1.1500 -0.3486 -0.6572
 6181TIP3   OH239957   3.533   0.828   6.506  0.3207  0.3112  0.1354
 6181TIP3    H139958   3.495   0.742   6.491 -0.8036  0.8370 -0.1266
 6181TIP3    H239959   3.498   0.882   6.435 -2.4707  2.0627  2.6101
 6182TIP3   OH239960   1.272   0.624  12.225  0.7599  0.3177 -0.4786
 6182TIP3    H139961   1.209   0.647  12.157 -0.0739  0.6527  0.3792
 6182TIP3    H239962   1.357   0.639  12.185  0.3046  2.9825 -0.6821
 6183TIP3   OH239963   5.124   0.419   1.592  0.1387  0.2547 -0.4076
 6183TIP3    H139964   5.185   0.345   1.590 -0.1503  0.0192 -0.7281
 6183TIP3    H239965   5.139   0.460   1.677  0.9380  0.3731 -0.5989
 6184TIP3   OH239966   2.893   4.924  16.189  0.0557 -0.1304 -0.2934
 6184TIP3    H139967   2.908   4.961  16.275 -0.1916  0.9304 -0.6869
 6184TIP3    H239968   2.918   4.832  16.197  1.6016  0.3284  0.4665
 6185TIP3   OH239969   1.042   0.944   1.224  1.0385  0.3049 -0.0659
 6185TIP3    H139970   1.080   1.026   1.193 -0.4588  1.4370  0.9276
 6185TIP3    H239971   1.089   0.925   1.305 -0.0262  1.3790  0.8439
 6186TIP3   OH239972   1.947   5.754   2.447 -0.5060 -0.2669 -0.0464
 6186TIP3    H139973   1.903   5.838   2.462 -0.5857 -0.3723  0.3071
 6186TIP3    H239974   1.983   5.762   2.359 -1.4150 -0.2651 -0.4309
 6187TIP3   OH239975   1.649   0.330   4.941 -0.4385  0.8308 -0.1285
 6187TIP3    H139976   1.658   0.312   5.035  1.0585 -0.5226 -0.4936
 6187TIP3    H239977   1.590   0.405   4.937  0.2438  1.5443  1.9372
 6188TIP3   OH239978   5.829   3.685  12.940 -0.0513 -0.3878  0.0854
 6188TIP3    H139979   5.827   3.781  12.948  2.0764 -0.1701 -1.1922
 6188TIP3    H239980   5.883   3.656  13.013 -0.1756 -0.5580  0.1093
 6189TIP3   OH239981   0.648   6.075   4.668 -0.2845 -0.5912  0.2347
 6189TIP3    H139982   0.690   6.026   4.738 -1.0506 -0.0716  1.0966
 6189TIP3    H239983   0.705   6.150   4.653  0.1266 -0.9588 -0.0320
 6190TIP3   OH239984   4.295   5.506  13.587 -0.0493  0.1715 -0.0617
 6190TIP3    H139985   4.388   5.523  13.599  0.0131  0.4742 -0.9192
 6190TIP3    H239986   4.275   5.542  13.501 -0.2062 -2.9928 -1.4814
 6191TIP3   OH239987   5.789   3.565   4.829 -0.2410 -0.2518  0.2266
 6191TIP3    H139988   5.882   3.587   4.825 -0.2685  0.8181  3.0685
 6191TIP3    H239989   5.759   3.570   4.738  1.9547  1.7317 -0.4886
 6192TIP3   OH239990   1.867   0.741   3.396 -0.4944 -0.1985 -0.6477
 6192TIP3    H139991   1.824   0.666   3.355  1.1602 -1.7357  0.2847
 6192TIP3    H239992   1.959   0.715   3.403 -0.4049  0.5249  2.6487
 6193TIP3   OH239993   3.469   4.254  16.493  0.4571  0.6000 -0.0513
 6193TIP3    H139994   3.504   4.179  16.540 -1.5158 -0.3036  0.0713
 6193TIP3    H239995   3.389   4.278  16.540 -0.5649  0.8656 -1.8032
 6194TIP3   OH239996   2.572   6.724  14.043  0.5920  0.1368  1.0405
 6194TIP3    H139997   2.536   6.812  14.040 -0.3553 -0.2405  0.9420
 6194TIP3    H239998   2.661   6.732  14.007  0.1543  0.8702  0.1015
 6195TIP3   OH239999   1.743   3.627   3.495  0.6216 -0.3024  0.6097
 6195TIP3    H140000   1.715   3.539   3.519 -0.6467 -0.0559  0.1416
 6195TIP3    H240001   1.663   3.670   3.466  1.1346  1.1418  1.2200
 6196TIP3   OH240002   0.972   5.876  15.847  0.2049 -0.3198 -0.2496
 6196TIP3    H140003   0.940   5.941  15.909  1.6042 -1.0760  1.3318
 6196TIP3    H240004   0.901   5.812  15.841 -0.8574  0.8821 -1.2158
 6197TIP3   OH240005   2.704   2.643  10.939 -0.1792  0.3124  0.6436
 6197TIP3    H140006   2.678   2.672  10.851  1.2204 -2.8101 -0.9661
 6197TIP3    H240007   2.623   2.646  10.990 -1.1076  1.8436 -0.7981
 6198TIP3   OH240008   5.629   5.186  11.624 -0.3454  0.3950  0.4274
 6198TIP3    H140009   5.566   5.177  11.695  0.9141 -0.9458  1.4377
 6198TIP3    H240010   5.709   5.218  11.667  0.2594  0.1428 -0.4887
 6199TIP3   OH240011   0.571   0.284  15.963 -0.1134  0.4971 -0.0357
 6199TIP3    H140012   0.580   0.206  15.907 -0.8325  0.0197  0.4901
 6199TIP3    H240013   0.497   0.264  16.020  0.8064  0.8235  1.3278
 6200TIP3   OH240014   2.387   0.353   4.803 -0.1671  0.4194  0.0890
 6200TIP3    H140015   2.431   0.310   4.730 -1.0476 -0.1711 -0.1066
 6200TIP3    H240016   2.458   0.394   4.853  0.5359 -0.0042 -0.5459
 6201TIP3   OH240017   2.340   6.756   3.303 -0.4393  0.1295  0.2468
 6201TIP3    H140018   2.366   6.830   3.249  0.3254  0.6625  1.3013
 6201TIP3    H240019   2.346   6.680   3.246  2.9284  0.2807  0.2221
 6202TIP3   OH240020   0.712   0.699   5.962 -0.5970  0.1344 -0.1809
 6202TIP3    H140021   0.663   0.678   5.882 -0.7470 -0.3903  0.0471
 6202TIP3    H240022   0.791   0.743   5.930 -1.1082  0.7978 -0.5664
 6203TIP3   OH240023   0.796   4.525  12.726 -0.3155 -0.0099  0.1848
 6203TIP3    H140024   0.704   4.543  12.742 -0.3581  0.7944 -0.8502
 6203TIP3    H240025   0.836   4.523  12.813 -1.6193 -2.3161  0.7900
 6204TIP3   OH240026   1.750   4.031   5.406  0.1374  0.1391  0.2520
 6204TIP3    H140027   1.761   4.006   5.498  0.7739  0.3928  0.2468
 6204TIP3    H240028   1.813   3.977   5.359  0.9260  1.1280  0.1459
 6205TIP3   OH240029   3.311   5.147  16.318 -0.2640  0.2964 -0.0663
 6205TIP3    H140030   3.295   5.241  16.305  1.4104  0.3932 -1.7983
 6205TIP3    H240031   3.354   5.143  16.404 -0.3256  1.1141  0.0169
 6206TIP3   OH240032   2.155   2.255  17.064 -0.6268  0.5641  0.4045
 6206TIP3    H140033   2.206   2.179  17.088  1.3805  1.6872 -0.1104
 6206TIP3    H240034   2.121   2.289  17.147 -0.1216  0.0908  0.8063
 6207TIP3   OH240035   2.860   3.276   1.704 -0.0163  0.0299 -0.4784
 6207TIP3    H140036   2.830   3.201   1.652 -2.4307 -0.5205  1.5169
 6207TIP3    H240037   2.833   3.353   1.654 -0.6635 -0.4706 -0.9186
 6208TIP3   OH240038   3.076   0.285   2.410  0.1849 -0.8145 -0.2301
 6208TIP3    H140039   3.040   0.226   2.343 -1.9328  0.2256 -0.0892
 6208TIP3    H240040   3.031   0.260   2.491  2.0298 -1.4330  0.6696
 6209TIP3   OH240041   1.016   0.370  16.630 -0.3362 -0.4199  0.8857
 6209TIP3    H140042   0.953   0.353  16.559  1.3732  1.0948 -1.1148
 6209TIP3    H240043   0.982   0.448  16.673 -1.7288 -1.7093  2.2464
 6210TIP3   OH240044   4.197   6.575  16.573 -0.5076  0.5532 -1.1606
 6210TIP3    H140045   4.108   6.566  16.538 -0.4334 -1.6663 -0.9028
 6210TIP3    H240046   4.253   6.532  16.509 -0.0365 -1.0603  0.2589
 6211TIP3   OH240047   6.029   0.212  15.526 -0.3334 -0.2122  0.3591
 6211TIP3    H140048   6.101   0.273  15.541  0.0769 -1.0313  1.9774
 6211TIP3    H240049   6.011   0.174  15.612 -1.5381 -1.3189 -0.3358
 6212TIP3   OH240050   1.978   4.507   4.171  0.0559  0.0576 -0.6140
 6212TIP3    H140051   2.028   4.530   4.092  1.1706 -0.1945 -0.0077
 6212TIP3    H240052   1.974   4.589   4.221  0.2876 -0.0320 -0.4449
 6213TIP3   OH240053   1.307   5.148  14.429  0.2200 -0.2106 -0.1507
 6213TIP3    H140054   1.265   5.223  14.471  0.5224  0.3504 -0.8455
 6213TIP3    H240055   1.400   5.168  14.433  0.2792 -0.3747 -0.6635
 6214TIP3   OH240056   3.412   2.627   1.184 -0.3137  0.1148 -0.4325
 6214TIP3    H140057   3.404   2.588   1.271 -1.0208  0.9103 -0.1255
 6214TIP3    H240058   3.505   2.622   1.163 -0.4274 -2.2313 -0.6547
 6215TIP3   OH240059   2.216   0.706   0.324 -0.3311  0.1005  0.1720
 6215TIP3    H140060   2.184   0.796   0.332  1.6491  0.7934  0.6837
 6215TIP3    H240061   2.288   0.700   0.387 -0.2621 -1.7842 -0.0206
 6216TIP3   OH240062   4.297   4.189  17.096 -0.6457 -0.1605 -0.4412
 6216TIP3    H140063   4.321   4.105  17.058  0.8120  0.4783 -0.9982
 6216TIP3    H240064   4.308   4.178  17.190 -0.4450 -0.5888 -0.5134
 6217TIP3   OH240065   0.674   1.382   0.184  0.0346  0.1405 -0.9178
 6217TIP3    H140066   0.623   1.321   0.237 -0.2611 -1.0295 -2.4689
 6217TIP3    H240067   0.620   1.461   0.180 -0.6870 -0.3352 -0.8199
 6218TIP3   OH240068   6.511   4.899  15.977  0.0380 -0.1224 -0.2646
 6218TIP3    H140069   6.546   4.832  16.036  1.4887  0.1946 -0.7234
 6218TIP3    H240070   6.589   4.941  15.941 -0.8456  0.6664 -1.2841
 6219TIP3   OH240071   5.368   6.213   6.003  0.3924 -0.3887  0.1653
 6219TIP3    H140072   5.421   6.179   5.930 -2.2790 -2.3346 -1.0163
 6219TIP3    H240073   5.415   6.185   6.082  1.4715 -1.4067 -0.8013
 6220TIP3   OH240074   0.873   6.395   5.539  0.0406  0.3305 -0.1034
 6220TIP3    H140075   0.814   6.454   5.587 -0.6104 -0.8449  0.5970
 6220TIP3    H240076   0.862   6.311   5.582 -2.2791 -1.4032 -3.6178
 6221TIP3   OH240077   3.314   0.106  15.362  0.6464 -0.0507  0.6357
 6221TIP3    H140078   3.276   0.018  15.370 -2.4224  1.1152 -0.0415
 6221TIP3    H240079   3.268   0.158  15.427 -1.3193  2.1410 -2.2766
 6222TIP3   OH240080   2.390   2.176  13.516  0.2385 -0.4752  0.3621
 6222TIP3    H140081   2.359   2.186  13.426  0.8997  0.3244  0.2118
 6222TIP3    H240082   2.335   2.235  13.567 -0.5460 -1.3846  0.5899
 6223TIP3   OH240083   3.821   6.252   0.105  0.5767 -0.2559 -0.5992
 6223TIP3    H140084   3.891   6.226   0.164  1.2763  0.7880 -0.9474
 6223TIP3    H240085   3.799   6.342   0.132  1.3714  0.4972 -2.3127
 6224TIP3   OH240086   4.856   4.891   4.983 -0.4101  0.2982 -0.3234
 6224TIP3    H140087   4.815   4.956   5.041  0.1417 -1.2213  1.9092
 6224TIP3    H240088   4.926   4.853   5.036 -0.9716 -2.3871 -1.3374
 6225TIP3   OH240089   0.395   1.472  12.996  0.0333  0.0196 -0.2948
 6225TIP3    H140090   0.480   1.447  12.960  0.5358 -1.2729  1.6121
 6225TIP3    H240091   0.378   1.559  12.961  1.1976 -0.4977 -2.2905
 6226TIP3   OH240092   4.234   0.709   1.923 -0.1895  0.3688 -0.3895
 6226TIP3    H140093   4.323   0.735   1.946 -0.4890 -0.2209  1.6724
 6226TIP3    H240094   4.186   0.792   1.915 -0.0951  0.6636  1.5155
 6227TIP3   OH240095   6.409   6.664  13.198 -0.1802 -0.1164  0.4527
 6227TIP3    H140096   6.494   6.678  13.158 -0.6345 -0.4460 -0.6745
 6227TIP3    H240097   6.420   6.586  13.252 -0.0287 -0.8120 -0.5489
 6228TIP3   OH240098   6.693   2.363   2.620 -0.4758 -0.0864  0.1779
 6228TIP3    H140099   6.742   2.400   2.694 -1.1264 -0.7443  0.9593
 6228TIP3    H240100   6.602   2.360   2.651 -1.2025  1.8340 -1.5102
 6229TIP3   OH240101   2.572   3.348   3.101  0.5762 -0.0379  0.0136
 6229TIP3    H140102   2.505   3.340   3.033  2.0729 -1.9940 -1.3655
 6229TIP3    H240103   2.546   3.425   3.152 -1.5776  0.4571 -1.6842
 6230TIP3   OH240104   1.701   0.806  16.372  0.2844 -0.1520  0.3189
 6230TIP3    H140105   1.745   0.890  16.384 -1.6141  0.8713  0.5418
 6230TIP3    H240106   1.610   0.829  16.354 -0.6682 -2.1940  2.0287
 6231TIP3   OH240107   3.594   0.241  16.542 -0.1219 -0.1875  0.2392
 6231TIP3    H140108   3.669   0.294  16.514 -0.8568 -0.4233 -2.4583
 6231TIP3    H240109   3.632   0.175  16.600  1.4171  0.9382  0.5663
 6232TIP3   OH240110   6.082   4.012   2.840 -0.1166  0.3012 -0.6385
 6232TIP3    H140111   6.099   3.973   2.925  0.6134  1.9797  0.0258
 6232TIP3    H240112   6.155   4.074   2.826 -0.6736  0.6894 -2.0798
 6233TIP3   OH240113   1.182   2.523   1.028 -0.0423 -0.5547  0.5748
 6233TIP3    H140114   1.223   2.505   1.112  0.9623 -0.6155  0.0847
 6233TIP3    H240115   1.227   2.466   0.966  0.1888  0.4698 -0.2366
 6234TIP3   OH240116   3.632   1.739   6.076 -0.3861 -0.6876  0.1987
 6234TIP3    H140117   3.602   1.723   6.166 -2.3388 -0.3422 -0.3484
 6234TIP3    H240118   3.612   1.831   6.060  0.5613 -0.5702 -0.3761
 6235TIP3   OH240119   0.043   1.222  12.195 -0.2178 -0.0476  0.8799
 6235TIP3    H140120  -0.017   1.280  12.240  0.0397  1.5702 -0.7079
 6235TIP3    H240121  -0.003   1.197  12.115 -0.0268 -1.4563  1.1912
 6236TIP3   OH240122   0.083   1.174   4.197  0.2589  0.3235  0.2884
 6236TIP3    H140123   0.124   1.261   4.203  0.3879  0.1679  1.9473
 6236TIP3    H240124   0.118   1.125   4.271 -0.6798 -0.7896  0.0271
 6237TIP3   OH240125   5.343   3.992  13.811  0.0958  0.2693  0.0021
 6237TIP3    H140126   5.331   3.898  13.803  1.5627 -0.0595  1.1988
 6237TIP3    H240127   5.430   4.008  13.774  0.8248  0.7891  1.8278
 6238TIP3   OH240128   2.669   2.334   5.622  0.0929  0.4562 -0.5432
 6238TIP3    H140129   2.710   2.250   5.643 -1.0257 -0.3640 -1.4587
 6238TIP3    H240130   2.602   2.346   5.689  1.2138  1.3750  0.4530
 6239TIP3   OH240131   0.806   2.355  12.368  0.7073 -0.4385  0.1783
 6239TIP3    H140132   0.803   2.445  12.399 -0.0907 -0.5986  0.5833
 6239TIP3    H240133   0.831   2.362  12.275  0.4335  0.2032  0.1510
 6240TIP3   OH240134   6.043   1.974  11.614  0.6255  0.2469  0.2257
 6240TIP3    H140135   6.127   1.928  11.611  1.1590  1.0141  1.9910
 6240TIP3    H240136   5.979   1.907  11.635  1.1617  0.0311  1.2197
 6241TIP3   OH240137   3.682   3.419   5.785 -0.3567 -0.4929  0.0402
 6241TIP3    H140138   3.764   3.427   5.734 -1.1105  1.8824 -0.9392
 6241TIP3    H240139   3.700   3.466   5.866 -0.4986 -0.6957  0.1892
 6242TIP3   OH240140   0.589   4.872  12.548  0.3515  0.1394  0.0272
 6242TIP3    H140141   0.564   4.954  12.504  0.9157 -0.4642 -1.5003
 6242TIP3    H240142   0.681   4.883  12.571  0.8637 -0.5641 -1.5150
 6243TIP3   OH240143   1.392   4.257   0.125 -0.2105  0.2289  0.2666
 6243TIP3    H140144   1.486   4.236   0.122  0.1847  1.5163  2.1080
 6243TIP3    H240145   1.353   4.201   0.058  1.7506 -0.9589  0.0401
 6244TIP3   OH240146   2.561   5.704   5.059  0.4214  0.7072  0.2691
 6244TIP3    H140147   2.624   5.703   5.131  2.0538 -0.1385 -1.0681
 6244TIP3    H240148   2.580   5.623   5.011 -1.2876  0.7580 -0.5519
 6245TIP3   OH240149   5.263   5.430   2.182 -0.0271 -0.2533  0.9063
 6245TIP3    H140150   5.204   5.392   2.247 -1.1881 -1.8673 -0.9746
 6245TIP3    H240151   5.226   5.403   2.098  1.6826  1.3353 -0.4368
 6246TIP3   OH240152   3.366   6.163   6.073  0.4908 -0.4437 -0.0345
 6246TIP3    H140153   3.312   6.177   5.995 -1.0295  0.2882  1.1012
 6246TIP3    H240154   3.404   6.248   6.092 -1.1102  0.0095  1.3852
 6247TIP3   OH240155   1.193   1.622   5.397  0.0257 -0.0984 -0.1509
 6247TIP3    H140156   1.270   1.591   5.349 -0.8863  1.6124 -2.9021
 6247TIP3    H240157   1.119   1.579   5.354 -0.7110 -0.4697  1.4180
 6248TIP3   OH240158   4.636   0.073   2.539 -0.0328 -0.2673 -0.1491
 6248TIP3    H140159   4.595   0.149   2.498 -1.0308  0.1157  1.4368
 6248TIP3    H240160   4.565   0.008   2.545  0.1131 -0.3582  0.7915
 6249TIP3   OH240161   1.034   0.195   3.432 -0.1350 -0.0057 -0.0437
 6249TIP3    H140162   0.954   0.247   3.430 -0.4807 -0.4934  0.6310
 6249TIP3    H240163   1.095   0.249   3.483  0.2580  0.7421 -1.2611
 6250TIP3   OH240164   2.235   1.864  12.881  0.3980 -0.5684 -0.2244
 6250TIP3    H140165   2.190   1.817  12.951  1.1264 -1.4883 -0.3467
 6250TIP3    H240166   2.173   1.932  12.854 -0.0206 -0.3889  1.0885
 6251TIP3   OH240167   4.647   3.734  14.645 -0.1450  0.1770 -0.8210
 6251TIP3    H140168   4.647   3.712  14.552 -2.6544 -0.1995 -0.8034
 6251TIP3    H240169   4.602   3.818  14.650  1.1212  0.8470 -0.0269
 6252TIP3   OH240170   5.057   5.572  16.938  0.0431 -0.4822  0.4881
 6252TIP3    H140171   5.110   5.591  16.861  0.3739  0.5705  0.9611
 6252TIP3    H240172   5.001   5.649  16.949  1.1679  0.1425  2.2530
 6253TIP3   OH240173   4.456   5.153   5.898  0.2388  0.4110 -0.2307
 6253TIP3    H140174   4.399   5.224   5.867  1.8171  1.7339 -0.2377
 6253TIP3    H240175   4.411   5.119   5.975 -0.6187  1.3593 -0.2822
 6254TIP3   OH240176   0.130   3.138  14.327 -0.5012 -0.4054 -0.8179
 6254TIP3    H140177   0.218   3.176  14.325 -0.2302 -0.8950  0.7062
 6254TIP3    H240178   0.101   3.141  14.236  0.9682  0.0523 -1.3010
 6255TIP3   OH240179   3.003   5.739  11.077 -0.0403  0.5736 -0.3956
 6255TIP3    H140180   2.913   5.712  11.057  0.0752  0.0628 -0.2422
 6255TIP3    H240181   3.052   5.721  10.996 -0.1133  1.0374 -0.5451
 6256TIP3   OH240182   5.429   1.513  17.051  0.0494 -0.2479  0.2023
 6256TIP3    H140183   5.335   1.528  17.041 -0.3552 -2.1281  0.7825
 6256TIP3    H240184   5.469   1.561  16.979 -1.4382 -0.2803 -0.6741
 6257TIP3   OH240185   6.060   5.306   4.001 -0.8197  0.0198 -0.4889
 6257TIP3    H140186   6.031   5.318   4.092  0.1486 -2.7544  0.2927
 6257TIP3    H240187   6.138   5.361   3.994 -0.8392  0.1911  0.4132
 6258TIP3   OH240188   2.979   0.470   6.152  0.9265  0.3794 -0.3189
 6258TIP3    H140189   3.067   0.433   6.152  0.6809 -0.4800  2.8533
 6258TIP3    H240190   2.924   0.401   6.189 -0.8830  1.3721 -1.0180
 6259TIP3   OH240191   1.201   2.368  14.882 -0.3258  0.2685  0.1754
 6259TIP3    H140192   1.187   2.453  14.924  0.1248  0.0229  0.8400
 6259TIP3    H240193   1.293   2.348  14.898 -0.8034 -1.1018  1.4725
 6260TIP3   OH240194   2.159   5.035   5.071  0.2103 -0.4903  0.1122
 6260TIP3    H140195   2.161   5.116   5.122  2.0058  0.2018 -0.9949
 6260TIP3    H240196   2.250   5.018   5.049 -0.0514 -3.0999  0.7106
 6261TIP3   OH240197   0.653   1.990  11.432  0.5469 -0.1879 -0.7501
 6261TIP3    H140198   0.635   2.065  11.489 -0.5214 -2.2450  1.8630
 6261TIP3    H240199   0.747   1.976  11.440  0.7729  0.8659 -1.3290
 6262TIP3   OH240200   2.975   4.468   2.691 -0.0151 -0.0078 -0.0931
 6262TIP3    H140201   2.958   4.403   2.622  0.6672 -0.1578 -0.1292
 6262TIP3    H240202   3.009   4.416   2.764  1.5832  0.4056 -0.4974
 6263TIP3   OH240203   2.439   2.644  11.040 -0.5224 -0.0351  0.7726
 6263TIP3    H140204   2.365   2.645  10.978  1.6647 -2.3565 -2.2037
 6263TIP3    H240205   2.451   2.735  11.065 -1.6730  1.0436 -2.1633
 6264TIP3   OH240206   2.166   6.476  11.554  0.4561  0.1529 -0.0548
 6264TIP3    H140207   2.156   6.520  11.470 -0.5567 -0.5380 -0.3057
 6264TIP3    H240208   2.084   6.493  11.600  1.4854  1.6370  1.3576
 6265TIP3   OH240209   6.645   2.881  15.208 -0.1469 -0.0228 -0.5600
 6265TIP3    H140210   6.665   2.863  15.300 -1.6867  0.1975 -0.1536
 6265TIP3    H240211   6.728   2.867  15.162  0.4732 -0.8545  0.7551
 6266TIP3   OH240212   2.128   4.955  12.614 -0.3036  0.3643 -0.1608
 6266TIP3    H140213   2.123   4.880  12.674 -1.7520  1.7804  1.5970
 6266TIP3    H240214   2.218   4.986  12.622 -0.0970 -0.3005  0.2207
 6267TIP3   OH240215   5.374   2.689   4.559  0.4915 -0.0708  0.1765
 6267TIP3    H140216   5.412   2.602   4.547  2.1898  0.5561  0.6024
 6267TIP3    H240217   5.434   2.732   4.621 -0.4788  1.2923  0.2013
 6268TIP3   OH240218   5.454   2.508  15.345 -0.7641  0.0388 -0.6628
 6268TIP3    H140219   5.545   2.494  15.372 -1.0519 -0.3806  0.1037
 6268TIP3    H240220   5.419   2.420  15.335 -1.2838  0.2041 -0.2925
 6269TIP3   OH240221   5.304   5.789   0.566  0.2450  0.1822  0.9066
 6269TIP3    H140222   5.383   5.831   0.599  0.6640 -0.0455  0.2194
 6269TIP3    H240223   5.331   5.699   0.547  0.3027  0.5320 -0.9270
 6270TIP3   OH240224   4.189   1.374   4.913  0.0080  0.1987  0.3662
 6270TIP3    H140225   4.214   1.336   4.997  0.3356  1.7318  0.9981
 6270TIP3    H240226   4.184   1.468   4.930 -0.6395  0.4672 -1.1591
 6271TIP3   OH240227   1.693   1.906  15.600 -0.2392  0.0365  0.3625
 6271TIP3    H140228   1.722   1.980  15.652 -0.2717 -0.3830  0.9897
 6271TIP3    H240229   1.759   1.838  15.614  0.9739  0.6581 -1.9447
 6272TIP3   OH240230   0.803   0.027  16.296  0.4085  0.1663 -0.1157
 6272TIP3    H140231   0.757   0.098  16.251 -0.2581  0.6471  1.2682
 6272TIP3    H240232   0.882   0.067  16.331 -0.3398  0.4529  1.3213
 6273TIP3   OH240233   0.919   1.774   2.066  0.0130 -0.1473  0.2524
 6273TIP3    H140234   0.989   1.720   2.102 -1.3515 -1.1513  1.5106
 6273TIP3    H240235   0.961   1.823   1.995  1.6526 -1.7671  0.0189
 6274TIP3   OH240236   2.654   1.449  13.715  0.0787  0.2540 -0.3088
 6274TIP3    H140237   2.680   1.517  13.652  0.2928  0.0553 -0.4335
 6274TIP3    H240238   2.733   1.397  13.728 -0.3966 -0.6976 -1.1191
 6275TIP3   OH240239   3.842   5.158   0.526  0.4492  0.2964  0.3235
 6275TIP3    H140240   3.815   5.250   0.530 -0.7543  0.0140 -0.6994
 6275TIP3    H240241   3.927   5.161   0.480 -0.2411  0.8130 -0.9918
 6276TIP3   OH240242   1.272   3.730   6.353  0.5706  0.0335 -0.2066
 6276TIP3    H140243   1.339   3.787   6.390 -0.1875 -0.0511  1.3468
 6276TIP3    H240244   1.278   3.649   6.404 -0.6311 -0.0169 -0.1122
 6277TIP3   OH240245   6.349   2.337  16.686  0.3416  0.1440  0.3773
 6277TIP3    H140246   6.267   2.310  16.645 -0.0727  1.7326  0.1005
 6277TIP3    H240247   6.406   2.359  16.613  1.1905 -1.3233  0.5521
 6278TIP3   OH240248   2.726   1.897  11.443 -0.5328 -0.7423 -0.2414
 6278TIP3    H140249   2.687   1.952  11.375 -1.6085 -0.9788  0.1670
 6278TIP3    H240250   2.689   1.930  11.525  0.8879 -0.3432  0.2567
 6279TIP3   OH240251   1.647   3.501  14.554 -0.4656  0.0602 -0.4917
 6279TIP3    H140252   1.562   3.472  14.523 -0.6064  0.9616 -0.9831
 6279TIP3    H240253   1.631   3.536  14.642 -0.7276  0.7716 -0.8098
 6280TIP3   OH240254   2.272   2.948   4.507 -0.6379  0.3916  0.3405
 6280TIP3    H140255   2.311   3.035   4.505 -0.4463  0.3201  0.8154
 6280TIP3    H240256   2.210   2.951   4.580 -1.9600  0.6791 -0.7412
 6281TIP3   OH240257   5.672   1.043  12.397  0.0692 -0.2287  0.0862
 6281TIP3    H140258   5.605   1.076  12.338  1.0967  0.2856 -0.8300
 6281TIP3    H240259   5.656   0.949  12.401 -0.6561 -0.1246 -0.1672
 6282TIP3   OH240260   3.389   5.607   2.282 -0.2722 -0.0874  0.0922
 6282TIP3    H140261   3.387   5.594   2.377  5.5225  0.1881  0.6142
 6282TIP3    H240262   3.423   5.525   2.247 -0.6669  0.4114 -1.5530
 6283TIP3   OH240263   0.350   2.570  12.195 -0.0120 -0.4971 -0.1124
 6283TIP3    H140264   0.335   2.544  12.104 -1.2178 -0.1103 -0.0412
 6283TIP3    H240265   0.309   2.656  12.203  1.1459  0.0177  0.4919
 6284TIP3   OH240266   2.715   3.762  15.728  0.3319  0.4790  0.3618
 6284TIP3    H140267   2.662   3.713  15.665  1.6778  2.0990 -2.2187
 6284TIP3    H240268   2.653   3.819  15.772 -0.5727 -0.1931 -0.0108
 6285TIP3   OH240269   1.867   5.642   0.693  0.1326  0.4363 -0.2915
 6285TIP3    H140270   1.778   5.617   0.671 -0.0343  0.9906 -0.2658
 6285TIP3    H240271   1.911   5.653   0.609  0.8653 -2.1539 -0.3176
 6286TIP3   OH240272   4.536   3.282   4.799 -0.4265  0.0986  0.3650
 6286TIP3    H140273   4.469   3.214   4.804 -1.8566  1.4497  0.1330
 6286TIP3    H240274   4.507   3.340   4.729  0.7213  1.0048  0.6039
 6287TIP3   OH240275   0.264   5.406  12.766 -0.1175  0.2466 -0.0628
 6287TIP3    H140276   0.290   5.393  12.674 -0.2166  0.2889 -0.0966
 6287TIP3    H240277   0.179   5.364  12.774 -0.7013  1.3411 -0.3149
 6288TIP3   OH240278   3.715   3.975  12.014 -0.0697  0.9669 -0.0964
 6288TIP3    H140279   3.740   3.978  11.922  0.1591 -3.4745 -0.4056
 6288TIP3    H240280   3.797   3.986  12.062  0.6845 -1.3601 -0.7120
 6289TIP3   OH240281   4.961   5.304   5.899  0.2775 -0.0560 -0.2701
 6289TIP3    H140282   5.028   5.251   5.858 -1.4859 -1.3773 -1.6191
 6289TIP3    H240283   4.897   5.321   5.829 -1.4860 -0.0645  1.2487
 6290TIP3   OH240284   0.831   4.389  16.365  0.3057  0.0039 -0.2102
 6290TIP3    H140285   0.858   4.319  16.305  0.4958  0.5265 -0.7469
 6290TIP3    H240286   0.900   4.390  16.432  0.9690  0.4862 -0.8804
 6291TIP3   OH240287   6.030   1.500   1.905 -0.2543 -0.2648  0.1199
 6291TIP3    H140288   5.993   1.576   1.860  0.1021 -0.2780 -0.1970
 6291TIP3    H240289   5.976   1.491   1.984 -1.8525 -1.1391 -1.0104
 6292TIP3   OH240290   3.473   4.911  10.504  0.2738 -0.0685  0.0009
 6292TIP3    H140291   3.454   5.004  10.514  0.4336 -0.0823  0.4429
 6292TIP3    H240292   3.395   4.875  10.461 -0.9334 -0.1979  2.1772
 6293TIP3   OH240293   4.460   6.673  12.375  0.0569  0.4054 -0.0477
 6293TIP3    H140294   4.405   6.599  12.350 -1.2921  1.5527 -0.5588
 6293TIP3    H240295   4.538   6.632  12.415 -2.0377 -1.2839  2.6887
 6294TIP3   OH240296   0.927   1.673   2.773  0.6147  0.5269  1.1315
 6294TIP3    H140297   0.870   1.599   2.752  1.6931 -0.1273  0.3898
 6294TIP3    H240298   0.897   1.744   2.716  0.8123  0.0575  0.4355
 6295TIP3   OH240299   0.822   3.256   1.512 -0.5884  0.6003 -0.0663
 6295TIP3    H140300   0.857   3.279   1.598  0.1039 -0.9126  0.1005
 6295TIP3    H240301   0.868   3.313   1.451  1.8540 -0.9170  0.2113
 6296TIP3   OH240302   3.295   3.526   4.951  0.2205 -0.2885 -0.0593
 6296TIP3    H140303   3.346   3.548   5.029  0.0947 -1.4876  0.3776
 6296TIP3    H240304   3.338   3.448   4.916  0.1659  0.1338 -1.1027
 6297TIP3   OH240305   0.337   5.828   3.823 -0.0789 -0.0486 -0.4549
 6297TIP3    H140306   0.313   5.919   3.806 -0.9811  0.0312  1.0719
 6297TIP3    H240307   0.348   5.823   3.918  3.4915 -0.7338 -0.7735
 6298TIP3   OH240308   0.126   5.364  12.101  0.0430  0.2795  0.2475
 6298TIP3    H140309   0.142   5.419  12.024  3.0370  0.9379  1.2121
 6298TIP3    H240310   0.155   5.277  12.075 -1.0617 -0.0243 -0.0340
 6299TIP3   OH240311   0.571   6.425   6.597  0.6364  0.2367 -0.4444
 6299TIP3    H140312   0.580   6.501   6.539  1.1601  0.0602 -0.6008
 6299TIP3    H240313   0.652   6.423   6.647  0.7156 -0.3375 -0.5840
 6300TIP3   OH240314   1.783   4.987   2.841  0.2605 -0.6098 -0.3458
 6300TIP3    H140315   1.873   4.986   2.875 -0.2681 -0.2284  1.1292
 6300TIP3    H240316   1.736   4.924   2.896 -1.3679  2.2702  1.8574
 6301TIP3   OH240317   0.512   5.225  16.489 -0.0650  0.2646 -1.0556
 6301TIP3    H140318   0.429   5.232  16.535 -0.3981 -0.0973 -1.5966
 6301TIP3    H240319   0.513   5.302  16.431 -0.3797 -0.1458 -1.6147
 6302TIP3   OH240320   2.441   2.267   3.385  0.0689 -0.5719  0.4386
 6302TIP3    H140321   2.498   2.322   3.332 -0.4355 -2.1007 -1.8711
 6302TIP3    H240322   2.354   2.304   3.374 -0.4405 -2.2289 -1.9433
 6303TIP3   OH240323   2.745   6.140   2.355 -0.2057  0.5247 -0.1592
 6303TIP3    H140324   2.755   6.045   2.364 -0.2114  0.6278  1.2902
 6303TIP3    H240325   2.652   6.155   2.373 -0.7999  0.6016 -2.8752
 6304TIP3   OH240326   5.099   1.004   5.296  0.1144 -0.4716 -0.0880
 6304TIP3    H140327   5.031   0.986   5.360  0.1020  1.0306  0.3625
 6304TIP3    H240328   5.057   1.061   5.231  0.6678 -0.3455 -0.3472
 6305TIP3   OH240329   4.193   2.458  16.335  0.2672  0.3133 -0.3941
 6305TIP3    H140330   4.219   2.453  16.427  2.3504 -0.8816 -0.9723
 6305TIP3    H240331   4.193   2.552  16.315 -3.1016  0.8611  1.4831
 6306TIP3   OH240332   6.536   0.202  17.070 -0.4246 -0.1751 -0.0670
 6306TIP3    H140333   6.541   0.211  16.975 -0.8322 -0.4737 -0.1166
 6306TIP3    H240334   6.461   0.257  17.095 -0.0300  0.2805  0.1363
 6307TIP3   OH240335   0.372   6.143   5.119  0.0174  1.3240 -0.0472
 6307TIP3    H140336   0.422   6.221   5.093  0.0252  2.1511  2.2127
 6307TIP3    H240337   0.353   6.157   5.212  0.6140 -1.7233  0.6317
 6308TIP3   OH240338   1.571   2.833  14.451 -0.4248  0.1307  0.2824
 6308TIP3    H140339   1.639   2.896  14.476 -0.0603  0.2019 -0.8329
 6308TIP3    H240340   1.519   2.879  14.385 -1.2612 -0.1082  0.7604
 6309TIP3   OH240341   4.155   4.329   4.902  0.0731  0.0356  0.0713
 6309TIP3    H140342   4.192   4.308   4.816  1.1359  1.7270  0.0575
 6309TIP3    H240343   4.138   4.245   4.943 -0.3704 -0.8078 -1.7623
 6310TIP3   OH240344   0.507   1.302   3.901  0.2870  0.1143 -0.1169
 6310TIP3    H140345   0.580   1.275   3.847 -1.0613 -0.9780 -1.4848
 6310TIP3    H240346   0.537   1.291   3.991  2.5520  1.8924 -0.5739
 6311TIP3   OH240347   6.460   5.640  11.424  0.0528  0.2463 -0.0690
 6311TIP3    H140348   6.555   5.632  11.434  0.1042  1.0304  0.1275
 6311TIP3    H240349   6.448   5.671  11.334 -0.0189  0.2077 -0.0727
 6312TIP3   OH240350   3.699   4.317  16.355  0.0469 -0.1439  0.5303
 6312TIP3    H140351   3.659   4.348  16.275  1.2515 -1.8588 -0.8266
 6312TIP3    H240352   3.627   4.311  16.418 -1.3984 -0.9637 -1.1168
 6313TIP3   OH240353   3.296   4.736  13.984 -0.4476 -0.3759  0.0754
 6313TIP3    H140354   3.387   4.728  14.011 -0.4259 -0.7435 -0.1069
 6313TIP3    H240355   3.288   4.826  13.952 -0.2427 -0.2279  0.4409
 6314TIP3   OH240356   5.304   6.763   1.127 -0.1990  0.7410 -0.3768
 6314TIP3    H140357   5.287   6.836   1.067  0.3716  1.1414 -0.0702
 6314TIP3    H240358   5.225   6.756   1.180 -1.4246 -0.7501 -2.2919
 6315TIP3   OH240359   2.918   0.510  10.972  0.0824  0.4743 -0.0653
 6315TIP3    H140360   2.925   0.464  10.888 -1.9798  0.9506 -0.5470
 6315TIP3    H240361   2.972   0.588  10.960  1.6017 -0.5443 -0.1227
 6316TIP3   OH240362   5.021   3.952   0.868  0.6368 -0.2607 -0.2921
 6316TIP3    H140363   4.959   4.021   0.845  1.2125  0.2180 -0.4290
 6316TIP3    H240364   5.106   3.995   0.867  1.2565 -1.3947 -2.3352
 6317TIP3   OH240365   1.317   5.926  13.271 -0.3698  0.6055 -0.7255
 6317TIP3    H140366   1.311   5.963  13.359  0.0899 -1.2917  0.1404
 6317TIP3    H240367   1.348   5.837  13.284 -1.0944  0.0004 -2.7661
 6318TIP3   OH240368   1.382   2.025   1.390  0.1853 -0.2273  0.3026
 6318TIP3    H140369   1.379   1.988   1.302  0.2609  0.5793 -0.0473
 6318TIP3    H240370   1.301   1.994   1.432 -0.2943  0.1186 -0.3562
 6319TIP3   OH240371   5.135   4.614   3.603 -0.5336  0.6348  0.5037
 6319TIP3    H140372   5.039   4.610   3.598 -0.4916 -0.3587  0.2308
 6319TIP3    H240373   5.158   4.699   3.566 -1.2788  0.6514  0.0555
 6320TIP3   OH240374   4.169   6.768  14.598  0.1275 -0.1748  0.0245
 6320TIP3    H140375   4.125   6.766  14.513 -0.4178  1.4977  0.2245
 6320TIP3    H240376   4.262   6.775  14.578 -0.0114  0.3516 -0.4461
 6321TIP3   OH240377   1.800   4.746   2.254  0.4165 -0.1430  0.4940
 6321TIP3    H140378   1.744   4.704   2.319 -0.6847 -1.0130 -0.9298
 6321TIP3    H240379   1.869   4.681   2.237  0.0525 -0.4062 -0.0085
 6322TIP3   OH240380   5.603   2.919  11.712 -0.4297  0.2516 -0.1629
 6322TIP3    H140381   5.531   2.871  11.752  0.2409  0.2812  1.1149
 6322TIP3    H240382   5.608   3.001  11.761 -0.1759  0.6932 -0.9136
 6323TIP3   OH240383   0.474   0.648   1.219 -0.5618  0.0974 -0.1255
 6323TIP3    H140384   0.504   0.614   1.303  1.8856 -1.4618 -1.4935
 6323TIP3    H240385   0.468   0.571   1.163 -2.9076  0.9991 -1.2198
 6324TIP3   OH240386   3.956   4.542   0.036  0.3882 -0.3340  0.0789
 6324TIP3    H140387   4.044   4.556   0.001  0.6216 -0.0379  0.7668
 6324TIP3    H240388   3.968   4.536   0.131 -0.1417 -1.8368  0.0844
 6325TIP3   OH240389   5.370   4.963  15.122 -0.6337  0.1074  0.5269
 6325TIP3    H140390   5.453   4.927  15.153  0.5957 -0.6525 -3.1928
 6325TIP3    H240391   5.315   4.887  15.105  0.3089  0.0651 -2.9942
 6326TIP3   OH240392   1.373   4.755   5.084  0.1280 -0.2581 -0.0413
 6326TIP3    H140393   1.383   4.705   5.003 -1.4058  1.1280 -1.1566
 6326TIP3    H240394   1.281   4.745   5.107  1.1937 -3.8946  3.8753
 6327TIP3   OH240395   1.785   4.822   3.571  0.1963  0.6698  0.2730
 6327TIP3    H140396   1.796   4.917   3.564 -0.3814  0.7420  0.3333
 6327TIP3    H240397   1.713   4.810   3.633 -0.4577  0.2203 -0.5495
 6328TIP3   OH240398   6.250   0.087  11.880 -0.0374  0.3735  0.3115
 6328TIP3    H140399   6.202   0.168  11.897  3.2328  2.6150 -0.2001
 6328TIP3    H240400   6.267   0.089  11.786 -2.4156 -2.6071 -0.3632
 6329TIP3   OH240401   6.425   4.741  14.679 -0.1567  0.2918  0.4582
 6329TIP3    H140402   6.363   4.673  14.654 -0.2867  0.6540 -0.2393
 6329TIP3    H240403   6.500   4.694  14.714 -0.1584 -0.2191 -0.2074
 6330TIP3   OH240404   4.054   1.854  13.660  0.1038  0.3850 -0.3387
 6330TIP3    H140405   4.026   1.880  13.747 -2.1809 -1.1556 -0.5289
 6330TIP3    H240406   4.141   1.816  13.673  0.2017  1.0420  1.0936
 6331TIP3   OH240407   2.695   5.939  11.490 -0.6582 -0.3985 -0.5816
 6331TIP3    H140408   2.740   5.858  11.510  1.2145  0.4436 -1.1452
 6331TIP3    H240409   2.621   5.941  11.551  0.2980 -1.6496  0.6966
 6332TIP3   OH240410   0.004   0.302  13.759  0.3341 -0.3315  0.4618
 6332TIP3    H140411   0.092   0.326  13.729  0.1284 -1.7713 -1.5427
 6332TIP3    H240412   0.010   0.208  13.776 -0.7282 -0.3745  0.6354
 6333TIP3   OH240413   5.944   0.608   5.951  0.1263 -0.1619  0.3065
 6333TIP3    H140414   5.939   0.704   5.950 -0.1411 -0.1139  2.1130
 6333TIP3    H240415   5.875   0.581   6.012  0.1337 -1.5187 -0.2517
 6334TIP3   OH240416   5.134   2.761   0.228  0.2831  0.5034 -0.4157
 6334TIP3    H140417   5.157   2.800   0.312  0.2114  1.5250 -0.8573
 6334TIP3    H240418   5.105   2.672   0.249 -2.5920  1.6490  1.0042
 6335TIP3   OH240419   1.690   6.028   5.914 -0.3134  0.7364 -0.3157
 6335TIP3    H140420   1.730   6.083   5.982  0.7704 -1.3577  0.8262
 6335TIP3    H240421   1.604   6.005   5.948  0.6277 -1.1692  0.9220
 6336TIP3   OH240422   5.513   1.100  15.326 -0.1360  0.3816  0.1603
 6336TIP3    H140423   5.504   1.057  15.412  1.7352 -0.4429 -0.0130
 6336TIP3    H240424   5.423   1.112  15.296 -0.8145  0.0281  1.9119
 6337TIP3   OH240425   6.466   3.932  13.732 -0.5347  0.8331  0.0156
 6337TIP3    H140426   6.538   3.917  13.670  0.0269  0.0007  0.8502
 6337TIP3    H240427   6.395   3.877  13.700  0.2342 -0.7247  0.8882
 6338TIP3   OH240428   3.633   5.285   1.962  0.0694  0.3727  0.2042
 6338TIP3    H140429   3.696   5.322   1.899  0.8348 -0.0211  0.7238
 6338TIP3    H240430   3.593   5.212   1.915  2.0512 -1.1728  0.7890
 6339TIP3   OH240431   2.570   5.476  13.006  0.0875  0.2943 -0.1569
 6339TIP3    H140432   2.588   5.527  13.084  0.2388  0.4293 -0.2785
 6339TIP3    H240433   2.475   5.464  13.006  0.0872  0.2954  0.0450
 6340TIP3   OH240434   6.377   4.664  13.050  0.0908 -0.0413  0.3754
 6340TIP3    H140435   6.454   4.689  13.100 -0.2229 -0.8135  1.2748
 6340TIP3    H240436   6.406   4.590  12.997  0.6286  1.2347 -1.2102
 6341TIP3   OH240437   5.228   6.225  11.350 -0.2344 -0.1670  0.3652
 6341TIP3    H140438   5.282   6.149  11.326 -1.3113 -0.4525 -1.3145
 6341TIP3    H240439   5.289   6.299  11.352  0.3042 -0.5566 -1.0556
 6342TIP3   OH240440   3.762   3.851   0.647  0.4054 -0.0287  0.1088
 6342TIP3    H140441   3.797   3.910   0.714 -0.2487 -0.2102  0.6189
 6342TIP3    H240442   3.790   3.890   0.564 -0.2548  1.1598  0.4198
 6343TIP3   OH240443   0.580   0.534  13.824  0.1413 -0.2691  0.0079
 6343TIP3    H140444   0.572   0.457  13.768  0.7397 -0.1402 -0.2691
 6343TIP3    H240445   0.620   0.601  13.768 -0.5443  0.3039  0.1950
 6344TIP3   OH240446   1.133   6.511  14.767 -0.2132  0.6142  0.6108
 6344TIP3    H140447   1.217   6.556  14.762  0.8050 -1.2006  0.1401
 6344TIP3    H240448   1.103   6.508  14.676 -0.9936  1.5845  0.8255
 6345TIP3   OH240449   5.911   2.639  14.505  0.0324 -0.0501  0.5389
 6345TIP3    H140450   5.880   2.651  14.595 -3.4452  0.6050 -0.5912
 6345TIP3    H240451   5.874   2.714  14.457  2.1724 -0.1313 -1.3766
 6346TIP3   OH240452   0.843   0.207   1.421  0.3995  0.2864 -0.0702
 6346TIP3    H140453   0.888   0.130   1.456 -0.2631  0.6187  1.6333
 6346TIP3    H240454   0.787   0.173   1.352  1.6665 -0.4334 -0.7928
 6347TIP3   OH240455   0.565   0.289   3.892 -0.0005 -1.0548 -0.2990
 6347TIP3    H140456   0.558   0.195   3.909 -1.4398 -0.7145  1.1904
 6347TIP3    H240457   0.612   0.323   3.968 -0.7324 -0.3849 -0.1367
 6348TIP3   OH240458   6.484   1.415   2.500 -0.2528  0.0518  0.0907
 6348TIP3    H140459   6.487   1.466   2.581  0.2799 -2.4512  1.7851
 6348TIP3    H240460   6.394   1.424   2.469 -0.4287  1.1674  0.8627
 6349TIP3   OH240461   5.768   3.723  16.557  0.2515  0.3581 -0.3492
 6349TIP3    H140462   5.759   3.708  16.651 -1.5213  1.6040 -0.2678
 6349TIP3    H240463   5.849   3.773  16.549 -0.3193  1.4902  0.6827
 6350TIP3   OH240464   5.408   2.648  15.589 -0.6390 -0.3711 -0.0234
 6350TIP3    H140465   5.440   2.611  15.506 -1.4403 -0.0270 -0.4991
 6350TIP3    H240466   5.330   2.698  15.564 -0.1160  0.8740  0.7320
 6351TIP3   OH240467   3.862   5.242  10.727 -0.1387  0.3635  0.6990
 6351TIP3    H140468   3.920   5.204  10.660  0.0780  0.6658  0.7119
 6351TIP3    H240469   3.917   5.306  10.772  0.1518 -0.8696  2.1427
 6352TIP3   OH240470   3.025   4.516   4.029 -0.1146 -0.0728 -0.0595
 6352TIP3    H140471   3.089   4.576   3.992 -0.2663  0.2872  0.2601
 6352TIP3    H240472   3.042   4.433   3.985  2.6805 -0.8686  2.2160
 6353TIP3   OH240473   1.014   1.619   4.875 -0.0764 -0.1073 -0.1365
 6353TIP3    H140474   1.023   1.558   4.802  0.4097  1.4000 -1.4013
 6353TIP3    H240475   0.935   1.669   4.854  0.4407  0.7860  0.0052
 6354TIP3   OH240476   0.171   2.393  16.889  0.2413 -0.0170 -0.6744
 6354TIP3    H140477   0.254   2.419  16.929  0.7298 -1.2946 -0.7983
 6354TIP3    H240478   0.196   2.332  16.820 -0.7900 -0.2036 -0.9025
 6355TIP3   OH240479   0.328   5.829   2.197 -0.0055  0.2369 -0.7330
 6355TIP3    H140480   0.414   5.804   2.231 -0.5082 -0.9912 -0.3323
 6355TIP3    H240481   0.343   5.839   2.103  0.6552  0.3823 -0.6220
 6356TIP3   OH240482   0.330   3.555  14.677  0.4504 -0.1940  0.2433
 6356TIP3    H140483   0.244   3.577  14.641 -0.1454  1.4337  2.4443
 6356TIP3    H240484   0.386   3.629  14.652 -0.3877  1.8780  3.7270
 6357TIP3   OH240485   3.791   0.752   2.163  0.3352 -0.4258  0.4902
 6357TIP3    H140486   3.849   0.741   2.238 -2.0592 -0.7332  2.3982
 6357TIP3    H240487   3.785   0.664   2.125  0.7173 -0.4797  0.5452
 6358TIP3   OH240488   3.409   0.850   3.608  0.2467 -0.2467  0.5141
 6358TIP3    H140489   3.415   0.758   3.633 -1.9411 -0.5800 -0.0207
 6358TIP3    H240490   3.409   0.897   3.691  2.1010 -0.6239  0.7792
 6359TIP3   OH240491   3.780   4.406  12.937 -0.0834  0.4483 -0.2075
 6359TIP3    H140492   3.704   4.457  12.909 -0.2197 -0.0601 -0.7955
 6359TIP3    H240493   3.820   4.458  13.006 -1.2879  0.4715  0.5107
 6360TIP3   OH240494   6.447   4.661   1.325  0.2661  0.9305  0.2479
 6360TIP3    H140495   6.492   4.739   1.357 -1.2740  1.5385  1.0151
 6360TIP3    H240496   6.399   4.690   1.248 -1.2948  1.0652  1.2446
 6361TIP3   OH240497   6.014   6.213  14.970  0.0958 -0.3302 -0.2234
 6361TIP3    H140498   6.035   6.200  14.877 -1.7763 -2.1549 -0.4689
 6361TIP3    H240499   6.095   6.190  15.016  1.0143  0.4669 -1.3542
 6362TIP3   OH240500   5.741   6.669   1.362  0.0580  0.3171  0.0204
 6362TIP3    H140501   5.817   6.708   1.405 -0.1779 -0.6707  1.3775
 6362TIP3    H240502   5.666   6.697   1.414 -0.2206 -1.0157  0.3740
 6363TIP3   OH240503   0.140   0.059  14.211  0.4191 -0.0241  0.2647
 6363TIP3    H140504   0.075   0.100  14.154  1.4266  1.4792  0.1347
 6363TIP3    H240505   0.146   0.117  14.286  0.2376 -1.1733  1.1921
 6364TIP3   OH240506   6.692   5.962  13.609 -1.0686 -0.7833 -0.0832
 6364TIP3    H140507   6.673   6.029  13.544 -0.7811 -0.8491 -0.2337
 6364TIP3    H240508   6.787   5.966  13.622 -0.4499 -3.5416 -2.7180
 6365TIP3   OH240509   4.803   0.811  12.621 -0.6856  0.3277  0.2172
 6365TIP3    H140510   4.819   0.721  12.593  2.6223  0.6466  0.6723
 6365TIP3    H240511   4.756   0.802  12.704 -1.8969 -0.8956 -0.5625
 6366TIP3   OH240512   0.705   2.465  11.490  0.3147 -0.0565  0.0061
 6366TIP3    H140513   0.799   2.473  11.473 -0.1386  0.8543 -2.5412
 6366TIP3    H240514   0.665   2.536  11.440 -1.6798  0.4902  2.1687
 6367TIP3   OH240515   2.798   4.786  14.005  0.3532 -0.3984 -0.6254
 6367TIP3    H140516   2.804   4.841  13.927  0.2228  1.9165  0.9088
 6367TIP3    H240517   2.821   4.844  14.077 -0.7752 -2.1152  1.2080
 6368TIP3   OH240518   4.896   3.899  16.533  0.1321  0.2897 -0.2111
 6368TIP3    H140519   4.870   3.947  16.454  0.5234  1.1531  0.1721
 6368TIP3    H240520   4.814   3.873  16.574 -0.1443 -2.3901 -2.1593
 6369TIP3   OH240521   2.512   4.421   0.529 -0.5201  0.6559  0.2372
 6369TIP3    H140522   2.430   4.442   0.485  0.6618  0.8995 -2.0124
 6369TIP3    H240523   2.567   4.499   0.516  0.7797 -0.2932 -0.1818
 6370TIP3   OH240524   1.299   3.246  13.331  0.5384 -0.0151 -0.0801
 6370TIP3    H140525   1.295   3.311  13.261  0.7110  1.1675  0.9813
 6370TIP3    H240526   1.225   3.266  13.388  1.7941  0.6288  1.4019
 6371TIP3   OH240527   3.405   0.219   2.201 -0.2369 -0.4592  0.1324
 6371TIP3    H140528   3.348   0.143   2.214  0.3533 -0.8551  0.4268
 6371TIP3    H240529   3.485   0.182   2.162 -0.5142  0.2010 -1.1325
 6372TIP3   OH240530   3.846   3.303  15.767  0.5409  0.2081 -0.7384
 6372TIP3    H140531   3.797   3.263  15.695  1.4680  0.6069 -1.6271
 6372TIP3    H240532   3.910   3.237  15.792 -1.2554 -0.8755  1.3769
 6373TIP3   OH240533   2.228   1.974   0.683  0.6461 -1.2668  0.0237
 6373TIP3    H140534   2.162   2.034   0.718 -0.3600 -1.4170 -1.5017
 6373TIP3    H240535   2.237   1.906   0.750 -1.5056 -1.7847 -0.1286
 6374TIP3   OH240536   6.626   6.018  14.959  0.2046  0.5204  0.0205
 6374TIP3    H140537   6.573   6.094  14.982 -0.8893 -0.3531  0.4890
 6374TIP3    H240538   6.600   5.996  14.870  1.1687  1.1933 -0.4558
 6375TIP3   OH240539   6.071   6.686  15.178  0.2866 -0.2931 -0.4358
 6375TIP3    H140540   6.121   6.614  15.217 -1.0150 -1.4841 -0.8997
 6375TIP3    H240541   5.981   6.670  15.205 -0.0412  1.1502 -0.6023
 6376TIP3   OH240542   6.511   5.968   6.020  0.0019 -0.9286 -0.1169
 6376TIP3    H140543   6.562   5.887   6.025  0.4506 -0.7068 -0.8393
 6376TIP3    H240544   6.555   6.019   5.952 -1.1774 -0.7114 -0.7451
 6377TIP3   OH240545   1.647   5.413  16.469 -0.1278 -0.0197  0.3917
 6377TIP3    H140546   1.559   5.438  16.441  0.1571  0.2938 -0.2368
 6377TIP3    H240547   1.669   5.338  16.414  0.7227  1.0467 -0.7819
 6378TIP3   OH240548   2.907   5.115   4.863 -0.1947 -0.4465 -1.0460
 6378TIP3    H140549   2.975   5.132   4.798  0.8916  1.0033  0.3691
 6378TIP3    H240550   2.872   5.029   4.840  0.5319 -0.2281 -3.1731
 6379TIP3   OH240551   0.011   2.608   4.232  0.6388  0.2322  0.0464
 6379TIP3    H140552  -0.021   2.693   4.262  2.4792  1.3373 -0.9846
 6379TIP3    H240553   0.021   2.557   4.313 -1.4204  0.5853  0.5994
 6380TIP3   OH240554   1.530   4.709   6.799  0.3845  0.0419 -0.6699
 6380TIP3    H140555   1.538   4.646   6.727 -0.1725 -0.0224 -0.6840
 6380TIP3    H240556   1.452   4.760   6.777 -0.2299 -0.4618  0.2439
 6381TIP3   OH240557   6.263   0.735   4.355  0.8084 -0.1845  0.4275
 6381TIP3    H140558   6.327   0.706   4.420  3.6621  1.1370 -1.5552
 6381TIP3    H240559   6.253   0.661   4.295  0.0370 -0.5732  1.0250
 6382TIP3   OH240560   4.002   1.259   5.414 -0.4740 -0.3363 -0.4460
 6382TIP3    H140561   3.961   1.185   5.456 -0.7836 -0.1009 -0.3328
 6382TIP3    H240562   4.032   1.315   5.486 -0.0980 -0.4252 -0.5280
 6383TIP3   OH240563   6.085   2.575   4.513 -0.4025  0.4980 -0.1456
 6383TIP3    H140564   6.128   2.557   4.597 -0.8187 -0.0091 -0.0382
 6383TIP3    H240565   5.996   2.599   4.537 -0.3956  0.7953 -0.4183
 6384TIP3   OH240566   2.866   6.557  15.336 -0.4548 -0.9633 -0.4705
 6384TIP3    H140567   2.879   6.561  15.430 -0.0584 -0.3734 -0.5445
 6384TIP3    H240568   2.890   6.644  15.304 -0.5027 -1.1805 -1.1250
 6385TIP3   OH240569   2.184   6.372  15.924  0.0034 -0.2733  0.1383
 6385TIP3    H140570   2.206   6.372  15.831  0.4105 -0.1560  0.2359
 6385TIP3    H240571   2.190   6.280  15.950 -2.4331 -0.7064 -0.4880
 6386TIP3   OH240572   3.518   0.283   3.183  0.7984  0.6936 -0.2482
 6386TIP3    H140573   3.513   0.195   3.146  0.0724  0.5457  0.1987
 6386TIP3    H240574   3.551   0.270   3.272  0.0032  0.8077  0.0640
 6387TIP3   OH240575   2.016   6.484  13.449 -0.8855 -0.1995 -0.1576
 6387TIP3    H140576   1.995   6.533  13.528  0.4091  0.3322 -0.1066
 6387TIP3    H240577   2.021   6.550  13.380  1.1415 -0.1450 -0.0396
 6388TIP3   OH240578   4.166   1.880  12.646  0.0113  0.0398 -0.3356
 6388TIP3    H140579   4.118   1.923  12.575 -0.9473  0.1241  0.3515
 6388TIP3    H240580   4.239   1.837  12.602 -2.0782 -2.2651 -1.8168
 6389TIP3   OH240581   4.584   0.007   1.045 -0.3546 -0.0606  0.3703
 6389TIP3    H140582   4.514  -0.055   1.028 -1.2716  0.8226  0.8324
 6389TIP3    H240583   4.540   0.089   1.067  0.7914  0.2447  1.7588
 6390TIP3   OH240584   4.445   4.563  12.372  0.5906  0.2030  0.4986
 6390TIP3    H140585   4.359   4.583  12.409  0.7343  0.6538  0.5959
 6390TIP3    H240586   4.438   4.591  12.281  0.3685 -0.5340  0.2786
 6391TIP3   OH240587   4.364   1.561   0.890  0.0222 -0.0045  0.0151
 6391TIP3    H140588   4.318   1.486   0.855 -0.1947 -0.2484  0.8006
 6391TIP3    H240589   4.330   1.571   0.979 -0.3583  1.3515 -0.2589
 6392TIP3   OH240590   1.149   5.781   5.665 -0.2634  0.4142  0.2940
 6392TIP3    H140591   1.142   5.816   5.754  0.1138 -1.5527  1.1325
 6392TIP3    H240592   1.243   5.769   5.651 -0.3907 -0.3363  0.0563
 6393TIP3   OH240593   1.989   5.856  16.417  0.6275  0.4013  0.2769
 6393TIP3    H140594   2.078   5.822  16.407  0.7423  1.2686 -2.3347
 6393TIP3    H240595   1.933   5.779  16.403  0.9311  0.1121  0.6147
 6394TIP3   OH240596   1.418   5.680   4.848  0.0016 -0.3540 -0.2256
 6394TIP3    H140597   1.412   5.622   4.924  2.0774 -0.2373  0.0785
 6394TIP3    H240598   1.483   5.640   4.791  0.1688  0.7439 -0.8455
 6395TIP3   OH240599   1.521   5.571   1.976 -1.1065  0.2999  0.6831
 6395TIP3    H140600   1.532   5.486   2.019  0.0934  0.6718  1.1670
 6395TIP3    H240601   1.479   5.626   2.042  0.4059  0.7681  1.3003
 6396TIP3   OH240602   2.920   2.146   1.253 -0.2627 -0.7566 -0.3085
 6396TIP3    H140603   2.879   2.212   1.310  0.4983 -1.4441  1.1026
 6396TIP3    H240604   2.970   2.197   1.190 -0.7847  0.0354 -0.1041
 6397TIP3   OH240605   5.362   1.457   2.916  0.2687  0.2962  0.3775
 6397TIP3    H140606   5.381   1.432   3.006 -0.2910  1.1225  0.7371
 6397TIP3    H240607   5.430   1.415   2.864  0.5569 -0.2361  1.1799
 6398TIP3   OH240608   4.804   3.318   1.079  0.0587  0.8687  0.3691
 6398TIP3    H140609   4.889   3.330   1.036  0.6421 -0.4951  1.0972
 6398TIP3    H240610   4.740   3.330   1.008  0.9153  0.4316 -0.5037
 6399TIP3   OH240611   3.901   1.015  15.063  0.4965  0.6815 -0.6651
 6399TIP3    H140612   3.978   1.042  15.013  0.8102  0.8391 -0.0998
 6399TIP3    H240613   3.845   0.971  14.998  0.9908  0.6967 -1.1092
 6400TIP3   OH240614   0.071   1.213  14.823  0.0095 -0.3988  0.1376
 6400TIP3    H140615   0.148   1.184  14.774 -0.5900 -2.7039  0.4390
 6400TIP3    H240616   0.051   1.299  14.787  1.5947 -0.5621 -1.2726
 6401TIP3   OH240617   2.691   6.475   2.996 -0.4298  0.0711  0.2197
 6401TIP3    H140618   2.654   6.563   3.008 -0.6621 -0.2482  2.3699
 6401TIP3    H240619   2.759   6.486   2.930  0.4420  2.1721  1.3721
 6402TIP3   OH240620   2.486   5.742   5.638  0.5079  0.3068 -0.4873
 6402TIP3    H140621   2.494   5.787   5.722  1.9171 -0.2825 -0.2817
 6402TIP3    H240622   2.423   5.673   5.655  2.2691 -1.1072  0.7170
 6403TIP3   OH240623   6.314   1.055  17.117  0.3438 -0.0141 -0.3576
 6403TIP3    H140624   6.389   1.106  17.149  0.2098 -0.4748  0.7078
 6403TIP3    H240625   6.330   0.966  17.148 -0.8310 -0.0418  0.2174
 6404TIP3   OH240626   1.474   5.755   3.748  0.2224  0.1825 -0.0059
 6404TIP3    H140627   1.384   5.736   3.775 -0.0723 -0.3667 -1.3187
 6404TIP3    H240628   1.482   5.850   3.757 -0.4290  0.2154  0.2895
 6405TIP3   OH240629   2.308   6.119  13.619  0.3925  0.9219 -0.2611
 6405TIP3    H140630   2.315   6.164  13.703 -2.3390  0.8766  0.0824
 6405TIP3    H240631   2.399   6.109  13.590  1.3980  1.4000  2.4009
 6406TIP3   OH240632   0.056   4.141   4.939 -0.9322 -0.3522 -0.4883
 6406TIP3    H140633  -0.038   4.146   4.958 -0.3788  1.2094  2.4915
 6406TIP3    H240634   0.093   4.097   5.016  0.6788 -2.5720 -2.3808
 6407TIP3   OH240635   0.009   1.851  11.925 -0.3332 -0.3845  0.5249
 6407TIP3    H140636  -0.071   1.819  11.884 -0.0216  2.1509 -2.4134
 6407TIP3    H240637   0.064   1.773  11.935 -2.5896 -1.9631  1.4229
 6408TIP3   OH240638   3.562   5.325   3.023  0.3689  0.5782 -0.2898
 6408TIP3    H140639   3.524   5.246   2.985  0.5822  0.3458 -0.0213
 6408TIP3    H240640   3.574   5.384   2.949  4.1839 -1.1654 -1.3217
 6409TIP3   OH240641   6.062   3.260   2.519  0.0735  0.7107 -0.2485
 6409TIP3    H140642   5.968   3.267   2.538 -0.1481  0.4401 -1.2069
 6409TIP3    H240643   6.083   3.169   2.538  0.3767  1.0003  0.9141
 6410TIP3   OH240644   6.661   4.262  14.327 -0.2902  0.8222  0.5875
 6410TIP3    H140645   6.601   4.200  14.368 -0.9739  1.0407 -0.0609
 6410TIP3    H240646   6.739   4.259  14.381 -0.1540 -0.8928  0.3473
 6411TIP3   OH240647   4.755   0.865  11.883 -0.6653  0.0666  0.0932
 6411TIP3    H140648   4.707   0.945  11.861  0.2206  0.8245  0.8628
 6411TIP3    H240649   4.788   0.880  11.971 -1.5825 -1.6965  0.7963
 6412TIP3   OH240650   2.877   5.454   4.368  0.0062  0.5493  0.0675
 6412TIP3    H140651   2.787   5.478   4.390 -0.3004  1.2961 -1.8194
 6412TIP3    H240652   2.885   5.476   4.275  1.8486 -0.3988 -0.0283
 6413TIP3   OH240653   2.792   2.791  11.611 -0.1588  0.1882 -0.2176
 6413TIP3    H140654   2.765   2.868  11.562  1.1808  0.3212 -0.7938
 6413TIP3    H240655   2.764   2.717  11.556  0.5990  0.3195 -0.7863
 6414TIP3   OH240656   3.651   2.137  15.234  0.0772 -0.1757 -0.1237
 6414TIP3    H140657   3.654   2.178  15.148 -1.0660  0.4534  0.1120
 6414TIP3    H240658   3.736   2.159  15.274  0.1751  0.4632 -0.6692
 6415TIP3   OH240659   5.531   3.897   3.607 -0.3053 -0.0789 -0.6630
 6415TIP3    H140660   5.554   3.839   3.679  1.6541  3.0464  1.4841
 6415TIP3    H240661   5.435   3.900   3.607 -0.3583 -0.1529  1.9026
 6416TIP3   OH240662   5.864   5.702   4.268 -0.0277  0.4063  0.0356
 6416TIP3    H140663   5.786   5.658   4.302  0.2541 -0.8489 -0.8662
 6416TIP3    H240664   5.937   5.653   4.305  0.2870 -0.3649 -1.5209
 6417TIP3   OH240665   4.331   2.403   4.776 -0.0060  0.0660  0.2444
 6417TIP3    H140666   4.359   2.445   4.695 -0.2754 -0.1646  0.0287
 6417TIP3    H240667   4.238   2.422   4.782  0.0466  0.2382  0.5999
 6418TIP3   OH240668   4.455   1.324   1.886  0.7084  0.0942 -0.7800
 6418TIP3    H140669   4.410   1.296   1.965  0.2231 -1.6314 -1.6085
 6418TIP3    H240670   4.405   1.400   1.855 -0.9449 -1.0287 -1.0087
 6419TIP3   OH240671   2.657   3.394   0.151 -0.0767  0.0730  0.7654
 6419TIP3    H140672   2.744   3.397   0.192 -0.8629 -0.9583  2.6105
 6419TIP3    H240673   2.676   3.382   0.058  1.7635  1.0372  0.9659
 6420TIP3   OH240674   6.211   4.970  15.760 -0.4581  0.0608 -0.1965
 6420TIP3    H140675   6.250   4.883  15.749 -0.8810 -0.1732  0.1246
 6420TIP3    H240676   6.252   5.024  15.692  1.8572  0.3194  1.2635
 6421TIP3   OH240677   2.930   5.495  15.065  0.5294  0.3888 -0.2446
 6421TIP3    H140678   3.021   5.477  15.039  0.7648 -0.2644  0.9824
 6421TIP3    H240679   2.917   5.586  15.040  1.6252  0.5911 -0.1568
 6422TIP3   OH240680   6.778   2.246   5.015  0.2712 -0.3542 -0.1953
 6422TIP3    H140681   6.735   2.165   4.987 -0.8736 -0.4239  1.6202
 6422TIP3    H240682   6.801   2.231   5.107 -0.5494  1.6079  0.3807
 6423TIP3   OH240683   5.681   5.761   4.698 -0.2387  0.1920 -0.1692
 6423TIP3    H140684   5.602   5.725   4.737 -0.3773 -0.5613 -1.1103
 6423TIP3    H240685   5.674   5.856   4.713 -1.0217  0.0700  0.2758
 6424TIP3   OH240686   2.075   2.806   0.057  0.0130 -0.2298  0.0331
 6424TIP3    H140687   2.045   2.873   0.118  1.2692  0.6483 -0.2606
 6424TIP3    H240688   2.125   2.745   0.111 -0.1755 -0.2965  0.1305
 6425TIP3   OH240689   0.188   6.399   3.655  0.1414 -0.4949  0.0968
 6425TIP3    H140690   0.215   6.369   3.741  1.6836 -2.1555 -0.9074
 6425TIP3    H240691   0.092   6.398   3.658  0.1529 -2.3141  1.2271
 6426TIP3   OH240692   0.189   5.426  17.114 -0.0766 -0.2143 -0.0185
 6426TIP3    H140693   0.127   5.490  17.149 -0.4146  0.3485 -1.5664
 6426TIP3    H240694   0.262   5.427  17.177 -0.7788  0.5220  0.8131
 6427TIP3   OH240695   0.011   5.018   1.439  0.2643 -0.0039  0.1692
 6427TIP3    H140696   0.002   5.095   1.496  1.3040 -0.0530  0.4211
 6427TIP3    H240697  -0.030   4.947   1.488  1.3054 -0.0863  0.9663
 6428TIP3   OH240698   0.325   2.459  11.424  0.6159 -0.3664 -0.3280
 6428TIP3    H140699   0.241   2.502  11.407  0.5940 -0.2115  0.1728
 6428TIP3    H240700   0.390   2.529  11.412  0.6663 -0.4581 -0.5978
 6429TIP3   OH240701   4.601   2.481   3.615  0.0342 -0.5761 -0.1736
 6429TIP3    H140702   4.552   2.435   3.547  0.2695 -2.1237  0.6673
 6429TIP3    H240703   4.631   2.413   3.675  0.2873  0.6722  1.2090
 6430TIP3   OH240704   6.125   3.818   4.416 -0.2930 -0.2117 -0.0776
 6430TIP3    H140705   6.162   3.901   4.447  0.5504 -0.3568 -0.6547
 6430TIP3    H240706   6.190   3.752   4.440 -1.1884 -0.7909  0.8242
 6431TIP3   OH240707   5.801   5.669  13.976  0.1247 -0.1176 -0.4895
 6431TIP3    H140708   5.750   5.644  14.053 -0.6274  2.9605  0.1614
 6431TIP3    H240709   5.749   5.738  13.934  2.1060  0.6449 -1.8302
 6432TIP3   OH240710   2.969   3.991   5.861 -0.2509 -0.6503  0.5130
 6432TIP3    H140711   2.934   4.079   5.851  0.1741 -0.2403  2.2979
 6432TIP3    H240712   2.899   3.934   5.828 -1.7598  0.2372  1.9943
 6433TIP3   OH240713   5.638   3.289  11.586  0.2418 -1.1010 -0.0089
 6433TIP3    H140714   5.604   3.256  11.670  0.0920 -0.4099  0.2090
 6433TIP3    H240715   5.724   3.248  11.577  0.9265 -0.0090  1.2390
 6434TIP3   OH240716   0.931   5.714  13.059  0.3863 -0.1437  0.4901
 6434TIP3    H140717   0.975   5.731  13.143 -0.9992  0.0525  1.2062
 6434TIP3    H240718   0.916   5.801  13.023  0.0796 -0.1819  0.5253
 6435TIP3   OH240719   4.285   2.158   3.259  0.3736 -0.1498 -0.3628
 6435TIP3    H140720   4.336   2.192   3.186 -0.1511  1.4961 -0.0097
 6435TIP3    H240721   4.276   2.232   3.319 -3.0700 -0.0702 -0.7471
 6436TIP3   OH240722   1.590   2.863   2.154  0.4754  0.0526 -0.9194
 6436TIP3    H140723   1.669   2.817   2.125 -0.2794 -0.7707 -1.7303
 6436TIP3    H240724   1.562   2.913   2.078  0.6521  0.9777 -0.3862
 6437TIP3   OH240725   5.740   2.909   0.113 -0.0977 -0.1229 -0.1292
 6437TIP3    H140726   5.759   2.886   0.022  1.6060  0.5290  0.0254
 6437TIP3    H240727   5.692   2.991   0.108 -1.4286 -0.8912 -0.4732
 6438TIP3   OH240728   1.653   0.957  13.501 -0.6384  0.2486  0.4076
 6438TIP3    H140729   1.584   0.931  13.439 -0.4947 -0.4313  0.5242
 6438TIP3    H240730   1.605   0.993  13.576 -0.7980  1.5863 -0.3061
 6439TIP3   OH240731   6.445   5.016  16.241  0.2041 -0.0054 -0.1037
 6439TIP3    H140732   6.436   4.968  16.159 -1.4578 -1.7781  1.0392
 6439TIP3    H240733   6.535   5.049  16.239  0.4624 -0.6761 -2.2517
 6440TIP3   OH240734   1.711   5.958   6.592 -0.1944 -0.3080  0.5157
 6440TIP3    H140735   1.735   5.969   6.500  1.9822 -0.6881  0.9686
 6440TIP3    H240736   1.631   6.009   6.603 -0.7522 -0.6123 -1.6681
 6441TIP3   OH240737   0.300   2.655   3.736 -0.2204 -0.0542 -0.4517
 6441TIP3    H140738   0.241   2.605   3.679 -0.7216  0.7751 -0.6870
 6441TIP3    H240739   0.257   2.654   3.821  0.3702 -1.0268 -0.1589
 6442TIP3   OH240740   1.955   4.567   3.345  0.0021  0.0773  0.7468
 6442TIP3    H140741   1.895   4.493   3.358 -0.2287  0.2926  0.9154
 6442TIP3    H240742   1.923   4.609   3.265 -1.5120  1.5466  2.0331
 6443TIP3   OH240743   0.154   2.858   4.464  0.3796  0.0299  0.1194
 6443TIP3    H140744   0.106   2.938   4.444 -0.5532 -0.8073 -1.2211
 6443TIP3    H240745   0.226   2.857   4.400 -0.2412 -0.6855 -0.6030
 6444TIP3   OH240746   4.463   4.905  16.578  0.2515  0.5341  0.5256
 6444TIP3    H140747   4.449   4.899  16.483  1.7693  0.7402  0.2659
 6444TIP3    H240748   4.550   4.943  16.587  0.9455 -1.2518  1.9895
 6445TIP3   OH240749   0.732   5.067   3.786 -0.1622 -0.6142 -0.2635
 6445TIP3    H140750   0.733   5.115   3.869 -2.2838  0.3304 -0.7177
 6445TIP3    H240751   0.695   5.129   3.724 -1.3511 -2.2750 -1.2730
 6446TIP3   OH240752   3.384   6.737  11.848  0.0441  0.5257 -0.3733
 6446TIP3    H140753   3.338   6.820  11.843 -1.6867 -0.4383 -2.4832
 6446TIP3    H240754   3.447   6.739  11.775 -1.8183 -0.8856 -2.1608
 6447TIP3   OH240755   4.585   2.853   1.529 -0.1231 -0.4415 -0.0911
 6447TIP3    H140756   4.497   2.888   1.515  0.0097 -0.4233 -0.9021
 6447TIP3    H240757   4.601   2.798   1.453  0.0162 -1.5809  0.7442
 6448TIP3   OH240758   2.322   4.583  11.944  0.6121  0.0341  0.1825
 6448TIP3    H140759   2.262   4.526  11.992  0.2148 -0.4022 -0.7960
 6448TIP3    H240760   2.400   4.589  11.999 -0.7257  1.5599  2.0616
 6449TIP3   OH240761   0.943   2.366   2.904  0.2271 -0.4356 -0.3260
 6449TIP3    H140762   0.979   2.426   2.839  2.0072 -0.3141  0.6850
 6449TIP3    H240763   1.004   2.292   2.904 -2.1068 -2.5019 -1.8091
 6450TIP3   OH240764   0.749   2.933   4.782  0.0722  0.4522  0.6872
 6450TIP3    H140765   0.685   2.903   4.846  1.3812 -1.7686  1.0205
 6450TIP3    H240766   0.716   2.900   4.698 -0.3904  1.3267  0.5039
 6451TIP3   OH240767   6.001   1.720  13.705 -0.0730  0.4435 -0.3231
 6451TIP3    H140768   6.094   1.741  13.695  0.0610 -0.0343 -0.1439
 6451TIP3    H240769   5.985   1.651  13.640 -0.2893  0.4906 -0.3215
 6452TIP3   OH240770   1.775   5.619   5.812 -0.4398 -0.2561 -0.0366
 6452TIP3    H140771   1.748   5.711   5.817 -1.5778 -0.6206  0.7822
 6452TIP3    H240772   1.740   5.579   5.891  0.5281 -1.2878 -0.1040
 6453TIP3   OH240773   2.978   4.571  15.674  0.3263 -0.0299 -0.3192
 6453TIP3    H140774   2.992   4.495  15.731 -1.2193  0.7034  1.1221
 6453TIP3    H240775   3.022   4.548  15.593  0.8169 -2.0180  0.4422
 6454TIP3   OH240776   0.230   3.697   5.181  0.0145  0.1897 -0.2412
 6454TIP3    H140777   0.183   3.725   5.259  0.5362 -3.6791  1.6931
 6454TIP3    H240778   0.318   3.732   5.192  0.1816 -0.6112  1.1521
 6455TIP3   OH240779   4.081   3.969   2.477 -0.2763 -0.1299  0.4247
 6455TIP3    H140780   4.141   4.041   2.462  0.3332 -0.0899  2.6978
 6455TIP3    H240781   4.115   3.924   2.555 -1.7896 -1.6289  0.2969
 6456TIP3   OH240782   3.532   4.145  12.178 -0.1913 -0.3071  0.7342
 6456TIP3    H140783   3.591   4.103  12.116 -0.3151 -1.0558  1.1104
 6456TIP3    H240784   3.581   4.223  12.208  0.0611 -0.2027  0.0748
 6457TIP3   OH240785   0.444   5.488   3.442  0.0298  0.3014  0.6857
 6457TIP3    H140786   0.353   5.462   3.430  0.4815 -0.4878 -1.2853
 6457TIP3    H240787   0.474   5.436   3.517 -0.3788 -1.5374 -0.3647
 6458TIP3   OH240788   0.548   4.425  13.600 -0.4447 -0.1809 -0.2131
 6458TIP3    H140789   0.601   4.345  13.591  0.1647  0.0047  1.4161
 6458TIP3    H240790   0.462   4.394  13.629 -0.3400 -0.2815 -0.0080
 6459TIP3   OH240791   5.360   1.041   3.023 -0.3709  0.0188  0.3382
 6459TIP3    H140792   5.427   1.110   3.021 -0.2217 -0.0295 -3.3116
 6459TIP3    H240793   5.289   1.075   2.968 -2.1967 -1.0775  1.9001
 6460TIP3   OH240794   4.558   2.409   4.344  0.4990  0.3143 -0.5372
 6460TIP3    H140795   4.630   2.373   4.395  0.4474  0.8762 -0.0541
 6460TIP3    H240796   4.563   2.364   4.260 -1.0020 -2.5571  0.7812
 6461TIP3   OH240797   2.277   4.241   0.363 -0.0607  0.2167  1.3323
 6461TIP3    H140798   2.271   4.158   0.410 -1.7492 -0.2388  0.3934
 6461TIP3    H240799   2.236   4.305   0.422 -1.8044 -0.2773  0.7108
 6462TIP3   OH240800   0.995   1.590  11.867 -0.7264  0.0863 -0.4060
 6462TIP3    H140801   0.989   1.636  11.951  0.8112 -0.5545  0.0855
 6462TIP3    H240802   0.973   1.656  11.802 -1.0369  0.8414  0.4429
 6463TIP3   OH240803   4.618   1.147  13.898 -0.1417 -0.2164 -0.2264
 6463TIP3    H140804   4.601   1.220  13.838  0.8654 -1.0905 -1.6265
 6463TIP3    H240805   4.654   1.189  13.976  0.9296  0.7836 -1.2041
 6464TIP3   OH240806   4.936   0.837  11.457 -0.5243 -0.2707 -0.2757
 6464TIP3    H140807   5.004   0.783  11.416 -0.4498 -0.5524  0.2150
 6464TIP3    H240808   4.897   0.780  11.523 -0.9458  0.0353 -0.2595
 6465TIP3   OH240809   3.487   4.492   0.007  0.9140 -0.3081 -0.1982
 6465TIP3    H140810   3.462   4.554   0.075  0.2237 -1.2572  0.4444
 6465TIP3    H240811   3.408   4.482  -0.046  0.4804 -1.8764  0.6959
 6466TIP3   OH240812   0.820   5.361  13.522 -0.0484  0.3581 -0.5452
 6466TIP3    H140813   0.812   5.424  13.450  2.9147  1.4139 -0.0952
 6466TIP3    H240814   0.736   5.367  13.569 -1.8669  0.0394 -3.4775
 6467TIP3   OH240815   1.108   3.461  14.561  0.1374 -0.4153  0.9604
 6467TIP3    H140816   1.067   3.466  14.647  0.1288 -0.2100  0.9443
 6467TIP3    H240817   1.111   3.368  14.541 -0.0663 -0.4487  1.0858
 6468TIP3   OH240818   0.363   3.592  13.705 -0.2061  0.1066  0.2649
 6468TIP3    H140819   0.316   3.553  13.631 -0.4654  0.5686  0.1849
 6468TIP3    H240820   0.417   3.520  13.739 -1.3319 -0.5687  0.6617
 6469TIP3   OH240821   0.579   4.614   3.410  0.0631 -0.6497  0.0256
 6469TIP3    H140822   0.674   4.600   3.408 -0.2210 -2.9959 -0.0790
 6469TIP3    H240823   0.564   4.662   3.491  1.1793 -2.0652  1.1465
 6470TIP3   OH240824   6.577   3.202   2.545 -0.2940  0.2782  0.3969
 6470TIP3    H140825   6.656   3.175   2.499 -1.6355 -1.6844 -0.9210
 6470TIP3    H240826   6.589   3.296   2.560  2.0791  0.1100 -0.1097
 6471TIP3   OH240827   0.102   0.203  14.727  0.3980  0.1503 -0.9649
 6471TIP3    H140828   0.174   0.164  14.775 -0.0976  0.0741 -0.2713
 6471TIP3    H240829   0.126   0.294  14.715  0.9368 -0.0427 -1.3868
 6472TIP3   OH240830   1.822   1.004   1.977  0.7059 -0.0320 -0.8433
 6472TIP3    H140831   1.870   1.086   1.987 -0.2427  0.4897 -0.4222
 6472TIP3    H240832   1.731   1.031   1.965  0.2006 -1.0395  0.4213
 6473TIP3   OH240833   1.686   4.021  14.515  0.0965 -0.4225  0.1170
 6473TIP3    H140834   1.634   3.964  14.571 -0.5267  0.0040 -0.0122
 6473TIP3    H240835   1.728   3.962  14.452  0.3184 -0.8384  0.6546
 6474TIP3   OH240836   3.573   1.200  16.015 -0.7977 -0.1550 -0.9144
 6474TIP3    H140837   3.482   1.223  15.996 -1.1506 -1.6641 -1.1691
 6474TIP3    H240838   3.620   1.219  15.933 -0.4075  2.6771 -0.1459
 6475TIP3   OH240839   5.798   0.564  16.301  0.2076  0.4400  0.3425
 6475TIP3    H140840   5.876   0.541  16.352 -0.3992 -3.5472 -0.1888
 6475TIP3    H240841   5.832   0.615  16.228  2.5697 -1.8637 -0.3341
 6476TIP3   OH240842   5.173   2.954   5.002 -0.2235  0.4770  0.2851
 6476TIP3    H140843   5.121   2.958   4.921  0.0279 -0.6243  0.0436
 6476TIP3    H240844   5.129   3.014   5.062 -1.4752 -0.0150 -0.0952
 6477TIP3   OH240845   4.156   1.779  14.075  0.3999 -0.1193 -0.5714
 6477TIP3    H140846   4.210   1.746  14.004 -0.2571  2.3491 -2.3626
 6477TIP3    H240847   4.096   1.841  14.033 -1.8553 -0.5504  1.7506
 6478TIP3   OH240848   4.867   6.083   1.900  0.1100 -0.0244 -0.1219
 6478TIP3    H140849   4.961   6.077   1.916 -0.1615 -2.6516  0.9933
 6478TIP3    H240850   4.856   6.060   1.808  0.5188 -0.4976 -0.0564
 6479TIP3   OH240851   2.656   6.183   1.429 -0.0013 -0.2023 -0.1067
 6479TIP3    H140852   2.712   6.116   1.389  1.3200 -0.2942  1.7295
 6479TIP3    H240853   2.642   6.152   1.518 -0.4792  1.3078  0.3747
 6480TIP3   OH240854   2.156   3.102  16.589  0.2477  0.4125  0.1480
 6480TIP3    H140855   2.122   3.060  16.668 -2.5350  1.2788 -0.4825
 6480TIP3    H240856   2.250   3.083  16.590  0.0208 -0.9868  2.7746
 6481TIP3   OH240857   5.554   5.636  16.136  0.4222 -0.5674 -0.3833
 6481TIP3    H140858   5.579   5.650  16.227  2.7394  1.2426 -1.2254
 6481TIP3    H240859   5.563   5.722  16.095 -0.8623 -1.2851 -2.3017
 6482TIP3   OH240860   4.963   2.557   4.525 -0.2145  0.5818  0.1135
 6482TIP3    H140861   5.018   2.625   4.486  1.4538 -0.3584  0.7003
 6482TIP3    H240862   4.879   2.564   4.480 -0.0512  2.9250  0.0681
 6483TIP3   OH240863   5.728   0.224   1.397 -0.1078 -0.6433 -0.3515
 6483TIP3    H140864   5.688   0.311   1.396 -1.3460 -1.1971 -0.5676
 6483TIP3    H240865   5.728   0.198   1.489  0.9537 -0.1122 -0.1964
 6484TIP3   OH240866   3.739   1.654  13.788 -0.1384  0.2296  0.0900
 6484TIP3    H140867   3.737   1.701  13.872 -1.8131 -0.9616  0.7951
 6484TIP3    H240868   3.733   1.562  13.813 -2.2538 -0.0944 -1.3117
 6485TIP3   OH240869   4.665   1.756   2.214 -0.5899 -0.0219  0.3749
 6485TIP3    H140870   4.745   1.808   2.226 -0.2237 -0.1673 -1.2771
 6485TIP3    H240871   4.597   1.820   2.196 -0.5465  0.0028  0.3015
 6486TIP3   OH240872   0.816   6.204  14.961  0.3071 -0.0795 -0.0250
 6486TIP3    H140873   0.898   6.189  15.008  1.4327 -0.2628 -1.9315
 6486TIP3    H240874   0.822   6.295  14.933  0.0735 -0.2344 -0.5763
 6487TIP3   OH240875   5.692   5.659   0.779 -0.2093  0.6343  0.1704
 6487TIP3    H140876   5.654   5.663   0.692 -0.3039 -1.2518  0.0686
 6487TIP3    H240877   5.634   5.600   0.828  1.0091 -0.0775  0.8324
 6488TIP3   OH240878   1.621   5.541   6.825  0.5183 -0.4981 -0.4949
 6488TIP3    H140879   1.605   5.460   6.873 -0.5310 -0.0044  0.0213
 6488TIP3    H240880   1.589   5.523   6.737 -1.7301 -0.0023  0.1552
 6489TIP3   OH240881   0.070   0.482  14.704  0.0134 -0.4246  0.4185
 6489TIP3    H140882   0.123   0.557  14.681 -0.0539 -0.1176  1.2201
 6489TIP3    H240883   0.011   0.470  14.630 -0.9383  1.2025  0.8726
 6490TIP3   OH240884   3.173   6.405  15.867 -0.3272  0.4288 -0.3644
 6490TIP3    H140885   3.100   6.423  15.926 -0.3504 -1.0257  0.0881
 6490TIP3    H240886   3.248   6.446  15.909 -0.2999 -0.7788  0.8354
 6491TIP3   OH240887   2.022   2.604   0.685 -0.4874  0.6258 -0.2915
 6491TIP3    H140888   2.037   2.517   0.647 -3.1888  0.8742 -2.1983
 6491TIP3    H240889   1.941   2.594   0.735 -0.2841  1.8427  0.3194
 6492TIP3   OH240890   4.369   2.541   5.970  0.4201 -0.5273 -0.0236
 6492TIP3    H140891   4.352   2.618   6.024 -2.5883 -2.6287  2.3840
 6492TIP3    H240892   4.298   2.540   5.906  0.2288 -1.4544  0.1857
 6493TIP3   OH240893   5.636   5.842   1.482  0.1401 -0.2760 -0.2951
 6493TIP3    H140894   5.709   5.835   1.420  0.8291  0.1778  0.4420
 6493TIP3    H240895   5.613   5.935   1.482  1.2158  0.0302  1.2934
 6494TIP3   OH240896   3.868   0.928   3.406 -0.7246 -0.4813 -0.0385
 6494TIP3    H140897   3.833   0.861   3.464 -1.0209  0.5497  1.0158
 6494TIP3    H240898   3.948   0.959   3.450 -0.6730 -0.0353 -0.4337
 6495TIP3   OH240899   0.270   0.548  14.462  0.0299  0.4550  0.3623
 6495TIP3    H140900   0.346   0.492  14.479 -0.0077  0.5675  0.9072
 6495TIP3    H240901   0.301   0.611  14.397  0.1036 -0.1296 -0.1804
 6496TIP3   OH240902   3.615   3.140   3.318  0.2378  0.0073 -0.0965
 6496TIP3    H140903   3.578   3.121   3.232  0.4096  0.0160 -0.1711
 6496TIP3    H240904   3.544   3.186   3.365 -0.3606 -1.2437  0.2606
 6497TIP3   OH240905   0.763   6.381  14.353 -0.1031  0.5902 -0.0783
 6497TIP3    H140906   0.761   6.474  14.330 -1.2986  1.1667  2.0586
 6497TIP3    H240907   0.679   6.365  14.397  0.6941 -1.1245  0.9219
 6498TIP3   OH240908   4.872   1.599  14.415  0.2987 -0.1186 -0.2562
 6498TIP3    H140909   4.891   1.641  14.331  1.6126  0.8159  0.4876
 6498TIP3    H240910   4.939   1.631  14.474 -1.1414 -0.0460  1.4100
 6499TIP3   OH240911   3.044   1.207  17.233  0.6745  0.1430 -0.0958
 6499TIP3    H140912   2.949   1.217  17.231  0.6299  0.0064  1.0711
 6499TIP3    H240913   3.065   1.164  17.149 -0.1412  1.2401 -0.8869
 6500TIP3   OH240914   1.949   4.658  14.625 -0.5037 -0.2133 -0.0383
 6500TIP3    H140915   2.009   4.696  14.562  1.3369 -1.7130  0.7203
 6500TIP3    H240916   1.963   4.563  14.619 -1.8384 -0.5336  1.1007
 6501TIP3   OH240917   4.150   3.373  11.125 -0.1987  0.5032  0.0774
 6501TIP3    H140918   4.207   3.373  11.202  1.0695 -0.4584 -0.8177
 6501TIP3    H240919   4.140   3.465  11.101  1.5852  0.6516 -0.1708
 6502TIP3   OH240920   5.487   6.041   3.236 -0.1406 -0.5507 -0.0219
 6502TIP3    H140921   5.498   6.127   3.195  0.7627 -0.8184 -0.3771
 6502TIP3    H240922   5.445   6.059   3.320 -0.1231  0.2211 -0.1763
 6503TIP3   OH240923   4.911   1.633   3.539 -0.3434  0.3756  0.3066
 6503TIP3    H140924   4.884   1.700   3.477  1.4994  0.1710 -0.7870
 6503TIP3    H240925   4.893   1.550   3.494 -0.8020  0.1664  0.8606
 6504TIP3   OH240926   2.308   6.280  13.843 -0.0134 -0.0863  0.3597
 6504TIP3    H140927   2.242   6.302  13.909 -0.3770  1.8390 -0.5775
 6504TIP3    H240928   2.356   6.361  13.829  2.1487 -1.2608  0.5018
 6505TIP3   OH240929   2.071   1.006   2.890  0.2729  0.3355 -0.1746
 6505TIP3    H140930   2.119   0.940   2.840  0.2873  0.7443 -0.7136
 6505TIP3    H240931   2.037   0.959   2.966  0.8016 -0.1498 -0.2339
 6506TIP3   OH240932   1.230   2.503   0.623 -0.5496 -0.1254  0.5820
 6506TIP3    H140933   1.157   2.537   0.676  0.0218 -0.6886  1.7864
 6506TIP3    H240934   1.309   2.536   0.667 -0.0414 -1.2293  0.5350
 6507TIP3   OH240935   1.865   2.664   2.997 -0.1327  0.4541  0.1368
 6507TIP3    H140936   1.863   2.590   3.057 -2.1454 -1.1417 -1.7020
 6507TIP3    H240937   1.864   2.624   2.910 -2.0350  2.5787 -0.9332
 6508TIP3   OH240938   5.924   4.046   0.740 -0.0421 -0.6001  0.3726
 6508TIP3    H140939   5.848   4.075   0.691  0.4117 -0.2961 -0.1637
 6508TIP3    H240940   5.912   4.083   0.828  1.3503  2.8241 -0.7052
 6509TIP3   OH240941   1.010   2.274   0.329  0.2877  0.0202 -0.8859
 6509TIP3    H140942   0.976   2.219   0.258  2.8885 -0.0695 -2.1825
 6509TIP3    H240943   1.103   2.285   0.308  0.5738  2.1815  1.1441
 6510TIP3   OH240944   0.310   0.577   4.683 -0.6343 -0.5277 -0.2009
 6510TIP3    H140945   0.253   0.546   4.753 -0.6509  1.1360  0.5702
 6510TIP3    H240946   0.398   0.547   4.708 -0.5629  0.4674  0.8244
 6511TIP3   OH240947   1.356   0.946  11.631  0.0570  0.1291 -0.1074
 6511TIP3    H140948   1.351   0.864  11.681 -2.0250  1.3107  1.7808
 6511TIP3    H240949   1.272   0.951  11.586  0.8363  0.4578 -1.5877
 6512TIP3   OH240950   3.196   2.093  16.204  0.5332  0.0039  0.2518
 6512TIP3    H140951   3.269   2.147  16.173  2.1555 -0.9993  2.1331
 6512TIP3    H240952   3.220   2.004  16.178 -1.4153 -0.0693 -1.5393
 6513TIP3   OH240953   4.852   6.755   1.607 -0.7838  0.6032  0.4221
 6513TIP3    H140954   4.900   6.797   1.535 -2.4380  1.0892 -0.4325
 6513TIP3    H240955   4.860   6.661   1.589  0.1124  0.6545  0.4898
 6514TIP3   OH240956   1.958   3.688  15.208 -0.2499 -0.1405  0.1233
 6514TIP3    H140957   2.031   3.681  15.269  0.0025 -1.2940 -0.2888
 6514TIP3    H240958   1.918   3.601  15.207 -0.3590 -0.1068 -1.2041
 6515TIP3   OH240959   6.265   2.882   5.453  0.2693 -0.0946  0.3997
 6515TIP3    H140960   6.185   2.896   5.402 -0.2230  0.1086  1.2163
 6515TIP3    H240961   6.236   2.833   5.530  1.1519 -1.1796  0.0659
 6516TIP3   OH240962   5.483   5.814  11.802 -0.3947 -0.0199  0.3755
 6516TIP3    H140963   5.565   5.766  11.813 -0.6599 -0.9635 -1.3697
 6516TIP3    H240964   5.416   5.746  11.795 -0.8452  0.5587 -1.6702
 6517TIP3   OH240965   2.893   6.182   6.309 -0.1729 -0.2703  0.0044
 6517TIP3    H140966   2.978   6.223   6.323 -0.2233  0.9094 -2.6832
 6517TIP3    H240967   2.850   6.187   6.395  1.7537  0.7113  0.9756
 6518TIP3   OH240968   6.160   5.386  15.533 -0.2389 -0.3077  0.5628
 6518TIP3    H140969   6.169   5.475  15.498 -0.2546 -0.0090  1.2974
 6518TIP3    H240970   6.078   5.387  15.581 -2.8588 -2.1111 -3.3661
 6519TIP3   OH240971   2.540   0.413  15.653 -0.7069 -0.4778 -0.7245
 6519TIP3    H140972   2.550   0.323  15.684  0.0455 -0.3335 -0.5389
 6519TIP3    H240973   2.587   0.466  15.717 -0.8153  0.0124 -1.0454
 6520TIP3   OH240974   1.494   3.323   0.963  0.3845  0.0351 -0.7024
 6520TIP3    H140975   1.458   3.407   0.990 -0.2215 -0.3247 -0.3749
 6520TIP3    H240976   1.427   3.259   0.986  1.0351 -0.5939 -0.5044
 6521TIP3   OH240977   2.888   4.999   1.992  0.2925 -0.2333 -0.1159
 6521TIP3    H140978   2.918   4.930   2.050  1.8859  0.2488 -0.3193
 6521TIP3    H240979   2.956   5.006   1.925  1.5348  3.1398  1.2420
 6522TIP3   OH240980   1.242   2.921   2.472  0.0193 -0.1780  0.2383
 6522TIP3    H140981   1.229   3.005   2.429 -2.7189 -1.3954 -1.5465
 6522TIP3    H240982   1.266   2.861   2.402 -2.3338 -1.7558  0.6915
 6523TIP3   OH240983   0.363   3.613  15.859  0.0446 -0.7692  0.0159
 6523TIP3    H140984   0.331   3.702  15.846 -0.7613 -0.9233  0.8339
 6523TIP3    H240985   0.434   3.622  15.923 -0.6594 -0.8125  0.8131
 6524TIP3   OH240986   5.777   1.807   0.551  0.0703 -0.6774 -0.0848
 6524TIP3    H140987   5.818   1.721   0.561  0.5056 -0.5076 -0.3617
 6524TIP3    H240988   5.803   1.856   0.629  1.4558 -0.1589 -0.8097
 6525TIP3   OH240989   0.101   3.621  13.872  0.0262 -0.8662 -0.3457
 6525TIP3    H140990   0.166   3.664  13.816  1.7835 -3.1563 -0.2307
 6525TIP3    H240991   0.018   3.634  13.826  0.9397  0.0404 -1.8419
 6526TIP3   OH240992   3.857   6.525  13.184 -0.2278 -0.1377  0.1137
 6526TIP3    H140993   3.905   6.504  13.265 -0.8637 -1.1391  0.2556
 6526TIP3    H240994   3.766   6.507  13.205 -0.7549  2.1250 -0.0357
 6527TIP3   OH240995   3.892   2.321   5.351 -0.0568 -0.3336 -0.4919
 6527TIP3    H140996   3.844   2.400   5.326  0.5558 -0.2465 -1.4161
 6527TIP3    H240997   3.952   2.350   5.419 -0.2578 -0.1328 -0.3978
 6528TIP3   OH240998   6.668   2.184  16.670 -0.2586 -0.2345 -0.1354
 6528TIP3    H140999   6.632   2.232  16.595  0.2486 -0.1553 -0.3304
 6528TIP3    H241000   6.593   2.137  16.707 -0.9196  1.2730  0.5040
 6529TIP3   OH241001   6.515   1.484   1.825  0.3648  0.1803 -0.2045
 6529TIP3    H141002   6.610   1.493   1.813  0.7023 -1.0010  1.3189
 6529TIP3    H241003   6.494   1.545   1.896  0.0864 -0.0168 -0.1194
 6530TIP3   OH241004   0.603   3.598  16.079 -0.0707  0.4384  0.2067
 6530TIP3    H141005   0.609   3.519  16.133 -2.4097  0.6357  0.8676
 6530TIP3    H241006   0.542   3.655  16.125 -1.0779  1.2084 -1.9262
 6531TIP3   OH241007   1.652   3.428   1.502  0.0300  0.0250  0.0820
 6531TIP3    H141008   1.711   3.382   1.562  0.1053 -0.7165 -0.5369
 6531TIP3    H241009   1.709   3.489   1.456  0.1235  0.0421  0.2197
 6532TIP3   OH241010   2.736   1.698   2.964 -0.2398 -0.0249 -0.1851
 6532TIP3    H141011   2.771   1.682   2.876 -0.1937  1.4444 -0.4506
 6532TIP3    H241012   2.741   1.613   3.008 -0.1859 -0.7602 -1.5729
 6533TIP3   OH241013   5.283   3.181   4.008  0.0923  0.0595  0.3450
 6533TIP3    H141014   5.308   3.110   4.067  0.3830 -0.9832 -0.9703
 6533TIP3    H241015   5.340   3.253   4.032 -0.4013 -0.0306  1.9041
 6534TIP3   OH241016   2.722   1.438  15.164  0.2725  0.4152 -0.1386
 6534TIP3    H141017   2.780   1.453  15.238 -1.3682  1.1601  1.0421
 6534TIP3    H241018   2.720   1.342  15.155 -0.7278  0.2064  1.8124
 6535TIP3   OH241019   0.871   2.145   5.048 -0.6543 -0.6344  0.3160
 6535TIP3    H141020   0.886   2.128   4.956  0.0643 -1.1243  0.5156
 6535TIP3    H241021   0.950   2.114   5.092 -1.8506 -2.4384  1.3381
 6536TIP3   OH241022   4.724   1.334  14.775  1.2422  0.5622 -0.0396
 6536TIP3    H141023   4.809   1.378  14.769  1.3300  0.3016 -0.8369
 6536TIP3    H241024   4.744   1.246  14.808  1.0629  1.1068  1.5901
 6537TIP3   OH241025   5.618   2.145  12.980 -0.6086  0.4261  0.4473
 6537TIP3    H141026   5.703   2.169  13.017 -0.6705  0.8155  0.3402
 6537TIP3    H241027   5.631   2.150  12.885 -0.5587 -0.1882  0.4213
 6538TIP3   OH241028   4.246   6.018  16.086  0.0088  0.4453  0.1704
 6538TIP3    H141029   4.277   6.005  16.176  2.8708  0.0916 -0.7649
 6538TIP3    H241030   4.227   5.930  16.054  0.1051  0.4550  0.0854
 6539TIP3   OH241031   3.197   0.719   2.824 -0.5261 -0.2488  0.1426
 6539TIP3    H141032   3.194   0.688   2.733 -1.4566  1.4915 -0.4767
 6539TIP3    H241033   3.278   0.770   2.829 -1.1999  0.8990 -0.1890
 6540TIP3   OH241034   0.120   0.985  12.912  0.3132 -0.4191 -0.0091
 6540TIP3    H141035   0.081   1.053  12.967 -0.2836 -1.0393  0.3326
 6540TIP3    H241036   0.093   0.903  12.952 -0.0748 -0.8779 -1.1828
 6541TIP3   OH241037   3.363   5.395   4.464 -0.0190 -0.2664  0.1823
 6541TIP3    H141038   3.327   5.354   4.386 -0.7575 -0.2144  0.4795
 6541TIP3    H241039   3.287   5.407   4.522  0.2394  1.1291  0.2714
 6542TIP3   OH241040   2.793   4.633   0.725 -0.7734  0.5264  0.2999
 6542TIP3    H141041   2.706   4.669   0.738 -0.6513  0.3195  1.8665
 6542TIP3    H241042   2.784   4.540   0.747 -0.0771  0.6009  0.9523
 6543TIP3   OH241043   2.025   5.967   4.075 -0.1648  0.0837 -0.3712
 6543TIP3    H141044   1.973   6.034   4.120 -0.8169  0.4301 -1.6000
 6543TIP3    H241045   1.960   5.904   4.044  0.4985 -1.5796  1.4426
 6544TIP3   OH241046   1.501   2.749  12.258  0.0339 -0.3035 -0.6077
 6544TIP3    H141047   1.479   2.711  12.343  3.0214 -1.1626 -0.1184
 6544TIP3    H241048   1.594   2.768  12.263 -0.3306  2.6826 -2.6116
 6545TIP3   OH241049   0.972   0.796  14.477  0.4286  0.1231  0.4208
 6545TIP3    H141050   0.890   0.757  14.449  0.4020  1.1634 -1.0759
 6545TIP3    H241051   0.978   0.776  14.570 -1.1816 -0.5420  0.4089
 6546TIP3   OH241052   0.035   4.701   0.253  0.1960 -0.3447 -0.3271
 6546TIP3    H141053  -0.010   4.736   0.330  1.3700  1.8112 -0.5370
 6546TIP3    H241054   0.005   4.756   0.180  1.1880 -0.5371 -0.9035
 6547TIP3   OH241055   4.373   2.660   4.087 -0.4856  0.0629 -0.4720
 6547TIP3    H141056   4.330   2.691   4.007  0.2168  0.8356 -0.5656
 6547TIP3    H241057   4.429   2.733   4.114  1.0651 -1.0445 -0.5549
 6548TIP3   OH241058   1.368   0.431  16.231  0.3480 -0.2534 -0.1677
 6548TIP3    H141059   1.330   0.468  16.311 -1.7913 -1.6425 -0.4341
 6548TIP3    H241060   1.300   0.443  16.165  0.5588 -2.3525 -0.8470
 6549TIP3   OH241061   5.751   2.807  13.538  0.4184 -0.5480 -0.5808
 6549TIP3    H141062   5.797   2.883  13.503  1.3541 -0.6562  0.3886
 6549TIP3    H241063   5.660   2.819  13.509  0.4881  1.0684 -0.2234
 6550TIP3   OH241064   5.941   0.309  16.110 -0.9124 -0.3746 -0.1625
 6550TIP3    H141065   5.858   0.274  16.078 -1.2220  0.0246  0.1920
 6550TIP3    H241066   5.922   0.337  16.199 -0.2896 -0.6515  0.0581
 6551TIP3   OH241067   5.955   4.242  11.390 -0.0558 -0.6724  1.0927
 6551TIP3    H141068   5.982   4.160  11.348 -0.3355  1.3151 -3.6321
 6551TIP3    H241069   5.860   4.243  11.381 -0.0430  0.2267  1.0116
 6552TIP3   OH241070   6.061   2.468  14.190 -0.2331 -0.0276  0.6024
 6552TIP3    H141071   6.014   2.522  14.127  0.6709 -0.8284 -0.8252
 6552TIP3    H241072   6.144   2.514  14.203  0.5034 -0.9517 -0.5520
 6553TIP3   OH241073   5.872   4.815   0.361 -1.1089  0.2380 -0.1294
 6553TIP3    H141074   5.785   4.784   0.389 -1.3344  1.8471  1.0706
 6553TIP3    H241075   5.925   4.812   0.441 -0.5858  1.0398 -0.4351
 6554TIP3   OH241076   2.617   0.571  14.630 -0.1263  0.1888  0.4774
 6554TIP3    H141077   2.611   0.529  14.716 -1.2529 -0.6558  0.0076
 6554TIP3    H241078   2.620   0.665  14.650  0.6368 -0.0172  1.4632
 6555TIP3   OH241079   0.216   2.651   1.861  0.0615 -0.9648 -0.5367
 6555TIP3    H141080   0.249   2.662   1.772  2.0590  0.0252  0.2808
 6555TIP3    H241081   0.227   2.558   1.880 -0.4075 -1.1862 -1.3047
 6556TIP3   OH241082   5.096   0.898   4.104  0.0599  0.4896  0.5282
 6556TIP3    H141083   5.021   0.854   4.065  0.8138 -0.3497  0.0142
 6556TIP3    H241084   5.075   0.902   4.198 -0.5687  0.1532  0.4037
 6557TIP3   OH241085   0.183   4.610  14.991 -0.4442  0.0125 -0.1920
 6557TIP3    H141086   0.182   4.541  14.926 -0.3496  0.6734 -0.9074
 6557TIP3    H241087   0.091   4.620  15.017 -1.0036  1.8495 -2.5272
 6558TIP3   OH241088   5.589   2.232   2.970 -0.2029 -0.0232  0.0459
 6558TIP3    H141089   5.566   2.307   2.915 -1.6470 -1.5155 -1.4976
 6558TIP3    H241090   5.630   2.271   3.047  0.2340  2.2577 -1.2543
 6559TIP3   OH241091   0.450   3.045   1.146  0.3450 -0.7303  0.4759
 6559TIP3    H141092   0.524   3.105   1.138  0.4956 -0.7376  1.6239
 6559TIP3    H241093   0.406   3.050   1.062 -0.2085  1.7353  0.8481
 6560TIP3   OH241094   3.330   6.594  10.773 -0.4475  0.8168 -0.3750
 6560TIP3    H141095   3.263   6.527  10.786  1.3093 -0.8268  0.5933
 6560TIP3    H241096   3.378   6.565  10.695  1.3759 -0.0497  0.9930
 6561TIP3   OH241097   3.045   0.933  16.646  0.5872  0.4179  0.3057
 6561TIP3    H141098   3.045   0.999  16.715 -1.2792  0.9299 -0.1514
 6561TIP3    H241099   2.972   0.957  16.589  1.9153 -0.1336 -1.7400
 6562TIP3   OH241100   1.705   5.170  16.037  0.0260  0.4175 -0.2385
 6562TIP3    H141101   1.614   5.192  16.057 -0.6333 -0.8355 -1.7226
 6562TIP3    H241102   1.721   5.087  16.083  0.2874  0.3996 -0.3600
 6563TIP3   OH241103   3.444   4.965   2.214  0.2906 -0.2338 -0.6477
 6563TIP3    H141104   3.530   5.003   2.192  1.3649 -2.0465  0.2232
 6563TIP3    H241105   3.442   4.882   2.167 -0.0310 -1.2195  1.0176
 6564TIP3   OH241106   1.177   4.483  16.722  0.1956  0.0909  0.0067
 6564TIP3    H141107   1.265   4.445  16.723 -0.3969 -1.4529 -1.4742
 6564TIP3    H241108   1.190   4.574  16.695  1.3124 -0.2093 -0.5341
 6565TIP3   OH241109   5.356   4.795   4.515 -0.0900  0.7170 -0.2301
 6565TIP3    H141110   5.357   4.879   4.468  0.5816  3.7434  4.4965
 6565TIP3    H241111   5.267   4.789   4.551  0.4820  0.5202  1.1858
 6566TIP3   OH241112   2.115   1.547  12.552 -0.1038  0.2656 -0.1949
 6566TIP3    H141113   2.126   1.534  12.458  0.8025 -0.8302  0.0381
 6566TIP3    H241114   2.187   1.605  12.577  1.5491 -1.8269  0.2691
 6567TIP3   OH241115   3.414   4.490   0.958 -0.1169  0.3486  0.0750
 6567TIP3    H141116   3.478   4.541   1.009  0.3792 -0.2585  0.0697
 6567TIP3    H241117   3.343   4.552   0.941 -0.9771  0.2111  2.7210
 6568TIP3   OH241118   0.570   5.420  16.283 -0.4781  0.5744  0.5396
 6568TIP3    H141119   0.518   5.471  16.345  0.7282 -0.6963  2.7420
 6568TIP3    H241120   0.653   5.468  16.276 -0.4461  0.4786  0.2441
 6569TIP3   OH241121   4.156   4.272  13.401 -0.2259  0.1818  0.2490
 6569TIP3    H141122   4.126   4.362  13.390  0.7741  0.2218 -3.1081
 6569TIP3    H241123   4.248   4.280  13.427 -0.5520  0.0609  1.5321
 6570TIP3   OH241124   1.776   6.075  12.428  0.6742 -0.8560  0.4519
 6570TIP3    H141125   1.832   6.088  12.504 -0.0414  0.5866  0.7666
 6570TIP3    H241126   1.696   6.125  12.447  0.5957 -0.1816 -1.3721
 6571TIP3   OH241127   4.700   3.299  11.612 -0.3557  0.0878 -0.0388
 6571TIP3    H141128   4.722   3.283  11.520  0.8813 -0.8277  0.3919
 6571TIP3    H241129   4.713   3.393  11.623 -0.2344  0.1616 -0.7299
 6572TIP3   OH241130   0.609   2.256  14.154  0.5502  0.5163 -0.3704
 6572TIP3    H141131   0.649   2.328  14.204  1.6090 -0.6670  0.5422
 6572TIP3    H241132   0.537   2.298  14.107 -0.7581  1.6959  2.3876
 6573TIP3   OH241133   2.461   0.242   5.193  0.3040 -0.4659 -0.2734
 6573TIP3    H141134   2.515   0.220   5.118 -1.3426 -0.2589 -1.5681
 6573TIP3    H241135   2.378   0.274   5.156 -0.7039 -0.6918  1.6116
 6574TIP3   OH241136   2.304   1.749   2.127  0.4058 -0.1357  0.5258
 6574TIP3    H141137   2.260   1.670   2.096  1.2928 -0.0516 -1.0197
 6574TIP3    H241138   2.268   1.763   2.215 -0.9775 -1.3105  0.1888
 6575TIP3   OH241139   5.932   1.336  12.320  0.3206  0.1899 -0.0574
 6575TIP3    H141140   5.882   1.354  12.400  0.5319 -1.9373  0.6064
 6575TIP3    H241141   5.990   1.264  12.343  0.5286 -0.3622 -2.0915
 6576TIP3   OH241142   3.543   1.009  15.494 -0.2375 -0.5492 -0.2096
 6576TIP3    H141143   3.516   1.078  15.434  1.1274 -0.7380 -1.1033
 6576TIP3    H241144   3.627   1.041  15.530 -0.9297 -0.5232  1.4809
 6577TIP3   OH241145   1.103   6.031  13.081  0.0782  0.2674  0.2202
 6577TIP3    H141146   1.103   6.126  13.098  2.2398  0.8082 -2.1370
 6577TIP3    H241147   1.149   5.994  13.156  0.7632  1.3428  0.3703
 6578TIP3   OH241148   0.157   2.956  13.356  0.2800 -0.4532 -0.1743
 6578TIP3    H141149   0.241   2.985  13.322  0.2984  1.3614  1.2526
 6578TIP3    H241150   0.095   3.024  13.329 -0.3277 -0.6959  0.5534
 6579TIP3   OH241151   2.194   5.633   0.240 -0.7174  0.2579 -0.1246
 6579TIP3    H141152   2.269   5.686   0.213 -0.4321  0.7684  1.5609
 6579TIP3    H241153   2.171   5.666   0.327 -1.1327 -1.7621  0.5801
 6580TIP3   OH241154   5.291   4.033   1.306  0.3182 -0.5992  0.4462
 6580TIP3    H141155   5.320   3.946   1.278 -1.0942 -0.9979  0.1763
 6580TIP3    H241156   5.243   4.017   1.387  1.0207  0.0827  1.0173
 6581TIP3   OH241157   4.276   4.102   6.139  0.0497  0.1635  0.2685
 6581TIP3    H141158   4.294   4.191   6.168  1.4286  0.4918 -1.4793
 6581TIP3    H241159   4.359   4.070   6.104 -0.6537 -1.4844  0.0144
 6582TIP3   OH241160   4.122   6.652   2.286  0.0220  0.6761  0.0552
 6582TIP3    H141161   4.200   6.674   2.337  0.1766 -0.3271  0.2642
 6582TIP3    H241162   4.154   6.636   2.198 -0.1218  1.4861 -0.1517
 6583TIP3   OH241163   6.274   4.347   0.106  0.1360 -0.2430  0.3108
 6583TIP3    H141164   6.307   4.269   0.061 -0.6389 -1.5807  1.9483
 6583TIP3    H241165   6.352   4.394   0.135  0.6146 -1.1030  0.4375
 6584TIP3   OH241166   4.383   5.603   6.564 -0.1568  0.4080 -0.5550
 6584TIP3    H141167   4.457   5.551   6.534  0.1117  1.3733 -1.5984
 6584TIP3    H241168   4.312   5.582   6.503 -0.7865 -0.5502  0.4663
 6585TIP3   OH241169   2.591   3.548   3.304  0.0783  0.0486  0.5497
 6585TIP3    H141170   2.572   3.462   3.342  0.2800  0.0039  0.5503
 6585TIP3    H241171   2.620   3.601   3.378  1.2290 -0.2637  0.3348
 6586TIP3   OH241172   4.096   5.534  14.215  0.3249  0.6112 -0.1591
 6586TIP3    H141173   4.135   5.616  14.247 -0.6475  0.2755  2.0607
 6586TIP3    H241174   4.132   5.466  14.272  0.8420 -0.5006 -1.7523
 6587TIP3   OH241175   4.250   6.693  15.760  0.4958  0.1559  0.0070
 6587TIP3    H141176   4.201   6.731  15.688  0.4146 -1.7202 -0.9956
 6587TIP3    H241177   4.279   6.608  15.727  1.5125 -0.2371  1.7667
 6588TIP3   OH241178   0.765   1.595  16.639  0.6663  0.0884 -0.0284
 6588TIP3    H141179   0.671   1.606  16.656  0.6818  1.5440 -0.7199
 6588TIP3    H241180   0.769   1.536  16.564  0.3260 -0.4609  0.3813
 6589TIP3   OH241181   5.647   1.064   1.912  0.1392  0.1447  0.3106
 6589TIP3    H141182   5.633   1.002   1.840 -3.5324 -0.0759  1.0094
 6589TIP3    H241183   5.616   1.017   1.990  0.3182  1.7385  1.3897
 6590TIP3   OH241184   2.083   2.104  16.829  0.0694  0.5363  0.6060
 6590TIP3    H141185   2.178   2.116  16.820  0.4325 -1.1959  1.6094
 6590TIP3    H241186   2.062   2.141  16.915 -0.0853  0.5391  0.5670
 6591TIP3   OH241187   1.090   2.706  11.757  0.2262  0.0078  0.2656
 6591TIP3    H141188   1.172   2.680  11.714  0.3570  0.9790 -0.1009
 6591TIP3    H241189   1.024   2.702  11.688  0.4073  1.4222 -0.0124
 6592TIP3   OH241190   3.374   5.459   3.542  0.7488  0.0734  0.7537
 6592TIP3    H141191   3.460   5.459   3.499  0.5795 -0.5488  0.4013
 6592TIP3    H241192   3.375   5.381   3.597 -0.8207 -1.9528 -1.8276
 6593TIP3   OH241193   3.796   2.388   4.332  0.0820  0.3184 -0.4728
 6593TIP3    H141194   3.741   2.375   4.409 -0.8922  1.2310 -0.9950
 6593TIP3    H241195   3.852   2.310   4.330 -0.8992 -0.4460  0.3008
 6594TIP3   OH241196   5.578   4.782   0.313  0.2751  0.0074  0.8647
 6594TIP3    H141197   5.588   4.783   0.218  1.2186  1.1954  0.9583
 6594TIP3    H241198   5.562   4.873   0.337 -3.6144 -0.6677  1.5439
 6595TIP3   OH241199   5.767   0.078  14.034  0.9738  0.5186 -0.0490
 6595TIP3    H141200   5.690   0.075  14.091  0.7683 -2.1945 -0.3563
 6595TIP3    H241201   5.747   0.147  13.971 -1.8824 -0.9821 -0.9745
 6596TIP3   OH241202   1.523   6.778   5.424  0.3705  0.7503  0.4068
 6596TIP3    H141203   1.587   6.721   5.465 -1.8839 -0.7614  2.1190
 6596TIP3    H241204   1.533   6.763   5.330  1.6668 -0.3593  0.6934
 6597TIP3   OH241205   5.142   4.818  15.358 -0.1591  0.1351 -0.2689
 6597TIP3    H141206   5.135   4.744  15.417  0.8566  0.8327  0.7736
 6597TIP3    H241207   5.182   4.783  15.279 -0.4126 -0.5782 -0.0819
 6598TIP3   OH241208   0.400   3.237  16.309  0.0228 -0.2012  0.4485
 6598TIP3    H141209   0.307   3.247  16.290  0.1664  0.2206 -0.0634
 6598TIP3    H241210   0.423   3.317  16.357  0.4629  0.4444 -0.8089
 6599TIP3   OH241211   4.948   3.662   4.916 -0.0057 -0.4705  0.1206
 6599TIP3    H141212   4.936   3.737   4.974 -0.6681  0.4348 -1.1320
 6599TIP3    H241213   4.860   3.623   4.909  0.1459 -0.7968  0.0373
 6600TIP3   OH241214   4.643   6.690   1.807  0.0273  0.1100 -0.2746
 6600TIP3    H141215   4.564   6.738   1.784  0.6708  0.9288 -0.8721
 6600TIP3    H241216   4.704   6.710   1.735  0.8356 -0.3374  0.2739
 6601TIP3   OH241217   1.119   1.631   4.000 -0.0617  0.4640  0.5947
 6601TIP3    H141218   1.043   1.637   3.943  1.1201 -2.0592 -1.4871
 6601TIP3    H241219   1.139   1.537   4.004  3.1398  1.0207  0.6490
 6602TIP3   OH241220   3.707   0.594  11.745  0.6908 -0.0174 -0.4287
 6602TIP3    H141221   3.677   0.650  11.674  0.1152 -2.5123 -2.3079
 6602TIP3    H241222   3.799   0.576  11.724  0.6806 -0.3179 -0.2203
 6603TIP3   OH241223   0.600   4.457   3.897 -0.0211  0.0517 -0.1141
 6603TIP3    H141224   0.674   4.485   3.844  0.8959 -1.0444  0.5526
 6603TIP3    H241225   0.594   4.522   3.967  0.6658 -0.1426  0.1357
 6604TIP3   OH241226   4.828   1.228   1.226  0.0237  0.1678  0.0600
 6604TIP3    H141227   4.912   1.229   1.180  0.1714  2.3250  0.2765
 6604TIP3    H241228   4.849   1.251   1.316 -0.7541  0.2382  0.2343
 6605TIP3   OH241229   4.236   5.760   6.709 -0.2574  0.1653  0.0738
 6605TIP3    H141230   4.229   5.704   6.786  2.0291  1.6083  1.4792
 6605TIP3    H241231   4.303   5.719   6.655  0.0695  0.5391  0.1874
 6606TIP3   OH241232   5.859   2.190  13.306  0.1349 -0.2935  0.4906
 6606TIP3    H141233   5.765   2.174  13.308 -0.1862  0.7343 -2.2802
 6606TIP3    H241234   5.878   2.212  13.215  3.3033 -1.7112  0.6636
 6607TIP3   OH241235   3.646   1.475   3.044 -0.1833  0.2435 -0.4320
 6607TIP3    H141236   3.676   1.500   2.956  0.1028  1.3590 -0.0374
 6607TIP3    H241237   3.725   1.447   3.089 -0.3460 -0.4184 -0.5523
 6608TIP3   OH241238   6.242   5.930  12.364  0.5592  0.2576 -0.3481
 6608TIP3    H141239   6.250   5.987  12.440 -1.0985 -0.4769  0.4162
 6608TIP3    H241240   6.186   5.979  12.303 -1.0487 -0.5833  0.3987
 6609TIP3   OH241241   2.172   6.354  16.956 -1.0612  0.2955  0.1049
 6609TIP3    H141242   2.142   6.377  17.044 -2.2770 -0.6725 -0.0226
 6609TIP3    H241243   2.173   6.258  16.956  1.8776  0.2456 -0.0010
 6610TIP3   OH241244   5.572   2.080   0.903 -0.4577  0.6850  0.2057
 6610TIP3    H141245   5.564   2.065   0.997 -0.8405  0.6525  0.1690
 6610TIP3    H241246   5.587   1.994   0.865  0.1728  0.7578  0.2846
 6611TIP3   OH241247   5.037   2.651   3.367  0.4788  0.0639  0.6272
 6611TIP3    H141248   5.092   2.713   3.319 -2.4588  2.3738 -0.1381
 6611TIP3    H241249   5.028   2.690   3.454  0.8769 -0.8604  1.0963
 6612TIP3   OH241250   0.955   0.227   5.094 -0.1244 -0.3791  0.5515
 6612TIP3    H141251   0.891   0.181   5.040  0.5865  0.4328 -1.0520
 6612TIP3    H241252   0.979   0.163   5.162 -1.4189 -1.2517  0.2281
 6613TIP3   OH241253   5.891   2.764   2.167 -0.1439 -0.4224  0.0857
 6613TIP3    H141254   5.856   2.853   2.171 -1.2768 -0.8394  4.5269
 6613TIP3    H241255   5.859   2.730   2.084 -1.4112  2.6202 -0.8399
 6614TIP3   OH241256   1.316   4.378  11.937  0.4296  0.1501  0.1724
 6614TIP3    H141257   1.243   4.334  11.893  0.6046  0.4773 -0.4504
 6614TIP3    H241258   1.300   4.362  12.030 -0.2468 -0.0823  0.0252
 6615TIP3   OH241259   3.045   5.402  14.379 -0.4416 -0.6024 -0.4055
 6615TIP3    H141260   2.969   5.453  14.409 -0.3717 -0.4355 -0.5084
 6615TIP3    H241261   3.104   5.468  14.343  0.7812 -0.4237  1.7476
 6616TIP3   OH241262   1.244   5.929  14.895 -0.8675  0.1348 -0.3276
 6616TIP3    H141263   1.295   5.857  14.931 -0.3221 -0.8823 -2.9135
 6616TIP3    H241264   1.307   5.980  14.844 -1.3237  2.2703  1.1351
 6617TIP3   OH241265   3.070   2.807  15.725  0.1408  0.4021  0.4258
 6617TIP3    H141266   2.992   2.755  15.745 -0.3040  1.0679  0.4410
 6617TIP3    H241267   3.052   2.893  15.764  0.1945  1.0598 -0.9576
 6618TIP3   OH241268   0.314   5.016   1.326  0.3083  0.3336  0.1346
 6618TIP3    H141269   0.223   4.987   1.337 -0.9270  2.7087 -2.6403
 6618TIP3    H241270   0.351   4.955   1.262 -0.7904  1.8090 -2.0306
 6619TIP3   OH241271   5.064   4.177   2.775  0.1015  0.5961  0.3374
 6619TIP3    H141272   5.060   4.123   2.696  0.6288 -1.3548  1.5708
 6619TIP3    H241273   4.980   4.161   2.818  0.6647 -0.0819  1.2127
 6620TIP3   OH241274   0.981   5.509   0.889  0.9282 -0.0867 -0.0394
 6620TIP3    H141275   1.059   5.516   0.945 -0.0219  1.1108  1.1995
 6620TIP3    H241276   0.908   5.522   0.949 -0.2653 -1.6436 -1.1170
 6621TIP3   OH241277   3.270   6.098   2.375  0.2161  0.3039 -0.0638
 6621TIP3    H141278   3.269   6.168   2.311 -3.5123  1.1715  0.7226
 6621TIP3    H241279   3.245   6.019   2.326 -0.3224  0.5003 -0.1094
 6622TIP3   OH241280   1.864   2.060   3.246  0.0854  0.0518  0.0949
 6622TIP3    H141281   1.891   2.001   3.175  1.1430  0.5089  0.1104
 6622TIP3    H241282   1.913   2.030   3.323 -0.6360 -0.0876  0.5095
 6623TIP3   OH241283   6.716   2.192  13.002 -0.2680  0.6476 -0.0606
 6623TIP3    H141284   6.623   2.210  12.984 -0.7400  0.3358  1.7686
 6623TIP3    H241285   6.748   2.147  12.924 -1.9138 -0.0346 -0.3911
 6624TIP3   OH241286   2.819   6.595  12.746  0.0375 -0.7032  0.3173
 6624TIP3    H141287   2.791   6.656  12.814 -0.8579 -0.2096 -0.4685
 6624TIP3    H241288   2.911   6.614  12.732  0.3624 -1.1317  1.7073
 6625TIP3   OH241289   0.191   2.328   4.108 -0.3324 -0.3230 -0.1142
 6625TIP3    H141290   0.128   2.315   4.179 -0.4520  0.8942  0.0219
 6625TIP3    H241291   0.151   2.283   4.033  0.0748 -2.1229  0.6958
 6626TIP3   OH241292   4.908   5.208  14.994  0.0826 -0.1684 -0.0829
 6626TIP3    H141293   4.958   5.145  15.045  1.2203  2.3800  2.1294
 6626TIP3    H241294   4.872   5.269  15.058 -0.7989  1.5797 -2.1002
 6627TIP3   OH241295   3.954   0.038  11.382 -0.5033 -0.3290 -0.3310
 6627TIP3    H141296   3.999   0.022  11.465 -1.4366  0.4307  0.3377
 6627TIP3    H241297   3.944  -0.049  11.343 -0.7501 -0.7782  0.7206
 6628TIP3   OH241298   5.073   3.735   2.608  0.3455 -0.0343  0.1704
 6628TIP3    H141299   5.118   3.705   2.688  1.4818 -0.5995 -0.6537
 6628TIP3    H241300   5.138   3.726   2.539  0.0679  2.4930 -0.4949
 6629TIP3   OH241301   5.420   1.378   3.195  0.4147 -0.5218  0.3236
 6629TIP3    H141302   5.425   1.335   3.280  0.1694  0.0757  0.6390
 6629TIP3    H241303   5.490   1.336   3.144 -0.0841 -1.5889  0.4829
 6630TIP3   OH241304   1.881   0.955  15.524  0.0582 -0.4471  0.1929
 6630TIP3    H141305   1.936   1.000  15.588  0.0394 -0.7518  0.4270
 6630TIP3    H241306   1.835   1.025  15.478 -1.2155 -0.2534  1.6611
 6631TIP3   OH241307   4.242   6.323   0.593 -0.3696  0.0527  0.2434
 6631TIP3    H141308   4.223   6.234   0.621  2.0823  0.1272  2.6044
 6631TIP3    H241309   4.328   6.317   0.551 -0.0460  1.2974  0.6633
 6632TIP3   OH241310   1.195   4.922  15.443  0.0866  0.1826 -0.4474
 6632TIP3    H141311   1.153   4.994  15.397  1.2242  0.4621 -1.0900
 6632TIP3    H241312   1.204   4.854  15.377  0.6153  0.1199 -0.3127
 6633TIP3   OH241313   4.952   6.191   5.323 -0.0120 -0.2623  0.3676
 6633TIP3    H141314   4.989   6.257   5.382  1.3877 -1.1524  0.5060
 6633TIP3    H241315   4.860   6.184   5.351  0.0353  0.9722  0.9232
 6634TIP3   OH241316   2.549   1.494  14.091 -0.3546 -0.0824  0.4234
 6634TIP3    H141317   2.611   1.446  14.146 -0.3227 -0.0874  0.3829
 6634TIP3    H241318   2.477   1.517  14.151 -0.3338 -0.1139  0.4606
 6635TIP3   OH241319   2.827   5.893   6.378 -0.2023 -1.4585 -0.5891
 6635TIP3    H141320   2.862   5.817   6.332 -0.5753 -0.8179 -1.9819
 6635TIP3    H241321   2.858   5.968   6.327 -0.9446 -0.7397 -0.0013
 6636TIP3   OH241322   6.137   3.265   0.846 -1.1960 -0.2123 -0.7049
 6636TIP3    H141323   6.122   3.346   0.798 -2.1858 -0.5739 -1.0218
 6636TIP3    H241324   6.167   3.203   0.780 -2.9929 -0.8377 -0.9626
 6637TIP3   OH241325   0.454   3.971  15.988  0.6693 -0.1645 -0.1822
 6637TIP3    H141326   0.385   4.021  15.946  1.0834  1.0541  0.5240
 6637TIP3    H241327   0.493   3.918  15.918 -1.2301 -1.2137 -0.5049
 6638TIP3   OH241328   3.523   6.271   3.538 -0.2727 -0.5563 -0.4842
 6638TIP3    H141329   3.489   6.294   3.624  2.9382 -0.4270  0.8855
 6638TIP3    H241330   3.469   6.198   3.509 -1.5752 -0.4582  1.5423
 6639TIP3   OH241331   4.849   2.465   5.382  0.0555 -0.7014 -0.4309
 6639TIP3    H141332   4.766   2.482   5.338  1.2270  0.9401 -2.1705
 6639TIP3    H241333   4.868   2.373   5.363 -0.9688 -0.8626 -0.7136
 6640TIP3   OH241334   5.615   0.835  10.487  0.0487 -0.4928 -0.0981
 6640TIP3    H141335   5.548   0.800  10.430 -1.2308 -0.8795  1.5529
 6640TIP3    H241336   5.677   0.879  10.429 -2.6141  1.5498 -1.5727
 6641TIP3   OH241337   3.189   2.971   1.201  0.2855  0.6410 -1.0082
 6641TIP3    H141338   3.259   3.035   1.216  1.0093  0.1343 -2.0672
 6641TIP3    H241339   3.200   2.946   1.109 -0.4050 -0.5113 -0.7884
 6642TIP3   OH241340   0.759   3.238  16.444 -0.1508  0.5308 -0.1693
 6642TIP3    H141341   0.677   3.265  16.486 -0.2238  1.3972 -0.8232
 6642TIP3    H241342   0.827   3.288  16.489 -0.1418  0.8453 -0.5219
 6643TIP3   OH241343   1.469   0.743   0.312  0.2146 -0.2057  0.1101
 6643TIP3    H141344   1.489   0.663   0.263  2.2065  0.1831  0.2101
 6643TIP3    H241345   1.513   0.813   0.263 -2.3268  1.0631 -0.5614
 6644TIP3   OH241346   5.761   1.361  11.295 -1.1576 -0.2575 -0.4305
 6644TIP3    H141347   5.749   1.342  11.388  0.2738 -1.9479 -0.5426
 6644TIP3    H241348   5.753   1.456  11.289 -3.1851 -0.2488  1.0853
 6645TIP3   OH241349   0.139   1.126  11.154 -0.3921  0.2405  0.6042
 6645TIP3    H141350   0.193   1.119  11.233  0.7067  2.1020  0.0939
 6645TIP3    H241351   0.049   1.128  11.186  0.0156  0.6642  1.7877
 6646TIP3   OH241352   5.724   3.582  13.846  0.3015  0.9617  0.3361
 6646TIP3    H141353   5.674   3.650  13.802 -0.3261  0.1463 -0.2288
 6646TIP3    H241354   5.809   3.581  13.801  0.0233  0.8236 -0.1883
 6647TIP3   OH241355   3.619   0.046   5.168  0.1167 -0.0140  0.9135
 6647TIP3    H141356   3.573   0.001   5.097 -0.2993  1.1488  0.4305
 6647TIP3    H241357   3.550   0.091   5.217  0.6543  1.3213  0.4927
 6648TIP3   OH241358   5.790   0.758  16.921 -0.4207 -0.2632 -0.1902
 6648TIP3    H141359   5.742   0.802  16.991 -2.2847  0.2701 -1.6974
 6648TIP3    H241360   5.806   0.669  16.954 -2.2123 -0.3594  0.5357
 6649TIP3   OH241361   2.621   0.782  11.431  0.3469 -0.2002 -0.4340
 6649TIP3    H141362   2.671   0.802  11.510  0.1847 -1.3627 -0.0178
 6649TIP3    H241363   2.675   0.719  11.383  0.7056  0.9076 -1.5520
 6650TIP3   OH241364   0.591   4.428  16.082  0.4975 -0.4638 -0.0653
 6650TIP3    H141365   0.675   4.464  16.055  1.2544 -1.9737  0.1693
 6650TIP3    H241366   0.556   4.387  16.003  0.1210 -0.1026 -0.0871
 6651TIP3   OH241367   4.419   3.540  14.973  0.0779  0.2154  0.7189
 6651TIP3    H141368   4.397   3.523  15.065  1.1754  0.4004  1.0296
 6651TIP3    H241369   4.505   3.580  14.976  0.0217  0.4529 -0.3895
 6652TIP3   OH241370   1.872   4.593  14.948 -0.2837  0.2654 -0.1445
 6652TIP3    H141371   1.949   4.559  14.901 -0.8422  0.9771 -1.6325
 6652TIP3    H241372   1.875   4.549  15.033  0.7948 -1.0501 -0.8175
 6653TIP3   OH241373   3.468   5.859   4.451  0.3633  0.1124 -0.6549
 6653TIP3    H141374   3.519   5.888   4.376  2.2065  1.4458  1.0292
 6653TIP3    H241375   3.516   5.784   4.486 -0.0133  0.0323 -0.2932
 6654TIP3   OH241376   4.790   1.518  12.213  0.3317  0.0593 -0.6081
 6654TIP3    H141377   4.832   1.465  12.281  0.1919 -0.9867 -1.3273
 6654TIP3    H241378   4.847   1.509  12.136 -0.7928 -0.7563 -1.3696
 6655TIP3   OH241379   0.831   2.130   4.720  0.1810  0.0529  0.6059
 6655TIP3    H141380   0.789   2.162   4.641 -0.0984  1.1016  1.1574
 6655TIP3    H241381   0.910   2.183   4.729 -0.5851  1.0496  1.8439
 6656TIP3   OH241382   5.517   0.388   1.552  0.0203 -0.3343  0.3604
 6656TIP3    H141383   5.514   0.375   1.647  1.1990 -2.1341  0.1949
 6656TIP3    H241384   5.455   0.325   1.517 -1.0442  0.9025 -0.0592
 6657TIP3   OH241385   3.914   5.591  15.305  0.6134  0.0516 -0.1361
 6657TIP3    H141386   3.992   5.558  15.350  0.5758  1.6660  1.2334
 6657TIP3    H241387   3.948   5.656  15.244  0.5724 -1.4874 -1.9054
 6658TIP3   OH241388   1.447   5.298   0.642 -0.2524  0.0322  0.3634
 6658TIP3    H141389   1.523   5.243   0.661  0.4514  0.6378 -0.6376
 6658TIP3    H241390   1.372   5.242   0.661  0.4254 -0.4993  1.5987
 6659TIP3   OH241391   3.499   6.752   0.454 -0.0744  0.6203 -0.2024
 6659TIP3    H141392   3.429   6.801   0.410 -2.0970 -0.8912  1.1402
 6659TIP3    H241393   3.512   6.800   0.537 -0.6078  0.0720  0.2069
 6660TIP3   OH241394   5.315   4.998   0.041  0.0278  0.1277 -0.8050
 6660TIP3    H141395   5.284   4.948  -0.035 -0.4966 -0.8069 -0.0063
 6660TIP3    H241396   5.381   4.942   0.081  0.8344  0.9367 -0.9712
 6661TIP3   OH241397   2.335   1.965  15.218  0.0824  0.4026  0.0580
 6661TIP3    H141398   2.275   2.005  15.281  0.1290 -0.1672  0.4687
 6661TIP3    H241399   2.374   1.892  15.265  1.7388  1.2504  0.0803
 6662TIP3   OH241400   2.316   3.057   0.190  0.0924  0.9268 -0.7214
 6662TIP3    H141401   2.368   2.977   0.188 -1.3278 -0.0664  0.4266
 6662TIP3    H241402   2.377   3.124   0.220  1.5547  0.5378 -2.5961
 6663TIP3   OH241403   6.428   1.506   3.842  0.5846 -0.4347  0.2371
 6663TIP3    H141404   6.458   1.590   3.809  0.0198  0.0780  0.9939
 6663TIP3    H241405   6.335   1.502   3.816  0.0939  0.0331  1.8146
 6664TIP3   OH241406   3.721   2.848  12.703 -0.2075 -0.6087  0.2251
 6664TIP3    H141407   3.651   2.820  12.643 -0.8841  0.6959  0.3851
 6664TIP3    H241408   3.681   2.846  12.789  0.0595 -0.1693  0.3576
 6665TIP3   OH241409   3.314   2.143  14.025 -0.3102  0.0785 -0.5342
 6665TIP3    H141410   3.377   2.177  14.088 -0.9657  1.1040 -0.4059
 6665TIP3    H241411   3.229   2.161  14.064 -0.7166 -2.2247 -0.2045
 6666TIP3   OH241412   3.061   6.426  14.334  0.1844  0.0778  0.1673
 6666TIP3    H141413   2.988   6.485  14.313 -0.3250 -0.2010  1.0884
 6666TIP3    H241414   3.114   6.474  14.397 -0.8041 -0.7929  1.7408
 6667TIP3   OH241415   0.229   0.527  17.224 -0.9751  0.1037 -0.1185
 6667TIP3    H141416   0.231   0.501  17.132 -1.3941  3.0292 -1.0633
 6667TIP3    H241417   0.139   0.511  17.252 -0.6141 -1.6976  0.1465
 6668TIP3   OH241418   4.951   4.979  15.816  0.4800  0.0672  0.3318
 6668TIP3    H141419   5.016   5.017  15.875  1.6976 -0.0090 -0.9184
 6668TIP3    H241420   4.870   5.024  15.839  1.2731  1.2922  0.8827
 6669TIP3   OH241421   4.682   0.828  13.271 -0.0704 -0.2804  0.4838
 6669TIP3    H141422   4.630   0.771  13.328 -0.5575  0.5415  0.8816
 6669TIP3    H241423   4.625   0.903  13.253  0.2077 -0.3419 -0.7996
 6670TIP3   OH241424   6.670   5.574  12.718  0.0896  0.0717 -0.1879
 6670TIP3    H141425   6.682   5.627  12.797 -0.5156 -0.4977  0.2992
 6670TIP3    H241426   6.646   5.487  12.751 -0.5755 -0.0707 -1.0064
 6671TIP3   OH241427   5.162   1.180   2.821 -0.0632  0.7411  0.3179
 6671TIP3    H141428   5.096   1.246   2.841 -0.6110  0.4093 -0.3225
 6671TIP3    H241429   5.212   1.217   2.748  0.7241  1.1622  1.0642
 6672TIP3   OH241430   1.456   0.097   3.311 -0.1048 -0.6037  0.4215
 6672TIP3    H141431   1.456   0.013   3.357 -2.7154 -0.1944  1.3542
 6672TIP3    H241432   1.366   0.108   3.281 -0.0493  2.2000  0.9959
 6673TIP3   OH241433   0.067   0.697   2.631  0.3497  0.6368  0.5709
 6673TIP3    H141434   0.104   0.648   2.705  1.7818  2.0911  0.8803
 6673TIP3    H241435  -0.021   0.720   2.660  0.0756 -0.7134  0.8871
 6674TIP3   OH241436   0.626   0.267  14.881 -0.0001 -0.5506 -0.1662
 6674TIP3    H141437   0.591   0.200  14.941  0.6761 -0.3594  0.4609
 6674TIP3    H241438   0.556   0.331  14.873 -0.3467 -0.9169 -0.1063
 6675TIP3   OH241439   5.164   4.822   3.122 -0.1007  0.0723 -0.1596
 6675TIP3    H141440   5.151   4.734   3.087  1.8558 -0.5991  0.6514
 6675TIP3    H241441   5.096   4.831   3.189  0.4369 -1.3211  0.6073
 6676TIP3   OH241442   0.969   6.614   3.729 -0.7141  0.2633  0.1150
 6676TIP3    H141443   0.981   6.519   3.716  0.1407  0.0242  2.1889
 6676TIP3    H241444   1.009   6.653   3.651  0.5155 -1.0462  0.0309
 6677TIP3   OH241445   4.139   3.928   4.063  0.5130 -0.4911  0.1619
 6677TIP3    H141446   4.183   3.975   4.134  2.5539 -3.3591  0.9671
 6677TIP3    H241447   4.197   3.939   3.988  1.4316 -2.2697  0.5707
 6678TIP3   OH241448   5.123   5.807   5.672  0.6244 -0.4602  0.3829
 6678TIP3    H141449   5.158   5.866   5.605 -1.6067  2.1443  1.3449
 6678TIP3    H241450   5.172   5.829   5.751 -1.0023  1.0444  1.0216
 6679TIP3   OH241451   0.883   4.018  16.962 -0.2774 -0.0359 -0.9750
 6679TIP3    H141452   0.859   3.925  16.971  2.3032 -0.8343 -1.5048
 6679TIP3    H241453   0.881   4.034  16.868  0.5675  0.0529 -0.9811
 6680TIP3   OH241454   0.627   0.728   4.711 -0.2856  0.0897  0.4399
 6680TIP3    H141455   0.556   0.776   4.670  0.6975  0.0175 -1.4384
 6680TIP3    H241456   0.669   0.792   4.768 -0.3291  0.8426 -0.3585
 6681TIP3   OH241457   2.735   2.129  11.112  0.5287  0.6769 -0.0781
 6681TIP3    H141458   2.828   2.104  11.112  0.3905 -0.2663  3.1054
 6681TIP3    H241459   2.734   2.216  11.070  2.5313 -0.0626 -1.8409
 6682TIP3   OH241460   6.226   1.017  11.126 -0.9887 -0.1936 -0.4807
 6682TIP3    H141461   6.262   1.098  11.165  0.4482 -1.3764  0.7858
 6682TIP3    H241462   6.245   1.026  11.032  1.4027 -0.1055 -0.0457
 6683TIP3   OH241463   3.960   3.898   3.627 -0.6290  0.2588 -0.1405
 6683TIP3    H141464   3.960   3.810   3.590 -1.4253 -0.2348  0.9583
 6683TIP3    H241465   3.895   3.894   3.697 -1.0010  1.8543 -0.3626
 6684TIP3   OH241466   4.880   3.848   3.528 -0.4282  0.0881 -0.2271
 6684TIP3    H141467   4.956   3.869   3.583 -0.6621  0.6542 -0.1173
 6684TIP3    H241468   4.913   3.781   3.468 -0.1169 -0.3914  0.4679
 6685TIP3   OH241469   3.404   4.372   0.259  0.0788 -0.0196  0.6551
 6685TIP3    H141470   3.351   4.445   0.228 -0.1435  0.6738  2.5698
 6685TIP3    H241471   3.487   4.380   0.211 -1.1625 -0.6076 -1.7248
 6686TIP3   OH241472   4.636   5.766   2.439  0.2225 -0.2306  0.6813
 6686TIP3    H141473   4.607   5.675   2.433 -0.4971 -0.1365  2.2187
 6686TIP3    H241474   4.721   5.762   2.483  1.3003 -0.2858 -1.2752
 6687TIP3   OH241475   4.482   0.884   1.912  0.2252  0.6264  0.1142
 6687TIP3    H141476   4.574   0.899   1.893  0.8192 -0.4419  1.9002
 6687TIP3    H241477   4.437   0.959   1.872  2.0010  1.9295  0.4223
 6688TIP3   OH241478   0.036   0.819  15.775 -0.5863  0.2028 -0.2914
 6688TIP3    H141479   0.047   0.913  15.756 -0.0340  0.4889  1.3161
 6688TIP3    H241480   0.010   0.781  15.691 -0.3419  1.7144 -1.0924
 6689TIP3   OH241481   4.063   1.835   6.352  0.1154  0.1832 -0.1879
 6689TIP3    H141482   4.043   1.906   6.291 -0.2340  1.4649  1.3480
 6689TIP3    H241483   4.066   1.756   6.297  0.9366  1.4141 -2.0149
 6690TIP3   OH241484   5.424   0.002  11.290  0.1835 -0.2452 -0.3983
 6690TIP3    H141485   5.397  -0.078  11.336  0.0816  0.0937  0.1389
 6690TIP3    H241486   5.381  -0.004  11.205 -0.9752 -0.0864  0.1594
 6691TIP3   OH241487   4.878   5.452   2.624 -0.8402  0.0623  0.2949
 6691TIP3    H141488   4.950   5.422   2.679 -2.1920 -3.8044  0.2590
 6691TIP3    H241489   4.909   5.440   2.534 -0.7697  0.5774  0.2453
 6692TIP3   OH241490   4.064   6.285  17.099 -0.2797  0.5048 -0.1414
 6692TIP3    H141491   4.051   6.204  17.148  0.9190 -0.4454 -1.3251
 6692TIP3    H241492   4.109   6.343  17.160 -0.7568  0.1335  0.5811
 6693TIP3   OH241493   4.669   2.449  14.578  0.4543  0.2125  0.1042
 6693TIP3    H141494   4.672   2.544  14.578 -2.8708  0.4441 -0.3159
 6693TIP3    H241495   4.622   2.426  14.498 -0.7479 -1.6028  1.2381
 6694TIP3   OH241496   0.937   0.454  12.471  0.2289  0.0694  0.9126
 6694TIP3    H141497   0.907   0.460  12.562  0.9016 -2.3930  1.3618
 6694TIP3    H241498   0.879   0.389  12.432  0.6075  0.3577 -0.1485
 6695TIP3   OH241499   1.977   0.219   4.990 -0.1243 -0.0361 -0.1794
 6695TIP3    H141500   2.073   0.216   4.989 -0.1600 -1.1952 -0.4881
 6695TIP3    H241501   1.951   0.205   4.899 -0.6320 -1.9475  0.2269
 6696TIP3   OH241502   5.380   2.292  13.955 -0.1309 -0.0599  0.0661
 6696TIP3    H141503   5.413   2.222  14.011 -1.7877 -0.8204  0.1587
 6696TIP3    H241504   5.294   2.314  13.992  0.0313  1.5236 -0.4016
 6697TIP3   OH241505   6.010   2.904   5.315  0.6864 -0.7573  0.5151
 6697TIP3    H141506   5.931   2.858   5.285  0.0712  0.0309  0.8775
 6697TIP3    H241507   5.980   2.993   5.332  1.5724 -0.5520  1.0531
 6698TIP3   OH241508   5.978   5.182   5.455  0.1232 -0.6195  0.5558
 6698TIP3    H141509   6.004   5.263   5.411 -1.5417  0.1472  0.8770
 6698TIP3    H241510   5.945   5.211   5.540  0.3381 -1.7379  1.0378
 6699TIP3   OH241511   1.679   1.545   0.889 -0.1302  0.0519  0.8611
 6699TIP3    H141512   1.679   1.453   0.863 -1.8432 -0.4151  2.3122
 6699TIP3    H241513   1.589   1.574   0.874  0.4297  1.5594  0.2671
 6700TIP3   OH241514   3.428   5.711  15.962 -0.1651 -0.0095  0.2243
 6700TIP3    H141515   3.466   5.662  15.889 -1.4277 -1.2434  0.3461
 6700TIP3    H241516   3.448   5.803  15.943  1.9451 -0.5231 -0.2095
 6701TIP3   OH241517   3.404   1.326  12.485 -0.1180 -0.0653  0.0550
 6701TIP3    H141518   3.421   1.420  12.494  0.0473  0.1940 -2.2632
 6701TIP3    H241519   3.473   1.284  12.536 -0.1976  1.0605  1.1344
 6702TIP3   OH241520   3.250   1.095   0.957 -0.4044 -0.2306 -0.1495
 6702TIP3    H141521   3.178   1.063   1.012  0.7882 -2.7991  0.0607
 6702TIP3    H241522   3.325   1.102   1.016 -0.2476  1.7658 -0.5010
 6703TIP3   OH241523   4.079   5.035   2.700  0.2882  0.3518  0.1055
 6703TIP3    H141524   4.073   5.104   2.766 -1.9013 -1.1284  1.6014
 6703TIP3    H241525   4.009   5.056   2.637 -2.0725 -1.5865  1.8532
 6704TIP3   OH241526   1.681   3.193  14.430 -0.4786 -0.5730  0.6447
 6704TIP3    H141527   1.695   3.270  14.486 -1.8603  0.0470  0.1778
 6704TIP3    H241528   1.594   3.160  14.455 -0.3313 -1.3897  0.1404
 6705TIP3   OH241529   0.093   6.604   2.018  0.1442  0.4535 -0.5943
 6705TIP3    H141530   0.151   6.568   2.085  0.0727 -0.2832 -0.9205
 6705TIP3    H241531   0.140   6.591   1.936 -0.6035 -0.4092 -0.8903
 6706TIP3   OH241532   3.017   2.232   5.929  0.1608  0.2402  0.2332
 6706TIP3    H141533   3.015   2.143   5.963 -1.5520  0.2530  0.2819
 6706TIP3    H241534   3.025   2.287   6.008  0.4112  0.1495  0.2709
 6707TIP3   OH241535   6.757   4.084  13.451  0.1896  0.3347  0.2459
 6707TIP3    H141536   6.811   4.142  13.397 -0.5017  0.2032 -0.6023
 6707TIP3    H241537   6.704   4.144  13.504  0.1255  0.4748  0.0246
 6708TIP3   OH241538   2.031   2.025   0.352 -0.5115 -0.6687 -0.2899
 6708TIP3    H141539   1.996   2.106   0.390 -1.3456 -0.1969 -1.9832
 6708TIP3    H241540   1.957   1.964   0.354  0.3532 -1.7765  1.8419
 6709TIP3   OH241541   0.490   3.755  11.040  0.7585  0.3126  0.3805
 6709TIP3    H141542   0.496   3.690  10.970 -1.7311  0.0819  0.2782
 6709TIP3    H241543   0.465   3.836  10.995  0.8851  0.5899  0.8084
 6710TIP3   OH241544   1.514   4.200  13.259  0.2376 -0.5643 -0.0337
 6710TIP3    H141545   1.565   4.252  13.197  0.1147 -0.9683 -0.4781
 6710TIP3    H241546   1.424   4.232  13.249  0.3335 -0.1397  0.4504
 6711TIP3   OH241547   3.660   1.164   2.852  0.7807 -0.0060 -0.2354
 6711TIP3    H141548   3.663   1.102   2.925 -1.0473  0.8120  0.5854
 6711TIP3    H241549   3.639   1.111   2.776 -2.7021 -0.2661  0.7569
 6712TIP3   OH241550   3.746   6.139   2.528  0.1087 -0.1406 -0.4399
 6712TIP3    H141551   3.717   6.095   2.608  0.4624 -0.9474 -0.7394
 6712TIP3    H241552   3.793   6.216   2.558  0.8914 -0.8418  0.1703
 6713TIP3   OH241553   0.155   5.736  12.597  0.1394 -0.1344 -0.3534
 6713TIP3    H141554   0.226   5.672  12.597  1.6868  1.4224  1.9294
 6713TIP3    H241555   0.078   5.686  12.572  1.7057 -2.3093 -1.1495
 6714TIP3   OH241556   5.057   3.922   4.431  0.2509 -0.0341  0.1670
 6714TIP3    H141557   4.964   3.912   4.450 -0.2477  0.1321 -1.9732
 6714TIP3    H241558   5.092   3.833   4.436 -0.4300 -0.3765 -0.8046
 6715TIP3   OH241559   0.979   5.072   4.799  0.2762  0.6399  0.0425
 6715TIP3    H141560   1.049   5.011   4.777 -0.2878 -1.5142  3.4279
 6715TIP3    H241561   0.907   5.048   4.741  0.7030 -0.6623  0.0075
 6716TIP3   OH241562   6.765   0.044   3.374  0.7627  0.2549 -0.0508
 6716TIP3    H141563   6.718  -0.025   3.327  0.3454  0.9879 -0.7229
 6716TIP3    H241564   6.736   0.033   3.465  1.5935 -1.1834  0.0796
 6717TIP3   OH241565   3.801   4.930   3.850 -0.5692  0.4856  0.3094
 6717TIP3    H141566   3.811   4.940   3.756 -0.4898  0.3823  0.3070
 6717TIP3    H241567   3.807   4.836   3.866  2.2583  0.6613  0.7344
 6718TIP3   OH241568   1.762   4.663   0.787  0.1696  0.0509 -0.2644
 6718TIP3    H141569   1.720   4.722   0.850  0.7227 -0.4355  0.5867
 6718TIP3    H241570   1.837   4.713   0.754  0.0088  0.2273 -0.3638
 6719TIP3   OH241571   6.381   5.074  12.199  0.0373  0.1428 -0.2749
 6719TIP3    H141572   6.385   4.989  12.155 -0.3773  0.8999 -1.8642
 6719TIP3    H241573   6.471   5.092  12.225  0.2593 -0.4267 -0.6338
 6720TIP3   OH241574   6.002   1.437  16.405 -0.0503 -0.4105  0.4469
 6720TIP3    H141575   6.081   1.473  16.445 -0.3884  0.1547  0.6160
 6720TIP3    H241576   6.028   1.349  16.375  0.2996 -0.7228  1.6103
 6721TIP3   OH241577   5.070   2.842  14.278 -0.5032 -0.2346 -0.0281
 6721TIP3    H141578   5.066   2.775  14.345 -1.6785  0.6614  0.8360
 6721TIP3    H241579   5.128   2.909  14.315  2.9919 -1.8607 -2.0071
 6722TIP3   OH241580   6.176   6.478   4.977 -0.2470  0.2594  0.1975
 6722TIP3    H141581   6.132   6.411   5.030 -1.3715  0.4202 -0.4927
 6722TIP3    H241582   6.141   6.561   5.010  1.5510  0.6014  1.4277
 6723TIP3   OH241583   2.807   6.041  16.699  0.0962  0.5141 -0.4310
 6723TIP3    H141584   2.790   6.135  16.708 -0.0353  0.4811 -0.3386
 6723TIP3    H241585   2.881   6.036  16.638 -0.2999  0.6550 -0.9292
 6724TIP3   OH241586   0.964   3.522  17.049  0.8346 -0.3965  0.5497
 6724TIP3    H141587   1.034   3.458  17.036  1.8268  0.8406 -0.5642
 6724TIP3    H241588   0.898   3.498  16.984  0.3314 -1.3840  1.3993
 6725TIP3   OH241589   1.855   0.727  12.228 -0.4345  0.2245  0.1626
 6725TIP3    H141590   1.940   0.689  12.204 -0.7153 -0.1675 -0.2175
 6725TIP3    H241591   1.851   0.720  12.323  0.0982  0.5351  0.2117
 6726TIP3   OH241592   3.138   0.834  11.945 -0.4905 -0.4119  0.4803
 6726TIP3    H141593   3.230   0.837  11.917 -0.9429 -0.7537 -1.1604
 6726TIP3    H241594   3.142   0.829  12.041  1.3679 -5.5886  0.4052
 6727TIP3   OH241595   4.234   6.599   4.178  0.3105  0.2673 -0.2142
 6727TIP3    H141596   4.214   6.572   4.268 -0.7464  1.5452 -0.0418
 6727TIP3    H241597   4.273   6.686   4.187 -1.7982  1.3754 -1.0849
 6728TIP3   OH241598   3.224   4.653  13.042  0.2009 -0.7224 -0.7882
 6728TIP3    H141599   3.231   4.744  13.070 -0.3850 -0.5634 -1.1337
 6728TIP3    H241600   3.195   4.606  13.120 -2.3480 -0.1309 -1.2729
 6729TIP3   OH241601   0.302   2.369  11.720 -0.2451 -0.5498  1.1103
 6729TIP3    H141602   0.342   2.407  11.642 -0.2242 -0.8709  0.9601
 6729TIP3    H241603   0.208   2.369  11.702 -0.1340 -2.3948  0.2399
 6730TIP3   OH241604   5.091   3.130   2.649 -0.4125 -0.2089 -0.1656
 6730TIP3    H141605   5.142   3.085   2.581 -2.2682 -1.1858 -0.9616
 6730TIP3    H241606   5.103   3.223   2.630 -1.9920 -0.4544 -2.7454
 6731TIP3   OH241607   0.098   4.484   2.053  0.2321  0.2165 -1.0688
 6731TIP3    H141608   0.086   4.428   1.976 -0.4721 -0.2075 -0.6567
 6731TIP3    H241609   0.153   4.556   2.022  1.6854 -1.0253 -1.4546
 6732TIP3   OH241610   1.459   5.097   1.112 -0.4797 -0.3972  0.4079
 6732TIP3    H141611   1.536   5.040   1.101 -0.5335 -0.3561 -0.2742
 6732TIP3    H241612   1.448   5.105   1.206  0.0763 -0.7844  0.5136
 6733TIP3   OH241613   2.666   0.172  15.725 -0.1609  0.3400  0.0854
 6733TIP3    H141614   2.749   0.195  15.684  0.1044  0.5569  0.7477
 6733TIP3    H241615   2.622   0.117  15.660  0.4179  0.3775 -0.3409
 6734TIP3   OH241616   4.983   0.470   2.653 -0.0518 -0.3653  0.1833
 6734TIP3    H141617   4.974   0.441   2.563  1.7044  0.3331 -0.2555
 6734TIP3    H241618   5.038   0.404   2.695  0.1448 -0.0611  0.4151
 6735TIP3   OH241619   4.051   5.910  15.567  0.3035  0.2168 -0.1981
 6735TIP3    H141620   3.980   5.880  15.624 -1.0913  0.5652 -1.6860
 6735TIP3    H241621   4.017   5.899  15.478  2.6121 -0.8572 -1.0515
 6736TIP3   OH241622   2.282   0.563   2.540 -0.3199  0.1056 -0.2474
 6736TIP3    H141623   2.189   0.549   2.557 -0.4822  1.0828 -0.2890
 6736TIP3    H241624   2.284   0.610   2.457  0.2968 -1.3668 -1.0982
 6737TIP3   OH241625   3.532   1.419  16.716  0.7355 -0.0571  0.2127
 6737TIP3    H141626   3.514   1.328  16.691 -1.9834  0.1725  0.9807
 6737TIP3    H241627   3.567   1.412  16.805 -0.6055 -0.3605  0.7482
 6738TIP3   OH241628   0.699   4.733   6.210 -0.3650  0.3470  0.6161
 6738TIP3    H141629   0.654   4.648   6.204 -0.2161  0.2635  0.6729
 6738TIP3    H241630   0.706   4.762   6.119  0.4462 -0.1594  0.5073
 6739TIP3   OH241631   6.414   5.363   5.836 -0.3209  0.4436 -0.6004
 6739TIP3    H141632   6.465   5.436   5.873 -1.1174 -0.1184  1.8456
 6739TIP3    H241633   6.344   5.349   5.900 -0.1187 -2.5669 -0.8903
 6740TIP3   OH241634   3.321   3.448   5.385 -0.5889  0.1003  0.1601
 6740TIP3    H141635   3.364   3.402   5.457  1.3589  1.3727 -0.0939
 6740TIP3    H241636   3.230   3.457   5.412 -0.3750 -1.3383  1.4709
 6741TIP3   OH241637   5.343   6.243   4.850 -0.1374 -0.1166  0.1107
 6741TIP3    H141638   5.433   6.271   4.834  0.7413 -2.8049 -0.1365
 6741TIP3    H241639   5.324   6.272   4.940  1.4067 -0.4907  0.5875
 6742TIP3   OH241640   0.527   6.522   5.198  0.6204  0.5133  0.8850
 6742TIP3    H141641   0.473   6.554   5.126  0.3520 -1.6810  0.0277
 6742TIP3    H241642   0.464   6.482   5.259  1.0074  0.8305  1.5044
 6743TIP3   OH241643   1.122   4.115   3.302  0.1775  0.4869  0.7692
 6743TIP3    H141644   1.145   4.208   3.305 -0.0354  0.6783 -1.7148
 6743TIP3    H241645   1.191   4.075   3.250  0.5523 -0.8892  2.2587
 6744TIP3   OH241646   1.965   1.322   1.868 -0.4389 -0.3323 -0.0052
 6744TIP3    H141647   1.926   1.311   1.955 -0.1726 -2.1486 -0.0658
 6744TIP3    H241648   1.898   1.289   1.807  0.0113 -0.6672 -0.3351
 6745TIP3   OH241649   4.266   3.814  14.107  1.0436 -0.0522  0.6233
 6745TIP3    H141650   4.258   3.853  14.019 -0.8175 -0.1225  0.7232
 6745TIP3    H241651   4.234   3.882  14.166 -0.5782 -1.0506  0.9568
 6746TIP3   OH241652   3.771   5.753   4.246 -0.1083  0.4085 -0.1245
 6746TIP3    H141653   3.768   5.712   4.332  0.0231  0.2587 -0.1910
 6746TIP3    H241654   3.863   5.749   4.220 -0.3910 -1.0872 -1.0179
 6747TIP3   OH241655   6.217   2.945   2.178 -0.3094  0.5182  0.4421
 6747TIP3    H141656   6.195   3.003   2.251 -0.3479  1.9607 -0.6648
 6747TIP3    H241657   6.311   2.960   2.164 -0.0337 -0.6616  0.9488
 6748TIP3   OH241658   0.553   5.679   2.531  0.8267 -0.6751 -0.3097
 6748TIP3    H141659   0.477   5.623   2.549  1.1733 -1.1061 -0.1907
 6748TIP3    H241660   0.616   5.622   2.489  1.4076 -0.5168  0.3321
 6749TIP3   OH241661   1.477   3.555  11.632 -0.3014 -0.2788 -0.2393
 6749TIP3    H141662   1.513   3.472  11.661  1.6752  0.7794  0.4914
 6749TIP3    H241663   1.383   3.538  11.621  0.0550 -2.5747 -0.1250
 6750TIP3   OH241664   6.007   1.689   0.297  0.3338 -0.2469  0.0484
 6750TIP3    H141665   5.928   1.657   0.253  0.2285  0.8478 -0.5902
 6750TIP3    H241666   5.985   1.689   0.390 -0.4597  0.1397 -0.1335
 6751TIP3   OH241667   3.018   5.064   4.349  0.5297  0.3083  0.0066
 6751TIP3    H141668   3.101   5.055   4.395  0.2925 -0.9833  0.2260
 6751TIP3    H241669   2.959   5.104   4.413  0.3756 -0.8944  0.6425
 6752TIP3   OH241670   6.217   3.212  12.969  0.6492 -0.0243 -0.1678
 6752TIP3    H141671   6.260   3.167  12.896 -0.2617 -0.7688 -0.2715
 6752TIP3    H241672   6.151   3.149  13.000  0.9919  0.3081  1.2757
 6753TIP3   OH241673   1.681   5.793  13.556  0.0509 -0.0725 -0.1643
 6753TIP3    H141674   1.762   5.797  13.606 -0.7863 -1.7926  1.4448
 6753TIP3    H241675   1.686   5.711  13.507 -0.3185  0.2862 -0.8322
 6754TIP3   OH241676   1.075   4.356  14.710  0.2232  0.1068 -0.5525
 6754TIP3    H141677   1.163   4.388  14.690  0.1245  0.8093  0.0490
 6754TIP3    H241678   1.033   4.430  14.755  0.2517 -1.1324  1.6722
 6755TIP3   OH241679   3.265   0.524  14.843  0.0757 -0.0033  0.0607
 6755TIP3    H141680   3.319   0.446  14.845 -2.1599 -1.6809 -0.9290
 6755TIP3    H241681   3.260   0.548  14.750 -0.1593  0.6533  0.2307
 6756TIP3   OH241682   1.916   2.810  12.454  0.0523 -0.9646  0.1298
 6756TIP3    H141683   1.873   2.793  12.370  0.7491 -1.3099 -0.1651
 6756TIP3    H241684   1.848   2.793  12.520 -0.3411 -1.2289 -0.3386
 6757TIP3   OH241685   6.773   5.563  15.815 -0.3218 -0.5706 -0.1022
 6757TIP3    H141686   6.767   5.622  15.740  0.4238 -0.6867 -0.2593
 6757TIP3    H241687   6.711   5.599  15.879  0.1009  0.3614 -0.2038
 6758TIP3   OH241688   1.664   3.690  13.057  0.1658  0.0097  0.1533
 6758TIP3    H141689   1.604   3.638  13.110  0.8585  0.2379  1.1977
 6758TIP3    H241690   1.716   3.625  13.009 -0.6457 -0.1931 -0.4652
 6759TIP3   OH241691   1.709   4.480  14.744 -0.2255  0.2774 -0.2548
 6759TIP3    H141692   1.744   4.515  14.826 -2.6623 -1.3538  1.6093
 6759TIP3    H241693   1.766   4.406  14.724 -0.5915 -0.3421  0.9188
 6760TIP3   OH241694   5.890   3.564   0.474 -0.2510  0.3164 -0.6530
 6760TIP3    H141695   5.883   3.517   0.391 -1.5175 -0.2994 -0.2320
 6760TIP3    H241696   5.850   3.649   0.458 -1.0390 -0.0234 -0.5317
 6761TIP3   OH241697   1.817   4.424  11.894  0.0556  0.3917 -0.2302
 6761TIP3    H141698   1.885   4.462  11.950 -0.0312  2.1994 -1.2883
 6761TIP3    H241699   1.737   4.431  11.945  0.2741  0.3972  0.1127
 6762TIP3   OH241700   1.180   2.248   3.458 -0.1133 -0.6034  0.0955
 6762TIP3    H141701   1.208   2.187   3.526  0.4362 -1.4954 -0.9030
 6762TIP3    H241702   1.115   2.200   3.408  1.2130 -0.8761 -1.4647
 6763TIP3   OH241703   4.797   4.214   2.351  0.4989 -0.1104 -0.0925
 6763TIP3    H141704   4.763   4.150   2.413  1.2124 -0.7330 -0.3307
 6763TIP3    H241705   4.760   4.187   2.266  3.4882 -2.3447 -0.8312
 6764TIP3   OH241706   3.748   5.374  11.502  0.2516  0.1339 -0.8294
 6764TIP3    H141707   3.802   5.420  11.437 -0.4462 -0.3007 -1.7436
 6764TIP3    H241708   3.668   5.425  11.507 -0.1365 -0.4314 -1.1294
 6765TIP3   OH241709   2.249   1.859   1.638  0.3448  0.0979 -0.3632
 6765TIP3    H141710   2.297   1.788   1.596 -0.4123 -1.2475  0.9263
 6765TIP3    H241711   2.317   1.914   1.678  0.9035 -0.5479 -0.4066
 6766TIP3   OH241712   2.625   2.950   3.806 -0.1400 -0.0475 -0.3806
 6766TIP3    H141713   2.683   2.989   3.871 -0.4136 -0.5467  0.1751
 6766TIP3    H241714   2.537   2.971   3.837 -0.2670  0.6367 -1.1730
 6767TIP3   OH241715   3.046   4.635   0.371  0.0034  0.2560 -0.0437
 6767TIP3    H141716   3.078   4.695   0.303  0.2145  0.9822  0.6796
 6767TIP3    H241717   2.990   4.689   0.426 -1.1043 -0.6113 -0.3022
 6768TIP3   OH241718   4.310   4.299   0.917  1.1607 -0.2591 -0.0750
 6768TIP3    H141719   4.349   4.237   0.979 -1.4817 -1.9534  0.0856
 6768TIP3    H241720   4.269   4.243   0.851 -1.9651  1.1771  0.4489
 6769TIP3   OH241721   4.805   2.576  11.358 -0.5942 -0.7695 -0.4973
 6769TIP3    H141722   4.785   2.631  11.282  1.0787  0.0336 -0.4072
 6769TIP3    H241723   4.719   2.553  11.394 -1.3839  0.8749 -1.1963
 6770TIP3   OH241724   1.561   1.843  16.808 -0.7348 -0.0582 -0.6013
 6770TIP3    H141725   1.471   1.874  16.820 -0.6075  0.0845  0.0444
 6770TIP3    H241726   1.553   1.763  16.757 -1.4898 -1.6453  1.8703
 6771TIP3   OH241727   3.557   2.378   2.514  0.0148 -0.6130 -0.5002
 6771TIP3    H141728   3.466   2.386   2.541  0.1985  0.2221 -0.0846
 6771TIP3    H241729   3.605   2.356   2.594  0.5569  1.8420 -0.0521
 6772TIP3   OH241730   6.744   1.694  13.642 -0.2487  0.0603 -0.6991
 6772TIP3    H141731   6.783   1.728  13.562  1.7113 -0.7642 -0.1460
 6772TIP3    H241732   6.817   1.657  13.691 -1.6253 -0.8590  0.7702
 6773TIP3   OH241733   1.329   0.592  15.291 -0.1798  0.4110  0.2203
 6773TIP3    H141734   1.272   0.515  15.292 -0.6243  0.6716  2.5791
 6773TIP3    H241735   1.298   0.645  15.218 -0.8576 -0.9498 -0.4977
 6774TIP3   OH241736   3.902   3.153   0.419  0.0898  0.1422 -0.0528
 6774TIP3    H141737   3.896   3.129   0.326 -1.7478 -1.4146  0.3966
 6774TIP3    H241738   3.837   3.223   0.429  0.6067  0.6210 -0.0173
 6775TIP3   OH241739   4.070   4.799  15.293  0.4020  0.1645 -0.2955
 6775TIP3    H141740   4.042   4.822  15.382  0.1798 -0.0325 -0.3152
 6775TIP3    H241741   4.130   4.725  15.306 -0.2889 -0.4156 -0.3743
 6776TIP3   OH241742   6.337   5.720   1.070 -0.2250 -0.0534  0.0722
 6776TIP3    H141743   6.318   5.812   1.055 -0.0819 -0.0644 -0.1681
 6776TIP3    H241744   6.381   5.690   0.991 -1.0402 -0.5451 -0.2155
 6777TIP3   OH241745   0.525   5.224   5.193 -0.0228  0.1984 -0.5733
 6777TIP3    H141746   0.431   5.239   5.206 -0.1530 -1.6759  1.1543
 6777TIP3    H241747   0.530   5.143   5.143  0.6602 -0.3916  0.4273
 6778TIP3   OH241748   3.675   1.683   2.799 -0.2370  0.2169  0.2552
 6778TIP3    H141749   3.722   1.601   2.786 -1.5189 -0.7694  1.5500
 6778TIP3    H241750   3.617   1.690   2.724 -1.5985 -1.1579  1.1254
 6779TIP3   OH241751   4.442   6.094   2.895 -0.3072 -0.4227 -0.1137
 6779TIP3    H141752   4.528   6.089   2.853 -0.4188 -2.7505 -0.1911
 6779TIP3    H241753   4.459   6.133   2.981  1.0642 -1.9619  0.3646
 6780TIP3   OH241754   4.161   0.500   0.293 -0.7499  0.4710 -0.3650
 6780TIP3    H141755   4.065   0.510   0.297 -0.7063  0.7914 -0.0617
 6780TIP3    H241756   4.174   0.415   0.252 -1.1655  0.6302 -0.8518
 6781TIP3   OH241757   4.019   1.536   0.925  0.4438 -0.5005  0.4159
 6781TIP3    H141758   4.010   1.620   0.879  1.8246 -0.2250  0.6278
 6781TIP3    H241759   3.929   1.513   0.949  0.1094  1.2688  0.9945
 6782TIP3   OH241760   5.833   5.335  13.459 -0.1224 -0.2492  0.3094
 6782TIP3    H141761   5.902   5.391  13.423 -0.2723  0.2538  0.7940
 6782TIP3    H241762   5.878   5.253  13.481  0.2393 -0.0715  0.2457
 6783TIP3   OH241763   4.765   2.213   0.903 -0.0099 -0.3725  0.3603
 6783TIP3    H141764   4.762   2.246   0.993  0.6087  0.6537  0.0280
 6783TIP3    H241765   4.673   2.206   0.877 -0.1780  0.1266  0.7994
 6784TIP3   OH241766   3.558   4.387   4.269  0.3093 -0.1682  0.3766
 6784TIP3    H141767   3.567   4.482   4.264  0.8685 -0.2062  0.4910
 6784TIP3    H241768   3.631   4.353   4.217 -0.5156 -0.5473 -0.5717
 6785TIP3   OH241769   5.385   1.137   1.446 -0.1695  0.3105  0.0279
 6785TIP3    H141770   5.471   1.139   1.487  0.0786 -0.9046 -0.3708
 6785TIP3    H241771   5.351   1.049   1.466 -1.9653  1.2654  1.4383
 6786TIP3   OH241772   6.273   0.938   6.372  0.1711  0.3210 -0.1592
 6786TIP3    H141773   6.295   1.026   6.404  0.5118 -0.0772  0.7026
 6786TIP3    H241774   6.331   0.879   6.419 -0.9768 -0.5014  0.2747
 6787TIP3   OH241775   3.880   3.484  12.543  0.6827  0.1355 -0.4438
 6787TIP3    H141776   3.937   3.422  12.497  1.3089  0.2484  0.1693
 6787TIP3    H241777   3.937   3.528  12.605 -0.3116 -0.5383  0.9869
 6788TIP3   OH241778   2.676   3.981   2.543 -0.1109  0.0976  0.0982
 6788TIP3    H141779   2.690   3.896   2.501 -1.1064  0.2736 -0.6408
 6788TIP3    H241780   2.648   4.038   2.471 -2.4495  0.2781  1.0622
 6789TIP3   OH241781   1.003   4.569  11.954 -0.2438  0.6796 -0.0870
 6789TIP3    H141782   1.039   4.543  11.869 -0.6739  1.3361 -0.4768
 6789TIP3    H241783   0.915   4.532  11.955  0.8334 -2.1345  1.4479
 6790TIP3   OH241784   2.685   5.225  13.582 -0.6608 -0.4908  0.1174
 6790TIP3    H141785   2.642   5.250  13.500  1.3210  0.5282 -0.6667
 6790TIP3    H241786   2.613   5.198  13.638 -1.9998 -2.8131 -2.4510
 6791TIP3   OH241787   0.410   0.744   4.295  0.3936 -0.0693  0.1431
 6791TIP3    H141788   0.467   0.820   4.308 -0.8191  0.8810  0.0670
 6791TIP3    H241789   0.347   0.772   4.228 -0.3712 -0.9719  0.4610
 6792TIP3   OH241790   4.764   0.024  11.301  0.4762 -0.3448 -0.2728
 6792TIP3    H141791   4.781   0.020  11.207  0.5867  0.0592 -0.2709
 6792TIP3    H241792   4.669   0.017  11.308  0.3928  0.4508 -0.4734
 6793TIP3   OH241793   2.071   6.463  12.556 -0.0375 -0.0391  0.4742
 6793TIP3    H141794   2.164   6.484  12.545  0.1445 -0.9306  0.2755
 6793TIP3    H241795   2.046   6.420  12.474 -1.1119  1.8344 -0.2449
 6794TIP3   OH241796   6.109   3.198  15.051 -0.2068 -0.5689 -0.1961
 6794TIP3    H141797   6.153   3.146  15.118 -0.8374 -2.4749 -1.1951
 6794TIP3    H241798   6.173   3.266  15.028  0.8810 -1.2425  0.7439
 6795TIP3   OH241799   0.182   5.392   3.428 -0.1596  0.2829  0.7247
 6795TIP3    H141800   0.201   5.358   3.516  1.7114 -1.5441 -0.3115
 6795TIP3    H241801   0.101   5.347   3.402  0.7631 -1.2996  0.4811
 6796TIP3   OH241802   2.036   5.667   1.555 -0.2623  0.0278  0.7342
 6796TIP3    H141803   1.992   5.601   1.499 -1.4032  0.9674  0.4753
 6796TIP3    H241804   2.124   5.632   1.567 -0.8188 -1.5513  0.5944
 6797TIP3   OH241805   1.067   3.364  15.090  0.3396  0.4631 -0.2828
 6797TIP3    H141806   1.010   3.441  15.084  0.5625  0.5418 -1.7510
 6797TIP3    H241807   1.151   3.394  15.056  1.2220  0.2537  1.5492
 6798TIP3   OH241808   0.153   0.466  12.871  0.5075  0.3069  0.0783
 6798TIP3    H141809   0.190   0.455  12.783 -0.8028 -3.2190 -0.1963
 6798TIP3    H241810   0.212   0.417  12.928  0.2621  0.9072  0.8672
 6799TIP3   OH241811   2.367   6.183  12.087  1.0796 -0.2845  0.1750
 6799TIP3    H141812   2.454   6.219  12.067  0.6024  0.2070 -1.0558
 6799TIP3    H241813   2.316   6.259  12.116  1.0417 -0.5746  0.8963
 6800TIP3   OH241814   0.936   4.556  14.905 -0.1610  0.8918 -0.1306
 6800TIP3    H141815   0.971   4.636  14.865  0.1354  0.8840  0.1128
 6800TIP3    H241816   0.964   4.560  14.996 -0.1237  0.4949 -0.1229
 6801TIP3   OH241817   0.922   5.757  14.458 -0.0101  0.0521  0.0904
 6801TIP3    H141818   0.850   5.723  14.405 -0.3913 -0.1886  0.7566
 6801TIP3    H241819   0.951   5.836  14.411 -0.1385 -0.3243 -0.6327
 6802TIP3   OH241820   5.450   3.181   0.715  0.2721 -0.4277 -0.2758
 6802TIP3    H141821   5.438   3.091   0.684 -2.0460 -0.1155 -0.4647
 6802TIP3    H241822   5.445   3.234   0.635 -1.7997  0.0834  0.1456
 6803TIP3   OH241823   6.554   1.606  14.254 -0.6252  1.5074  0.2380
 6803TIP3    H141824   6.563   1.602  14.349 -0.6259 -0.2764  0.1977
 6803TIP3    H241825   6.483   1.545  14.233  1.2815 -0.4395 -1.0812
 6804TIP3   OH241826   5.664   2.332   4.138  0.2183 -0.3535  0.2369
 6804TIP3    H141827   5.681   2.303   4.228 -0.7801 -1.0421  0.2238
 6804TIP3    H241828   5.589   2.391   4.145  1.1422  0.8986  0.0353
 6805TIP3   OH241829   5.366   2.431  15.012  0.7016  0.2146  0.5036
 6805TIP3    H141830   5.310   2.407  15.086  1.4518 -0.1074  0.9759
 6805TIP3    H241831   5.357   2.358  14.951  3.0707 -1.4706  1.9869
 6806TIP3   OH241832   3.998   5.201  14.287  0.1067 -0.4112  0.0454
 6806TIP3    H141833   4.092   5.200  14.269 -0.0072 -2.4377 -0.7166
 6806TIP3    H241834   3.987   5.140  14.360 -0.4589  1.0882  1.2710
 6807TIP3   OH241835   2.795   5.323   0.808  0.7604 -0.4379  0.4262
 6807TIP3    H141836   2.871   5.379   0.794  0.3063 -0.2113 -1.2449
 6807TIP3    H241837   2.833   5.236   0.824  1.4411 -0.8854 -2.8395
 6808TIP3   OH241838   0.906   3.549  15.329 -0.7007 -0.4783 -0.0335
 6808TIP3    H141839   0.887   3.636  15.293  0.7741  0.9048  2.2965
 6808TIP3    H241840   0.857   3.546  15.411 -0.4682 -1.7304  0.0770
 6809TIP3   OH241841   1.284   1.334  13.139  0.3595 -0.1952 -0.0851
 6809TIP3    H141842   1.363   1.300  13.181  0.4120  0.2181  0.1552
 6809TIP3    H241843   1.273   1.422  13.176 -0.6453 -0.5307  0.4674
 6810TIP3   OH241844   4.971   4.391  15.693 -0.3880  0.0239  0.2144
 6810TIP3    H141845   4.924   4.344  15.624 -0.3613  3.2386 -2.2464
 6810TIP3    H241846   5.063   4.372  15.676 -0.3502  1.1378 -1.0519
 6811TIP3   OH241847   4.823   5.002  16.950 -0.2213 -0.1869 -0.4547
 6811TIP3    H141848   4.853   5.024  16.861 -1.6766 -0.4870 -1.0503
 6811TIP3    H241849   4.874   5.058  17.007  1.2418 -0.4693 -1.4277
 6812TIP3   OH241850   3.344   6.035   1.568 -0.1923 -0.0899 -0.1109
 6812TIP3    H141851   3.343   6.131   1.575 -1.2704 -0.2023  2.1623
 6812TIP3    H241852   3.422   6.008   1.615 -1.3222 -0.3849  1.7093
 6813TIP3   OH241853   5.256   2.987   1.804  0.1166 -0.4195 -0.0076
 6813TIP3    H141854   5.206   2.999   1.885  0.4561  0.7019  0.0497
 6813TIP3    H241855   5.347   2.999   1.830  0.1910  0.4686 -0.6363
 6814TIP3   OH241856   0.233   4.918  14.995 -0.3072  0.2362  0.0326
 6814TIP3    H141857   0.168   4.951  14.933  1.5270  0.6446 -1.7660
 6814TIP3    H241858   0.233   4.823  14.982  0.0672  0.3207 -0.6035
 6815TIP3   OH241859   1.507   5.929  16.751 -0.8555 -0.5561  0.1239
 6815TIP3    H141860   1.568   5.889  16.688  1.3122 -0.7767  2.2124
 6815TIP3    H241861   1.518   6.023  16.738  0.3746 -0.5846  0.8307
 6816TIP3   OH241862   1.030   0.250   1.192  0.4495  0.2501  0.0055
 6816TIP3    H141863   0.970   0.262   1.266 -0.6744 -4.2592  0.1397
 6816TIP3    H241864   0.980   0.277   1.116 -0.1000  0.6270  0.4880
 6817TIP3   OH241865   3.696   4.881   3.318  0.0144 -0.0895  0.2735
 6817TIP3    H141866   3.607   4.854   3.293  0.7691 -1.5108 -1.0407
 6817TIP3    H241867   3.733   4.919   3.238  1.5888 -2.3159 -0.1557
 6818TIP3   OH241868   0.483   2.162  14.578 -0.2544  0.8786 -0.0244
 6818TIP3    H141869   0.559   2.108  14.555 -0.6676  0.1980  0.1703
 6818TIP3    H241870   0.432   2.168  14.497 -0.6735  0.1921  0.1770
 6819TIP3   OH241871   3.171   0.083   5.191 -0.6500 -0.0397  0.0024
 6819TIP3    H141872   3.163  -0.002   5.147 -3.0127  0.5485 -0.8501
 6819TIP3    H241873   3.263   0.088   5.217 -0.0933 -2.1684 -1.3233
 6820TIP3   OH241874   2.323   5.992   4.419  0.0922 -0.1553  0.4133
 6820TIP3    H141875   2.363   6.072   4.387 -0.3917  0.2469  0.7968
 6820TIP3    H241876   2.359   5.979   4.507 -0.3906  0.0555  0.6485
 6821TIP3   OH241877   1.395   6.379   0.881  0.2457  0.3308  0.0722
 6821TIP3    H141878   1.402   6.434   0.959  0.1831 -0.0998  0.3826
 6821TIP3    H241879   1.445   6.426   0.814 -0.9803  1.4856 -0.0827
 6822TIP3   OH241880   1.288   3.587   3.305  0.1900 -0.2303 -0.4613
 6822TIP3    H141881   1.266   3.652   3.238  0.7837 -0.0372 -0.4706
 6822TIP3    H241882   1.203   3.558   3.338 -0.1283 -0.6616 -1.6108
 6823TIP3   OH241883   2.732   0.939   2.080 -0.3522 -0.2811 -0.7156
 6823TIP3    H141884   2.816   0.928   2.125 -0.2311  1.3963 -0.4700
 6823TIP3    H241885   2.738   0.880   2.004  0.8331 -0.5714 -0.4193
 6824TIP3   OH241886   2.927   0.345  10.723 -0.0634  0.5557 -0.0849
 6824TIP3    H141887   2.876   0.297  10.658  2.0203 -0.3735 -1.1222
 6824TIP3    H241888   2.949   0.428  10.681  2.0403 -0.4043 -1.0085
 6825TIP3   OH241889   0.807   0.613   5.596 -0.1314  0.0316  0.1982
 6825TIP3    H141890   0.868   0.686   5.585  0.6072 -0.6065 -0.0248
 6825TIP3    H241891   0.811   0.593   5.689  0.1285 -0.1135  0.1574
 6826TIP3   OH241892   5.797   4.411  14.468 -0.2580 -0.3447  0.5041
 6826TIP3    H141893   5.710   4.438  14.439 -0.0687  1.2423  1.3032
 6826TIP3    H241894   5.837   4.492  14.500  0.7848 -1.3994  1.9690
 6827TIP3   OH241895   5.533   1.410   1.295  0.7536 -0.3924  0.3310
 6827TIP3    H141896   5.571   1.438   1.379  0.0358  0.8756  0.2606
 6827TIP3    H241897   5.596   1.440   1.230  0.3677  0.3942  0.3074
 6828TIP3   OH241898   3.130   3.750  10.659 -0.2649  0.1870  0.9721
 6828TIP3    H141899   3.077   3.789  10.590 -0.1423 -2.6612 -0.8778
 6828TIP3    H241900   3.068   3.731  10.729 -0.8595  0.8916  0.6486
 6829TIP3   OH241901   2.913   5.049   1.259 -0.0655  0.2557 -0.1164
 6829TIP3    H141902   2.981   5.036   1.326 -0.5929 -0.3306  0.3168
 6829TIP3    H241903   2.953   5.017   1.178  0.4967  0.7587 -0.0439
 6830TIP3   OH241904   2.388   3.716   5.453 -0.1961 -0.0639  0.6001
 6830TIP3    H141905   2.457   3.651   5.465 -1.0266 -0.9199  0.8483
 6830TIP3    H241906   2.338   3.714   5.535 -0.6565  0.3678  0.3373
 6831TIP3   OH241907   4.739   2.918  11.525  0.3061  0.1399 -0.7618
 6831TIP3    H141908   4.779   2.987  11.578 -0.4796 -0.6473  0.9089
 6831TIP3    H241909   4.706   2.854  11.588 -1.3864 -0.4515 -2.1459
 6832TIP3   OH241910   3.953   1.006   1.088 -0.1196  0.6497 -0.1151
 6832TIP3    H141911   3.886   1.003   1.019  2.5493 -1.6306 -2.8883
 6832TIP3    H241912   3.921   0.943   1.154  0.0003 -1.8570 -2.2718
 6833TIP3   OH241913   2.946   4.836  12.566  0.0837  0.2897  0.1482
 6833TIP3    H141914   2.855   4.844  12.595 -0.1420 -0.1833 -0.4017
 6833TIP3    H241915   2.940   4.803  12.476  0.7969  0.4476  0.0323
 6834TIP3   OH241916   1.549   4.997   4.718 -0.6608 -0.0960 -0.0888
 6834TIP3    H141917   1.639   4.977   4.693 -0.8496 -0.7751 -0.2351
 6834TIP3    H241918   1.514   4.914   4.750 -0.8332  0.4538  1.2193
 6835TIP3   OH241919   1.216   5.164  13.455 -0.6049  0.4571 -0.7378
 6835TIP3    H141920   1.180   5.243  13.494  0.3845  0.9790 -0.8449
 6835TIP3    H241921   1.230   5.187  13.363 -1.1567 -0.1409 -0.9771
 6836TIP3   OH241922   4.680   1.769  13.357 -0.0017 -0.5943 -0.2305
 6836TIP3    H141923   4.617   1.697  13.348 -1.0771  0.1362  1.0954
 6836TIP3    H241924   4.715   1.759  13.446  0.6178 -0.0837 -0.4106
 6837TIP3   OH241925   2.989   2.817  17.240 -0.6932 -0.2327  0.3266
 6837TIP3    H141926   3.026   2.788  17.323 -1.6756 -1.0877  0.4900
 6837TIP3    H241927   2.999   2.912  17.241  1.9057 -0.4349  0.1354
 6838TIP3   OH241928   1.030   6.512  14.492  0.0444 -0.0333 -0.3644
 6838TIP3    H141929   0.958   6.574  14.506  2.5656  2.8810  0.9516
 6838TIP3    H241930   1.021   6.487  14.400 -2.3967  0.4857 -0.3510
 6839TIP3   OH241931   1.413   4.413  17.123 -0.1147 -0.2292 -0.5135
 6839TIP3    H141932   1.360   4.340  17.154 -0.5133 -0.0918 -0.8729
 6839TIP3    H241933   1.417   4.473  17.197 -0.6312 -0.1451 -0.5520
 6840TIP3   OH241934   0.693   3.671   3.010  0.5529  0.6897 -0.0341
 6840TIP3    H141935   0.722   3.589   3.051  1.5325  0.2581 -1.5420
 6840TIP3    H241936   0.599   3.675   3.031  0.5716 -0.5955  0.4130
 6841TIP3   OH241937   0.548   2.636   1.729  0.0182 -0.3987 -0.9134
 6841TIP3    H141938   0.575   2.721   1.763 -0.9261 -0.6102  0.4158
 6841TIP3    H241939   0.460   2.651   1.694 -0.5852 -1.0305  0.2725
 6842TIP3   OH241940   3.864   4.771  12.848 -0.3610  0.1284 -0.1408
 6842TIP3    H141941   3.775   4.807  12.841  0.4831  2.1341 -1.0091
 6842TIP3    H241942   3.911   4.831  12.905  0.6614 -0.5227 -0.2653
 6843TIP3   OH241943   1.163   0.482  13.259  0.5548  0.6379  0.1843
 6843TIP3    H141944   1.256   0.494  13.240  1.1050 -1.7536  0.9595
 6843TIP3    H241945   1.134   0.417  13.195 -0.6682  1.5292 -0.1917
 6844TIP3   OH241946   0.191   5.984  10.737  0.4970  0.0095  0.0181
 6844TIP3    H141947   0.167   5.902  10.694 -0.8251  0.5825 -0.4059
 6844TIP3    H241948   0.282   5.999  10.712 -0.0673  0.0519 -2.2017
 6845TIP3   OH241949   1.179   4.730   0.885 -0.0934 -0.8715  0.1169
 6845TIP3    H141950   1.227   4.811   0.904 -0.8272 -0.4832  0.3561
 6845TIP3    H241951   1.247   4.664   0.873  0.4719 -0.7442  2.2417
 6846TIP3   OH241952   4.699   0.779  16.122  0.0811 -0.7506  0.3544
 6846TIP3    H141953   4.693   0.774  16.026  2.2217 -2.7350  0.2320
 6846TIP3    H241954   4.618   0.740  16.153 -0.4551 -0.4782 -0.6431
 6847TIP3   OH241955   3.162   6.099   4.395 -0.3825 -0.7903  0.7847
 6847TIP3    H141956   3.107   6.141   4.328 -0.1606 -1.6630  0.0281
 6847TIP3    H241957   3.104   6.034   4.435 -0.7965  0.3450  2.1137
 6848TIP3   OH241958   3.191   6.407  15.435  0.2252 -0.4833  0.4256
 6848TIP3    H141959   3.200   6.343  15.364  0.3880 -1.2384  1.1033
 6848TIP3    H241960   3.125   6.368  15.493 -0.6796  0.6257  0.1633
 6849TIP3   OH241961   1.386   5.871   6.301  0.5986  0.4744 -0.1383
 6849TIP3    H141962   1.478   5.894   6.287  0.3624  0.3390 -2.4000
 6849TIP3    H241963   1.348   5.873   6.213 -0.9670 -2.0349  0.3878
 6850TIP3   OH241964   3.610   6.160   4.489 -0.4489 -1.0186 -0.1637
 6850TIP3    H141965   3.667   6.138   4.415  2.7387  1.6023  1.2794
 6850TIP3    H241966   3.540   6.213   4.451  1.6228  1.0690 -1.3121
 6851TIP3   OH241967   4.565   1.199   5.223  0.1771  0.3088 -0.3520
 6851TIP3    H141968   4.629   1.206   5.294  0.0322  0.9582 -0.2845
 6851TIP3    H241969   4.617   1.201   5.143  0.3878 -0.9382 -0.2668
 6852TIP3   OH241970   1.759   3.255   4.778  0.3826 -0.0037  0.0962
 6852TIP3    H141971   1.838   3.210   4.747  0.3670  0.0335  0.0005
 6852TIP3    H241972   1.689   3.220   4.724 -0.1927 -2.2550  2.1401
 6853TIP3   OH241973   2.737   1.932  16.857 -0.2145 -0.2535 -0.1278
 6853TIP3    H141974   2.800   2.004  16.857 -0.2303 -0.2241 -1.2920
 6853TIP3    H241975   2.735   1.901  16.766 -1.5644 -0.5214 -0.0299
 6854TIP3   OH241976   5.879   6.596  16.103 -0.2945  0.1640 -0.4748
 6854TIP3    H141977   5.813   6.655  16.065 -1.3444 -1.3959 -1.1467
 6854TIP3    H241978   5.878   6.617  16.196 -1.1956  0.6709 -0.5883
 6855TIP3   OH241979   3.791   4.962  16.478 -0.5815  0.5008  0.5845
 6855TIP3    H141980   3.755   4.916  16.402 -2.0429 -0.3883  1.7740
 6855TIP3    H241981   3.754   5.050  16.471  1.2590  1.2334 -1.0291
 6856TIP3   OH241982   1.153   4.966   3.511 -0.0101  0.2581 -0.1144
 6856TIP3    H141983   1.086   4.905   3.540  1.1613 -1.2392 -0.4210
 6856TIP3    H241984   1.136   5.046   3.561 -0.1660 -1.0792  2.1308
 6857TIP3   OH241985   0.079   1.307   5.209  0.3263 -0.0327 -0.8327
 6857TIP3    H141986   0.010   1.371   5.193  0.8619  0.1449 -2.7890
 6857TIP3    H241987   0.142   1.323   5.138  2.5961  0.0821  1.0841
 6858TIP3   OH241988   3.990   4.831  15.589  0.6745 -0.1526 -0.6228
 6858TIP3    H141989   3.983   4.793  15.677 -0.6023  0.4899 -0.4205
 6858TIP3    H241990   3.935   4.909  15.592 -0.6834 -0.9670 -2.4425
 6859TIP3   OH241991   0.104   6.189  17.109 -0.1298  0.4294  0.1628
 6859TIP3    H141992   0.047   6.123  17.070 -1.4581  1.6096 -0.0054
 6859TIP3    H241993   0.105   6.169  17.203 -2.4812  1.4943  0.4906
 6860TIP3   OH241994   3.501   4.823  14.963 -0.9936  0.0570 -0.7321
 6860TIP3    H141995   3.494   4.735  14.927  1.2198 -1.1402  1.4541
 6860TIP3    H241996   3.450   4.821  15.043 -1.5390  1.0229 -1.0353
 6861TIP3   OH241997   0.654   5.060   2.263 -0.0341 -0.2296  0.9276
 6861TIP3    H141998   0.632   5.151   2.283 -0.1692 -0.1320  0.3262
 6861TIP3    H241999   0.570   5.015   2.260 -0.1345  0.0152 -0.7059
 6862TIP3   OH242000   4.691   0.572   3.684 -0.3028  0.0092 -0.0250
 6862TIP3    H142001   4.638   0.647   3.711 -0.1553  0.1741 -0.1839
 6862TIP3    H242002   4.735   0.543   3.764  1.7273  1.7684 -0.4149
 6863TIP3   OH242003   0.388   1.897   3.145 -0.0266  0.1953 -0.1461
 6863TIP3    H142004   0.429   1.812   3.125 -1.1668 -0.3808 -0.0952
 6863TIP3    H242005   0.321   1.908   3.078 -0.6409  0.5144  0.5040
 6864TIP3   OH242006   3.772   5.499  12.881  0.3139 -0.0199 -0.4568
 6864TIP3    H142007   3.766   5.571  12.943  0.6257 -1.9157  1.9287
 6864TIP3    H242008   3.850   5.518  12.828  1.0249  0.8694  0.8619
 6865TIP3   OH242009   3.899   0.727   5.819  0.5729  0.4751  0.2755
 6865TIP3    H142010   3.910   0.811   5.862  0.6892  1.1756 -1.0534
 6865TIP3    H242011   3.920   0.744   5.727 -0.1901 -0.8220 -0.1728
 6866TIP3   OH242012   3.452   6.675   3.945 -0.1451 -0.0893  0.2363
 6866TIP3    H142013   3.498   6.611   3.998 -1.1932 -1.6357 -0.6405
 6866TIP3    H242014   3.365   6.682   3.986 -0.8687 -1.0936 -1.0296
 6867TIP3   OH242015   1.083   1.319  10.713  0.1878  0.6141  0.5548
 6867TIP3    H142016   0.994   1.335  10.746 -0.3877  0.0066 -0.6249
 6867TIP3    H242017   1.086   1.366  10.629  0.2908 -0.9346 -0.3543
 6868TIP3   OH242018   4.012   3.622  13.543  0.3661  0.1243  0.2808
 6868TIP3    H142019   4.060   3.692  13.499 -1.1632  0.4060 -1.0219
 6868TIP3    H242020   3.927   3.620  13.500 -0.0703 -1.7302  1.1230
 6869TIP3   OH242021   5.785   4.062   2.902 -0.1253  0.0993  0.3968
 6869TIP3    H142022   5.863   4.028   2.858  0.1392  1.0164  0.1419
 6869TIP3    H242023   5.719   4.068   2.833 -0.4434 -0.7049  0.6182
 6870TIP3   OH242024   2.883   4.186   4.846  0.0186 -0.2313 -0.2081
 6870TIP3    H142025   2.899   4.097   4.814  1.4992 -0.8655  2.0732
 6870TIP3    H242026   2.790   4.200   4.830  0.2071 -1.2573 -2.7055
 6871TIP3   OH242027   3.413   3.600   1.359  0.0478 -0.1336  0.2149
 6871TIP3    H142028   3.376   3.639   1.438 -0.4960  0.3163 -0.2526
 6871TIP3    H242029   3.455   3.672   1.313 -0.4390 -0.2062 -0.3567
 6872TIP3   OH242030   6.715   4.834  15.470  0.1569 -0.1345 -0.1338
 6872TIP3    H142031   6.708   4.761  15.408 -0.5523 -0.3189  0.1489
 6872TIP3    H242032   6.726   4.911  15.415  0.7085 -0.4273 -0.4434
 6873TIP3   OH242033   4.042   6.367   2.863 -0.9594  0.3453  0.2314
 6873TIP3    H142034   3.957   6.384   2.904 -0.6000  0.0865  1.1024
 6873TIP3    H242035   4.099   6.340   2.935 -0.2669  0.0301 -0.4168
 6874TIP3   OH242036   5.633   0.096   2.271 -0.0982 -0.8935 -0.6274
 6874TIP3    H142037   5.660   0.021   2.218  1.2364 -0.4907 -0.5592
 6874TIP3    H242038   5.595   0.057   2.350  0.8816 -1.5141 -0.4455
 6875TIP3   OH242039   6.236   6.711  14.105 -0.1628  0.2932  0.0556
 6875TIP3    H142040   6.210   6.749  14.189 -1.1850 -1.9645  0.8399
 6875TIP3    H242041   6.154   6.699  14.057 -0.0667 -1.9833  0.3596
 6876TIP3   OH242042   1.932   1.232   3.069  0.0887 -0.4998  0.4930
 6876TIP3    H142043   1.987   1.188   3.005  0.6250  1.4987 -0.4869
 6876TIP3    H242044   1.992   1.281   3.124 -0.5796  0.1544  0.6598
 6877TIP3   OH242045   1.018   0.506   4.213  0.0143  0.0700 -0.0361
 6877TIP3    H142046   1.078   0.457   4.158 -1.2039 -1.6639  0.1150
 6877TIP3    H242047   1.038   0.479   4.302 -1.1348 -0.7541 -0.0007
 6878TIP3   OH242048   1.266   2.978   6.394 -0.3050  0.2444  0.2110
 6878TIP3    H142049   1.232   2.890   6.410  0.4308 -0.1032 -0.1067
 6878TIP3    H242050   1.327   2.993   6.466  0.3727  0.0689 -0.3217
 6879TIP3   OH242051   2.115   5.137  12.828 -0.4579 -0.0545  0.0434
 6879TIP3    H142052   2.086   5.130  12.737  0.5349  0.1738 -0.3018
 6879TIP3    H242053   2.161   5.221  12.833  3.7490 -2.0588 -0.5440
 6880TIP3   OH242054   5.877   6.754  13.056 -0.3309 -0.3949  0.3047
 6880TIP3    H142055   5.845   6.682  13.001 -0.3882  0.1528 -0.3923
 6880TIP3    H242056   5.970   6.760  13.035 -0.8051  1.4208 -1.6555
 6881TIP3   OH242057   4.034   3.437  16.492 -0.2522 -0.1069 -0.0838
 6881TIP3    H142058   4.022   3.363  16.432 -0.3524 -0.6785  0.6267
 6881TIP3    H242059   4.110   3.414  16.544  1.4933  1.5925 -1.7209
 6882TIP3   OH242060   5.429   2.504   4.132 -0.0789 -0.6325 -0.2377
 6882TIP3    H142061   5.366   2.460   4.190  0.0990  0.6278  0.9827
 6882TIP3    H242062   5.494   2.541   4.192 -0.3407  1.4549 -1.1651
 6883TIP3   OH242063   3.806   5.735  13.049 -0.0705 -0.2568  0.0443
 6883TIP3    H142064   3.889   5.783  13.043 -0.3698  0.3183  0.3090
 6883TIP3    H242065   3.749   5.795  13.097 -1.6542  0.7673 -2.8772
 6884TIP3   OH242066   6.555   6.486   6.593 -0.1958  0.0950 -0.0178
 6884TIP3    H142067   6.490   6.415   6.594  0.8797 -1.0533  3.4054
 6884TIP3    H242068   6.624   6.454   6.535 -0.2854 -1.1710  0.5304
 6885TIP3   OH242069   0.821   2.714  12.747  0.5012  0.0180 -0.8828
 6885TIP3    H142070   0.790   2.678  12.664 -0.2464 -0.5580 -0.3740
 6885TIP3    H242071   0.822   2.638  12.806  0.1725  0.5930 -0.1325
 6886TIP3   OH242072   0.429   0.907   3.749  0.7100  0.0159 -0.9679
 6886TIP3    H142073   0.438   0.900   3.844 -0.5667  1.0275 -0.7435
 6886TIP3    H242074   0.454   0.997   3.729 -0.0910  0.1438 -1.4415
 6887TIP3   OH242075   6.127   5.281  12.864 -0.5482  0.3056 -0.6111
 6887TIP3    H142076   6.087   5.204  12.825 -1.1717 -0.7381  1.9255
 6887TIP3    H242077   6.054   5.340  12.883 -0.6141 -0.3279  1.2932
 6888TIP3   OH242078   2.159   2.235   3.266 -0.3654 -0.4717  0.1223
 6888TIP3    H142079   2.190   2.250   3.177 -0.2159  1.0432  0.3998
 6888TIP3    H242080   2.064   2.238   3.259 -0.3817 -1.3948 -0.1397
 6889TIP3   OH242081   0.761   4.333   0.143 -0.5523 -0.0565 -0.5071
 6889TIP3    H142082   0.720   4.309   0.226 -1.7495 -0.5887 -1.2294
 6889TIP3    H242083   0.713   4.411   0.114  0.5406  0.7568 -0.2262
 6890TIP3   OH242084   2.772   1.570   2.200 -0.5380  0.5419 -0.2129
 6890TIP3    H142085   2.782   1.650   2.149 -0.2753  1.2329  0.9074
 6890TIP3    H242086   2.860   1.551   2.232 -0.4204 -0.7050 -1.1935
 6891TIP3   OH242087   3.110   4.377   0.769  0.6549  0.1671  0.1690
 6891TIP3    H142088   3.181   4.410   0.714  0.4471 -1.7486 -1.3811
 6891TIP3    H242089   3.155   4.326   0.838  0.8419 -1.1962 -0.9142
 6892TIP3   OH242090   1.489   1.223   4.504 -0.0765 -0.1559  0.0915
 6892TIP3    H142091   1.429   1.293   4.480  0.5829  0.1774 -0.6342
 6892TIP3    H242092   1.575   1.264   4.504  0.1513 -0.5760  1.3186
 6893TIP3   OH242093   0.405   3.383   0.019  0.1903  0.4498  0.3451
 6893TIP3    H142094   0.340   3.314   0.036  0.7214  0.2538  1.7300
 6893TIP3    H242095   0.477   3.338  -0.026  0.3261  0.1845  0.8173
 6894TIP3   OH242096   6.623   6.484  15.782  0.2128 -0.0899 -0.2742
 6894TIP3    H142097   6.581   6.508  15.865 -0.7722 -2.7540  0.1118
 6894TIP3    H242098   6.591   6.549  15.720 -2.4358 -0.4149  0.5938
 6895TIP3   OH242099   0.397   5.777  11.506 -0.3993  0.5357  0.1329
 6895TIP3    H142100   0.394   5.681  11.506 -3.6742  0.5561  0.5951
 6895TIP3    H242101   0.483   5.797  11.469  0.2310 -2.5543 -0.3986
 6896TIP3   OH242102   5.860   1.321   0.053 -0.0236 -0.4745  0.6092
 6896TIP3    H142103   5.938   1.310   0.108 -0.2537 -0.6213  0.9069
 6896TIP3    H242104   5.883   1.392  -0.007 -0.0236  0.1497  1.3441
 6897TIP3   OH242105   4.645   1.041   3.246 -0.4567  0.8419 -0.1421
 6897TIP3    H142106   4.604   0.973   3.193  0.4600 -0.7168  1.0527
 6897TIP3    H242107   4.734   1.049   3.211 -0.1878  0.5606  0.4562
 6898TIP3   OH242108   5.572   5.155  16.080 -0.2599  0.7018  0.1558
 6898TIP3    H142109   5.545   5.159  16.172  1.1022  0.2863  0.5985
 6898TIP3    H242110   5.611   5.241  16.063  2.3086 -0.2106  0.9354
 6899TIP3   OH242111   4.882   4.664  12.300 -0.2761 -0.1374  0.5566
 6899TIP3    H142112   4.916   4.659  12.211  1.5918  1.8406  1.0633
 6899TIP3    H242113   4.788   4.647  12.291  0.2051 -2.2270 -1.4262
 6900TIP3   OH242114   6.008   0.408   4.166  0.3096 -0.3320 -0.4862
 6900TIP3    H142115   6.028   0.495   4.131 -0.4872  0.2842  0.5292
 6900TIP3    H242116   5.957   0.426   4.245 -2.6289 -1.7610 -1.9304
 6901TIP3   OH242117   3.359   0.638  13.313  0.6143  0.2670 -0.0388
 6901TIP3    H142118   3.314   0.681  13.386  1.1893 -0.5446  0.8202
 6901TIP3    H242119   3.362   0.705  13.244  0.0835  1.0594  0.6786
 6902TIP3   OH242120   3.234   3.821  11.503 -0.0526  0.6997 -0.1792
 6902TIP3    H142121   3.283   3.878  11.563  0.3680  1.3548 -1.1183
 6902TIP3    H242122   3.280   3.829  11.420 -0.0638 -0.9283 -0.3770
 6903TIP3   OH242123   0.494   4.730   1.735 -0.0661  0.7963 -0.4337
 6903TIP3    H142124   0.571   4.776   1.768  0.4193  0.0622 -0.5279
 6903TIP3    H242125   0.520   4.638   1.731 -1.9528 -0.0346  2.6661
 6904TIP3   OH242126   3.508   0.444   2.448  0.3410 -0.7936 -0.0991
 6904TIP3    H142127   3.433   0.426   2.392  0.7354  0.9802 -1.2879
 6904TIP3    H242128   3.484   0.525   2.494  1.6742  0.0790 -0.8655
 6905TIP3   OH242129   1.625   6.102   2.569 -0.1230 -0.3675  0.2958
 6905TIP3    H142130   1.702   6.059   2.532 -0.9973 -3.1292  1.3726
 6905TIP3    H242131   1.655   6.138   2.652  0.0539 -1.4708  0.7331
 6906TIP3   OH242132   0.435   2.840  16.666  0.0037 -0.2098  0.6315
 6906TIP3    H142133   0.373   2.769  16.649 -1.0008  0.8679 -0.4022
 6906TIP3    H242134   0.461   2.871  16.579  1.1817  0.0775  1.0581
 6907TIP3   OH242135   3.463   2.247  12.625  0.5158 -0.7394 -0.2755
 6907TIP3    H142136   3.495   2.166  12.586 -0.9856 -1.3026 -0.4233
 6907TIP3    H242137   3.388   2.272  12.571 -0.0853 -0.1876  0.7716
 6908TIP3   OH242138   1.187   0.512  15.740  0.5131 -0.2120 -0.0697
 6908TIP3    H142139   1.247   0.560  15.684  0.1018  0.0588 -0.2873
 6908TIP3    H242140   1.115   0.487  15.682  0.3338 -0.3857  0.2215
 6909TIP3   OH242141   6.271   1.053  16.631 -0.1314  0.5104  0.6248
 6909TIP3    H142142   6.290   0.979  16.689 -0.7815 -0.3213 -0.1926
 6909TIP3    H242143   6.183   1.081  16.655  0.3337  1.4283  1.3339
 6910TIP3   OH242144   4.272   4.554   3.672  0.0390 -0.3604  0.0884
 6910TIP3    H142145   4.212   4.606   3.726  0.2981  0.2814 -0.2324
 6910TIP3    H242146   4.242   4.568   3.582  1.0209  0.4546 -0.1272
 6911TIP3   OH242147   1.770   1.187  14.938 -0.4578  0.1195 -0.1875
 6911TIP3    H142148   1.716   1.253  14.982  1.1587  0.8851  0.7359
 6911TIP3    H242149   1.824   1.149  15.007  0.4392 -0.3624 -1.1237
 6912TIP3   OH242150   3.335   4.980   5.858  0.6674 -0.2023  0.4620
 6912TIP3    H142151   3.331   5.065   5.814 -1.7892 -1.0627 -1.1645
 6912TIP3    H242152   3.246   4.964   5.890  1.2223 -1.8693  1.3337
 6913TIP3   OH242153   4.064   1.075  12.095  0.3134 -0.0658 -0.2040
 6913TIP3    H142154   3.969   1.080  12.102 -0.0878 -0.3060 -3.7545
 6913TIP3    H242155   4.092   1.166  12.084  0.3979 -0.0741 -0.0598
 6914TIP3   OH242156   2.458   6.115   1.008  0.2800  0.3499 -0.7990
 6914TIP3    H142157   2.403   6.066   0.948 -0.4869  0.4250 -0.1772
 6914TIP3    H242158   2.547   6.093   0.982 -0.0367 -1.1643 -0.7124
 6915TIP3   OH242159   2.033   6.614   5.052  0.1652 -0.7674  0.4560
 6915TIP3    H142160   1.957   6.632   5.108  0.0038 -1.0213  0.3207
 6915TIP3    H242161   2.083   6.696   5.052 -1.3261  0.2307 -1.3797
 6916TIP3   OH242162   6.465   3.402  12.169  0.4280  0.0053  0.0540
 6916TIP3    H142163   6.549   3.426  12.131  1.4558  0.5486  2.4793
 6916TIP3    H242164   6.459   3.307  12.158 -1.0139  0.3720 -4.4636
 6917TIP3   OH242165   5.588   4.480  11.594  0.2942 -0.2083 -0.7333
 6917TIP3    H142166   5.525   4.550  11.612  0.3034 -0.1056 -1.0943
 6917TIP3    H242167   5.556   4.406  11.644  0.1200 -0.0330 -0.5817
 6918TIP3   OH242168   0.391   1.432  13.507  0.4790  0.4580 -0.4335
 6918TIP3    H142169   0.334   1.404  13.436  0.1196 -0.2672  0.1218
 6918TIP3    H242170   0.335   1.486  13.563  0.5745  0.4745 -0.3534
 6919TIP3   OH242171   4.029   1.527  10.701  0.0582  0.4989 -0.1346
 6919TIP3    H142172   3.965   1.541  10.631  0.1922  1.7173 -0.0334
 6919TIP3    H242173   4.110   1.566  10.668  0.5310 -0.2576  0.0978
 6920TIP3   OH242174   1.558   6.473   6.138  0.0665 -0.2670 -0.4076
 6920TIP3    H142175   1.647   6.504   6.126  0.0592 -0.8772 -2.4779
 6920TIP3    H242176   1.534   6.499   6.227  1.9081  0.8566 -0.2103
 6921TIP3   OH242177   2.494   3.019  15.622 -0.1110 -0.5523 -0.4634
 6921TIP3    H142178   2.408   3.059  15.608  0.3317  1.1202  1.1634
 6921TIP3    H242179   2.478   2.925  15.614 -1.5577 -0.1967 -2.6775
 6922TIP3   OH242180   4.605   5.133   3.053  0.1145  0.1122 -0.4052
 6922TIP3    H142181   4.584   5.046   3.018 -0.5244 -0.3718  1.0622
 6922TIP3    H242182   4.667   5.170   2.991  0.4991 -1.4497 -1.0119
 6923TIP3   OH242183   4.503   4.487   2.661  0.0688 -0.1714  0.1756
 6923TIP3    H142184   4.562   4.427   2.615 -0.8948 -1.0866  0.0869
 6923TIP3    H242185   4.431   4.502   2.600  0.3399  1.1861  0.1582
 6924TIP3   OH242186   5.527   3.817  10.568  0.1805  0.0447  0.1482
 6924TIP3    H142187   5.596   3.839  10.506 -1.5955 -1.8407 -2.7505
 6924TIP3    H242188   5.485   3.901  10.588  0.4504  0.6836 -1.7496
 6925TIP3   OH242189   1.316   2.132  13.132  0.2077 -0.0648  0.4500
 6925TIP3    H142190   1.306   2.081  13.051  0.7015 -0.5571  0.6903
 6925TIP3    H242191   1.377   2.081  13.184  0.8854  0.8880  0.6128
 6926TIP3   OH242192   4.205   6.195  14.012 -0.0277 -0.1329 -0.0149
 6926TIP3    H142193   4.222   6.124  14.073  0.2577 -1.0339 -1.0965
 6926TIP3    H242194   4.274   6.259  14.029  0.4144 -0.6579  0.1843
 6927TIP3   OH242195   5.144   0.386   5.496 -0.6546 -0.0048  0.4993
 6927TIP3    H142196   5.206   0.314   5.506 -0.2386  0.0326 -1.4268
 6927TIP3    H242197   5.082   0.355   5.430 -1.0065  1.0620  0.3038
 6928TIP3   OH242198   0.438   1.411  15.218  0.3614 -0.3387 -0.7141
 6928TIP3    H142199   0.373   1.429  15.286  0.8977 -0.1344 -0.2556
 6928TIP3    H242200   0.406   1.460  15.142 -0.7754 -1.3612 -0.9345
 6929TIP3   OH242201   0.457   2.060  16.629  0.0045 -0.0093  0.3796
 6929TIP3    H142202   0.397   2.012  16.571  1.0067 -1.3107  0.3699
 6929TIP3    H242203   0.446   2.020  16.715 -0.4733  0.9919  0.7956
 6930TIP3   OH242204   2.881   4.378  12.923  0.2290  0.0488  0.9843
 6930TIP3    H142205   2.974   4.384  12.944  0.1238 -1.5667  2.0964
 6930TIP3    H242206   2.846   4.312  12.984 -1.4305 -0.1456 -0.0865
 6931TIP3   OH242207   2.557   2.203  12.788 -0.9322  0.4486 -0.2556
 6931TIP3    H142208   2.607   2.280  12.762 -0.4905  0.2131 -0.1189
 6931TIP3    H242209   2.619   2.130  12.780 -1.1064  0.2178  0.3870
 6932TIP3   OH242210   4.068   3.138  15.853  0.3833  0.1063  0.4853
 6932TIP3    H142211   4.122   3.109  15.780 -0.0519  1.5835 -0.4717
 6932TIP3    H242212   4.080   3.072  15.920 -2.6717 -3.9275 -2.4202
 6933TIP3   OH242213   0.485   0.259  15.403  0.0494 -0.2763 -0.1172
 6933TIP3    H142214   0.491   0.323  15.332  0.0292  0.9110  0.9194
 6933TIP3    H242215   0.404   0.210  15.385  0.2377 -0.2422 -1.0981
 6934TIP3   OH242216   4.465   6.093  11.615  0.0811  0.3961  0.9918
 6934TIP3    H142217   4.415   6.174  11.603 -1.0033 -0.3124  0.5504
 6934TIP3    H242218   4.409   6.038  11.670 -0.0414 -0.7401 -0.2249
 6935TIP3   OH242219   6.627   6.249  13.162 -0.7554  0.0924 -0.0822
 6935TIP3    H142220   6.646   6.334  13.121 -0.7554  0.5125  0.7602
 6935TIP3    H242221   6.564   6.208  13.103  0.2318  0.1154 -1.1671
 6936TIP3   OH242222   2.978   3.781  15.669 -0.1251 -0.4652  0.3408
 6936TIP3    H142223   2.983   3.703  15.614  0.5107 -1.6691  2.0238
 6936TIP3    H242224   2.884   3.793  15.684 -0.1718 -2.5021  2.1490
 6937TIP3   OH242225   2.252   5.196   5.845 -0.3707 -0.0671 -0.1327
 6937TIP3    H142226   2.225   5.239   5.764  0.0870  2.8625  1.1513
 6937TIP3    H242227   2.177   5.205   5.903 -0.3234 -1.2217  0.1256
 6938TIP3   OH242228   0.889   6.030   3.969  0.1148  0.2109 -0.2538
 6938TIP3    H142229   0.884   6.017   3.874  0.1554  0.3648 -0.2765
 6938TIP3    H242230   0.982   6.048   3.985  0.0857  0.3108 -0.2001
 6939TIP3   OH242231   2.834   1.751  16.292  0.6435 -0.7445  0.0867
 6939TIP3    H142232   2.748   1.709  16.294  0.3382 -0.2361  3.1686
 6939TIP3    H242233   2.822   1.832  16.342  1.9168  1.6687 -3.2172
 6940TIP3   OH242234   1.207   0.132   3.768 -0.2561  0.6123  0.0110
 6940TIP3    H142235   1.113   0.152   3.771 -0.3076  0.3402  0.3636
 6940TIP3    H242236   1.250   0.214   3.793 -0.3842  0.8508 -0.5466
 6941TIP3   OH242237   1.435   3.389  14.432 -0.9311  0.1216  0.3660
 6941TIP3    H142238   1.349   3.392  14.388  0.0045 -0.5600 -1.6446
 6941TIP3    H242239   1.493   3.348  14.367  1.1027  1.2683  1.3853
 6942TIP3   OH242240   1.682   0.961  16.996 -0.2161  0.7098  0.0119
 6942TIP3    H142241   1.641   0.877  16.976  0.3629 -0.0620  1.8499
 6942TIP3    H242242   1.770   0.938  17.026  0.1899  2.0324 -0.1015
 6943TIP3   OH242243   2.190   2.795   4.005  0.1935 -0.0675  0.8143
 6943TIP3    H142244   2.183   2.749   4.089  0.2247  0.1327  0.9278
 6943TIP3    H242245   2.274   2.767   3.969  1.5575  1.9883  2.1593
 6944TIP3   OH242246   2.662   6.015  13.983  0.0275  0.0014 -0.2870
 6944TIP3    H142247   2.629   5.936  14.025  0.0316  0.1003 -0.0995
 6944TIP3    H242248   2.703   6.065  14.054  1.2414 -0.4550 -0.6332
 6945TIP3   OH242249   1.315   4.660   2.837  0.0072  0.2529 -0.0121
 6945TIP3    H142250   1.251   4.593   2.813  1.5299 -1.3251  0.1288
 6945TIP3    H242251   1.330   4.646   2.931  2.5870 -1.3422 -0.5611
 6946TIP3   OH242252   0.895   6.307   1.912  0.0715  0.3288 -0.2342
 6946TIP3    H142253   0.903   6.392   1.869 -1.2616  0.3726 -0.4296
 6946TIP3    H242254   0.818   6.267   1.873  0.9900 -1.2346 -0.5518
 6947TIP3   OH242255   1.526   0.002  16.952  0.0114 -0.0377 -0.1128
 6947TIP3    H142256   1.510  -0.049  16.873  1.5749 -0.4069 -0.2189
 6947TIP3    H242257   1.512  -0.060  17.024  1.1759 -0.4389 -0.2148
 6948TIP3   OH242258   2.917   3.199  14.182  0.2379  0.4474 -0.2226
 6948TIP3    H142259   2.977   3.212  14.109 -0.2790 -0.8486 -0.9268
 6948TIP3    H242260   2.830   3.209  14.143 -0.0278  0.9240  0.4808
 6949TIP3   OH242261   0.953   6.431   1.444  0.1984 -0.3741  0.2343
 6949TIP3    H142262   0.871   6.414   1.489 -0.9391 -0.9308 -1.8947
 6949TIP3    H242263   1.014   6.457   1.513 -0.9604 -2.7047  2.2858
 6950TIP3   OH242264   0.026   3.634  10.558  0.0141  0.7166 -0.2075
 6950TIP3    H142265   0.063   3.671  10.478 -2.3153  1.9791 -0.7982
 6950TIP3    H242266  -0.069   3.635  10.544 -0.4289  0.0492  2.1901
 6951TIP3   OH242267   5.013   6.360   0.866 -0.3228  0.5009 -0.4018
 6951TIP3    H142268   5.106   6.336   0.874 -0.7142 -0.8606  0.4112
 6951TIP3    H242269   5.015   6.451   0.839  1.2618  0.5165 -0.3706
 6952TIP3   OH242270   0.873   5.174   2.782  0.0620 -0.4791  0.4249
 6952TIP3    H142271   0.884   5.253   2.836 -0.2820 -0.7568  0.9001
 6952TIP3    H242272   0.963   5.145   2.764  0.1899 -0.0176  0.3006
 6953TIP3   OH242273   6.114   4.025  12.030  0.2466  0.1987  0.5047
 6953TIP3    H142274   6.102   3.960  12.099  0.9283 -0.1461  0.3077
 6953TIP3    H242275   6.028   4.066  12.020 -0.0736 -0.3513  0.9533
 6954TIP3   OH242276   4.360   6.371  13.034  0.4333 -0.6272  0.0885
 6954TIP3    H142277   4.448   6.347  13.063  0.6828 -0.9494 -0.8903
 6954TIP3    H242278   4.340   6.308  12.964 -0.6839 -0.7296  0.4860
 6955TIP3   OH242279   5.200   0.918   1.252  0.8599  0.3300 -0.5906
 6955TIP3    H142280   5.232   0.847   1.196 -2.3656 -0.9268 -1.0777
 6955TIP3    H242281   5.221   0.890   1.341 -0.5212 -1.4508 -0.7625
 6956TIP3   OH242282   1.235   3.862   1.687 -0.1887 -0.8411  0.0292
 6956TIP3    H142283   1.187   3.800   1.743  0.0604 -3.2532 -2.2516
 6956TIP3    H242284   1.327   3.844   1.706 -0.1026 -1.6903 -1.0965
 6957TIP3   OH242285   1.565   0.180   4.491 -0.3526 -0.0919 -0.2774
 6957TIP3    H142286   1.561   0.129   4.572  0.4450  0.1722 -0.0653
 6957TIP3    H242287   1.624   0.252   4.511 -1.2439  0.7667 -0.6659
 6958TIP3   OH242288   2.798   3.053  12.083 -0.5813  0.1354 -0.0800
 6958TIP3    H142289   2.783   3.125  12.022 -0.8792 -1.5886 -2.1783
 6958TIP3    H242290   2.882   3.072  12.124 -1.0317  2.0406  0.0326
 6959TIP3   OH242291   6.591   5.315   3.951  0.4518 -0.4749  0.1689
 6959TIP3    H142292   6.665   5.372   3.971  0.5957 -0.1318 -1.2351
 6959TIP3    H242293   6.625   5.253   3.887 -0.6760  0.2643 -1.2101
 6960TIP3   OH242294   5.136   3.234  14.769 -0.3596 -0.0219  0.8587
 6960TIP3    H142295   5.062   3.290  14.745  0.2874  1.1971  1.6217
 6960TIP3    H242296   5.134   3.231  14.865  0.3637 -0.2951  0.8684
 6961TIP3   OH242297   1.527   4.528  12.615 -0.3162 -0.2378  0.1301
 6961TIP3    H142298   1.460   4.490  12.558 -0.1166  1.4166 -1.3088
 6961TIP3    H242299   1.507   4.622  12.617  1.1701  0.1040  0.7275
 6962TIP3   OH242300   6.780   2.544   0.168  0.3345 -0.0312 -0.0353
 6962TIP3    H142301   6.742   2.601   0.101 -0.4750 -2.5954 -1.8913
 6962TIP3    H242302   6.744   2.457   0.149  3.2793 -1.6593  1.2075
 6963TIP3   OH242303   4.498   4.428   4.423  0.0799  0.2002 -0.8341
 6963TIP3    H142304   4.545   4.417   4.340 -2.9172 -0.1781 -2.6388
 6963TIP3    H242305   4.478   4.521   4.427  3.2650  0.9400  1.4150
 6964TIP3   OH242306   0.889   5.718  11.136 -0.2316  0.2343 -0.3668
 6964TIP3    H142307   0.862   5.810  11.129  1.1479  0.9801  2.5861
 6964TIP3    H242308   0.810   5.671  11.163 -0.4809  0.9082  0.0926
 6965TIP3   OH242309   0.956   5.886   2.539  0.2135 -0.4660 -0.0464
 6965TIP3    H142310   0.922   5.811   2.491  1.7359 -2.4377  1.7721
 6965TIP3    H242311   0.988   5.945   2.470  0.0211 -2.0080 -1.5348
 6966TIP3   OH242312   0.335   6.555   4.034  0.2344  0.2938 -0.3396
 6966TIP3    H142313   0.283   6.587   3.960 -0.8092  0.1696  0.3088
 6966TIP3    H242314   0.270   6.535   4.102  1.2587  2.1433  1.2857
 6967TIP3   OH242315   0.486   5.873   5.682 -0.1125  0.0053 -0.3697
 6967TIP3    H142316   0.415   5.911   5.630 -1.8864 -0.1442  1.7974
 6967TIP3    H242317   0.499   5.785   5.645 -1.6847 -0.2889 -0.2831
 6968TIP3   OH242318   2.907   3.359  16.962  0.0956 -0.1045  0.0081
 6968TIP3    H142319   2.999   3.335  16.953  0.0840  0.0412 -0.5317
 6968TIP3    H242320   2.899   3.393  17.051  0.5269 -0.2754  0.1124
 6969TIP3   OH242321   3.016   0.862   0.828  0.1491  0.1012  0.3020
 6969TIP3    H142322   3.002   0.950   0.864  1.3469 -0.4499  2.2476
 6969TIP3    H242323   3.108   0.842   0.847 -0.0234 -1.4836 -0.3434
 6970TIP3   OH242324   3.803   2.282  14.582 -0.5161 -0.1853  0.7019
 6970TIP3    H142325   3.875   2.222  14.563 -0.3134  0.3432 -0.2937
 6970TIP3    H242326   3.746   2.234  14.643 -0.2199 -1.2703  0.1453
 6971TIP3   OH242327   2.907   3.789   2.691 -0.1599  0.3887 -0.5967
 6971TIP3    H142328   2.958   3.716   2.727  1.7200  0.1941 -3.3816
 6971TIP3    H242329   2.941   3.866   2.737  1.1939  0.0122 -0.9125
 6972TIP3   OH242330   3.016   5.283   3.868  0.0103 -0.1587 -0.2563
 6972TIP3    H142331   3.077   5.254   3.800  0.5566 -1.1014  0.6186
 6972TIP3    H242332   3.071   5.319   3.937 -0.4962  0.0433  0.0485
 6973TIP3   OH242333   4.603   4.561  15.063  0.0975 -0.5708 -0.3036
 6973TIP3    H142334   4.607   4.538  15.156  1.9272  0.8790  0.0348
 6973TIP3    H242335   4.558   4.646  15.062 -1.5494 -1.4097 -0.9665
 6974TIP3   OH242336   5.718   5.448  16.026  0.3639  0.2805 -0.7449
 6974TIP3    H142337   5.740   5.517  15.964  1.2836  1.3974  0.7647
 6974TIP3    H242338   5.649   5.485  16.080  0.7779 -0.0297  0.0047
 6975TIP3   OH242339   4.668   1.693  16.551  0.0454  0.6587  0.3207
 6975TIP3    H142340   4.605   1.765  16.549 -0.1593  0.4767  0.0332
 6975TIP3    H242341   4.741   1.724  16.498 -0.6253  0.1404 -0.9487
 6976TIP3   OH242342   5.295   5.977   2.261  0.4968  0.5580 -0.2123
 6976TIP3    H142343   5.241   5.904   2.294  2.1839 -0.0470  1.3605
 6976TIP3    H242344   5.232   6.046   2.242 -1.0848 -0.9891 -0.9126
 6977TIP3   OH242345   0.503   2.030   4.136  0.4052  0.4686 -0.0659
 6977TIP3    H142346   0.440   2.043   4.065  0.8069 -1.5719 -0.9019
 6977TIP3    H242347   0.584   2.070   4.103  0.9293 -1.5263 -1.3944
 6978TIP3   OH242348   5.663   1.708   4.667 -0.2282  0.2607  0.3090
 6978TIP3    H142349   5.573   1.726   4.640  0.2273  1.3896 -0.5164
 6978TIP3    H242350   5.706   1.676   4.588  0.8298  2.5279 -0.1183
 6979TIP3   OH242351   2.192   2.022   4.967  0.4289  0.0624 -0.1634
 6979TIP3    H142352   2.217   2.017   5.059 -0.2967  2.3398  0.2273
 6979TIP3    H242353   2.178   1.931   4.941 -1.0552 -0.5765  2.4765
 6980TIP3   OH242354   4.973   5.502  15.879  0.1371  0.3992  0.0340
 6980TIP3    H142355   4.978   5.593  15.849 -2.6875  0.7097  0.2650
 6980TIP3    H242356   4.989   5.450  15.801 -1.3859  1.1564 -0.8160
 6981TIP3   OH242357   4.119   1.679   1.859  0.5570 -0.7701 -0.1449
 6981TIP3    H142358   4.203   1.698   1.902  2.0799  0.0686 -3.2099
 6981TIP3    H242359   4.081   1.764   1.841 -0.5707 -1.1328  0.3804
 6982TIP3   OH242360   2.647   4.469  11.836  0.1188 -0.0315 -0.5019
 6982TIP3    H142361   2.586   4.431  11.899  0.5501  0.5911  0.3082
 6982TIP3    H242362   2.733   4.449  11.872  0.4834 -2.0814 -2.3041
 6983TIP3   OH242363   3.124   4.147  12.925 -0.1424  0.1909 -0.4242
 6983TIP3    H142364   3.132   4.241  12.939 -0.0632 -0.0483  1.4284
 6983TIP3    H242365   3.154   4.108  13.007 -2.0036 -1.3687 -0.3959
 6984TIP3   OH242366   4.524   4.887  13.826  0.1428 -0.2658  0.1642
 6984TIP3    H142367   4.598   4.910  13.882 -0.6213  1.3635  0.5661
 6984TIP3    H242368   4.476   4.820  13.876 -0.6892  1.3644  1.6725
 6985TIP3   OH242369   0.004   1.731  17.129  0.5383  0.2459 -0.0129
 6985TIP3    H142370  -0.069   1.792  17.126 -1.6380 -2.1492  0.2286
 6985TIP3    H242371   0.028   1.718  17.037  0.4451  0.7860 -0.1183
 6986TIP3   OH242372   4.259   6.454  14.305 -0.2693  0.3510 -0.2812
 6986TIP3    H142373   4.313   6.523  14.343 -0.2189  0.2662 -0.1963
 6986TIP3    H242374   4.282   6.454  14.212  1.2542 -0.9096  0.0487
 6987TIP3   OH242375   1.186   4.353   2.203 -0.2230  0.1867 -0.0121
 6987TIP3    H142376   1.275   4.318   2.205  0.9490  2.8664 -0.4741
 6987TIP3    H242377   1.197   4.448   2.212 -2.8981  0.7954 -1.8166
 6988TIP3   OH242378   3.034   0.309   5.206 -0.2841 -0.4880  1.0019
 6988TIP3    H142379   3.081   0.347   5.132 -0.8198  0.1668  0.9921
 6988TIP3    H242380   3.046   0.214   5.195  0.0574 -0.3785  0.3549
 6989TIP3   OH242381   3.267   5.955  14.726 -0.0381 -0.5075 -0.5052
 6989TIP3    H142382   3.340   5.930  14.783 -0.3074  0.2548  0.2034
 6989TIP3    H242383   3.188   5.930  14.775 -0.2986 -3.2408 -2.1444
 6990TIP3   OH242384   2.792   2.612   5.280 -0.2368  0.3526  0.0019
 6990TIP3    H142385   2.712   2.564   5.302 -0.9790  1.3797 -0.4264
 6990TIP3    H242386   2.794   2.686   5.340  0.2722  0.4813 -0.1636
 6991TIP3   OH242387   2.717   4.853  11.460  0.1370  0.0752 -0.2748
 6991TIP3    H142388   2.737   4.919  11.394 -0.7069  0.7607  0.1464
 6991TIP3    H242389   2.765   4.775  11.431 -1.7829 -0.2592 -2.8054
 6992TIP3   OH242390   5.081   2.506   4.180  0.1709 -0.2584  0.3542
 6992TIP3    H142391   5.101   2.582   4.234  0.7052 -0.8346  0.9917
 6992TIP3    H242392   5.060   2.542   4.094 -2.0645  0.8037  1.2406
 6993TIP3   OH242393   3.087   4.523  13.820  0.0641  0.6457  1.0438
 6993TIP3    H142394   3.167   4.565  13.853  1.0394 -0.9114  0.7579
 6993TIP3    H242395   3.118   4.454  13.762 -1.5149  0.1821  0.6922
 6994TIP3   OH242396   2.701   0.827  17.056 -0.7049  0.0962  0.4062
 6994TIP3    H142397   2.789   0.846  17.090 -1.0155 -0.9068  1.8620
 6994TIP3    H242398   2.691   0.733  17.068 -1.3994 -0.0508 -1.2092
 6995TIP3   OH242399   3.002   2.754   1.808 -0.2237  0.1080 -0.2803
 6995TIP3    H142400   2.915   2.722   1.831 -0.3631  1.0388  0.5713
 6995TIP3    H242401   3.050   2.676   1.781 -1.0418 -0.5538  0.1116
 6996TIP3   OH242402   2.534   0.833  14.523  0.1937 -0.0280  0.3899
 6996TIP3    H142403   2.445   0.869  14.529  0.0384 -0.6483  2.7315
 6996TIP3    H242404   2.555   0.836  14.430 -2.6169 -0.6489 -0.3471
 6997TIP3   OH242405   0.028   3.417   2.383  0.1855 -0.2817 -0.0310
 6997TIP3    H142406   0.105   3.379   2.343  1.0577 -0.0137  1.3215
 6997TIP3    H242407   0.062   3.481   2.445 -1.0672 -0.9675  1.4304
 6998TIP3   OH242408   0.767   0.633   1.906 -0.0436  0.0260 -0.3039
 6998TIP3    H142409   0.824   0.634   1.829 -0.4257  0.1831 -0.5891
 6998TIP3    H242410   0.679   0.644   1.870 -0.2449 -0.1330  0.1393
 6999TIP3   OH242411   0.674   0.930   5.400  0.4188  0.8473 -0.3936
 6999TIP3    H142412   0.630   0.939   5.484 -0.1118  0.5341 -0.6298
 6999TIP3    H242413   0.683   0.835   5.387 -2.1600  0.7274 -2.0142
 7000TIP3   OH242414   6.049   5.590   2.997 -0.2791 -0.3154  0.1532
 7000TIP3    H142415   5.975   5.650   3.006 -0.7144 -0.7959 -0.1635
 7000TIP3    H242416   6.009   5.503   2.986  0.3527 -0.8879  2.0546
 7001TIP3   OH242417   3.496   5.786   4.861 -0.3557  0.0089  0.5203
 7001TIP3    H142418   3.475   5.858   4.920 -0.8553  0.0098  0.3474
 7001TIP3    H242419   3.572   5.743   4.900  0.4474  1.1122  0.2164
 7002TIP3   OH242420   6.249   5.576  14.160 -0.6661 -0.3108  0.1908
 7002TIP3    H142421   6.220   5.636  14.091  0.3799  0.4428  0.3758
 7002TIP3    H242422   6.319   5.525  14.118 -0.0902  0.0874  0.6594
 7003TIP3   OH242423   3.513   4.563   2.366 -0.6494 -0.6196 -0.4970
 7003TIP3    H142424   3.526   4.501   2.439 -0.2902 -0.1068 -0.1145
 7003TIP3    H242425   3.429   4.604   2.384 -0.0902  0.2703  0.2293
 7004TIP3   OH242426   1.471   4.375  14.200 -0.2531 -0.5251 -0.4615
 7004TIP3    H142427   1.523   4.409  14.273  0.5608  0.6685 -1.5586
 7004TIP3    H242428   1.391   4.342  14.241  0.4910 -0.5753  1.0429
 7005TIP3   OH242429   6.269   2.197   5.207 -0.5828 -0.2509  0.1780
 7005TIP3    H142430   6.253   2.175   5.299  0.2453  0.1557  0.4256
 7005TIP3    H242431   6.321   2.277   5.210  0.6024 -0.9668 -0.6096
 7006TIP3   OH242432   3.220   5.709   1.022  0.2135  0.5641 -0.1684
 7006TIP3    H142433   3.170   5.629   1.009  0.1940  0.4907  0.3524
 7006TIP3    H242434   3.307   5.680   1.050  0.3991  0.7077 -0.5810
 7007TIP3   OH242435   5.117   6.401  11.882 -0.2130 -0.2431  0.7474
 7007TIP3    H142436   5.082   6.421  11.795  2.7610 -0.7163 -0.6946
 7007TIP3    H242437   5.097   6.308  11.895  0.2302 -0.4424  0.0762
 7008TIP3   OH242438   1.926   4.866   5.671  0.0974  0.1826 -0.3095
 7008TIP3    H142439   1.904   4.924   5.744  0.9141 -0.4370  0.4556
 7008TIP3    H242440   1.846   4.859   5.621 -0.5571  0.4387  0.6681
 7009TIP3   OH242441   5.362   5.323   4.344 -0.0258  0.4159 -0.5576
 7009TIP3    H142442   5.271   5.339   4.370  0.7306  0.4175  2.5709
 7009TIP3    H242443   5.375   5.229   4.358  0.6520  0.5636 -0.0964
 7010TIP3   OH242444   5.450   3.884  13.234  0.0063 -0.1481  0.1434
 7010TIP3    H142445   5.377   3.924  13.186  0.7394  0.7948 -0.2173
 7010TIP3    H242446   5.484   3.818  13.173 -0.0570 -0.0440 -0.0074
 7011TIP3   OH242447   5.186   2.201  12.661 -0.2895  0.4620 -0.3522
 7011TIP3    H142448   5.190   2.266  12.591  1.5585  2.0302  1.1082
 7011TIP3    H242449   5.142   2.246  12.733 -1.9216 -1.0394 -0.3489
 7012TIP3   OH242450   2.642   6.546  17.166 -0.2793  0.0046 -0.5511
 7012TIP3    H142451   2.665   6.639  17.159  0.9969 -0.2752 -0.4348
 7012TIP3    H242452   2.558   6.538  17.122  0.2289  0.9893 -1.7659
 7013TIP3   OH242453   3.346   0.041  16.554 -0.5448  0.0108 -0.2467
 7013TIP3    H142454   3.327  -0.018  16.627  1.3456  2.0276  2.0350
 7013TIP3    H242455   3.351   0.128  16.593  0.5095  1.2117 -2.8097
 7014TIP3   OH242456   1.672   4.732  13.974  0.4475  0.1081 -0.3035
 7014TIP3    H142457   1.655   4.734  14.068  1.1762  1.9470 -0.1698
 7014TIP3    H242458   1.585   4.731  13.934  0.1329 -1.1688  0.3710
 7015TIP3   OH242459   5.138   4.474   5.186  0.0373  0.0828  0.4324
 7015TIP3    H142460   5.192   4.401   5.217  0.1774  0.5196  1.2606
 7015TIP3    H242461   5.184   4.552   5.217 -0.3911  0.5077  0.0155
 7016TIP3   OH242462   4.253   5.989  11.752 -0.8894 -0.7600 -0.2773
 7016TIP3    H142463   4.175   6.036  11.723 -0.2969 -0.2863 -1.1622
 7016TIP3    H242464   4.231   5.896  11.740 -1.1071 -0.6138 -1.1185
 7017TIP3   OH242465   4.499   4.039  12.556 -0.3093  0.3443  0.7102
 7017TIP3    H142466   4.515   3.982  12.481  1.7260  0.4804  0.9595
 7017TIP3    H242467   4.417   4.008  12.594  0.3602 -1.9613  0.4180
 7018TIP3   OH242468   6.099   2.348  13.290 -0.4616 -0.0874  0.2283
 7018TIP3    H142469   6.036   2.284  13.324  1.1993 -1.1820  1.3996
 7018TIP3    H242470   6.127   2.397  13.368  0.6956 -0.1469 -0.1321
 7019TIP3   OH242471   0.136   6.019   2.004 -0.1863 -0.0243 -0.3507
 7019TIP3    H142472   0.165   5.934   1.971 -0.8888  0.1165 -1.3776
 7019TIP3    H242473   0.062   6.043   1.947 -2.1290 -0.2113  1.9103
 7020TIP3   OH242474   0.491   0.035   3.939  0.0416  0.5819  0.6859
 7020TIP3    H142475   0.534  -0.050   3.938  0.2295  0.6763 -0.8426
 7020TIP3    H242476   0.407   0.019   3.982 -0.6964 -0.7751 -1.1687
 7021TIP3   OH242477   5.963   4.695   4.812  0.5054 -0.6367  0.5105
 7021TIP3    H142478   5.893   4.658   4.758  0.2323  1.2864 -0.5716
 7021TIP3    H242479   5.951   4.655   4.898 -1.4041 -0.9902  0.1363
 7022TIP3   OH242480   6.684   3.099  13.375 -0.0078  0.0441 -0.2596
 7022TIP3    H142481   6.664   3.006  13.364  1.6567 -0.2003 -1.5272
 7022TIP3    H242482   6.709   3.129  13.288 -1.0197  1.8516  0.0016
 7023TIP3   OH242483   1.124   6.672  13.183 -0.3352  0.4344  0.2617
 7023TIP3    H142484   1.196   6.629  13.228 -1.5891 -1.4113  0.6241
 7023TIP3    H242485   1.063   6.601  13.161 -1.0059  1.6198 -2.0277
 7024TIP3   OH242486   3.366   4.870   6.898 -0.4471 -0.0373 -0.2490
 7024TIP3    H142487   3.362   4.936   6.829 -1.1967 -0.1687 -0.3417
 7024TIP3    H242488   3.373   4.920   6.979 -1.4747  0.1817 -0.2828
 7025TIP3   OH242489   4.093   1.905   3.783 -0.2530  0.1302  0.0557
 7025TIP3    H142490   4.000   1.927   3.774  0.1466  1.3624 -1.4580
 7025TIP3    H242491   4.120   1.950   3.863 -0.9927 -0.4321  0.6409
 7026TIP3   OH242492   4.583   0.629  13.669  0.1780  0.1993 -0.4992
 7026TIP3    H142493   4.502   0.579  13.662  1.0413 -1.0159 -2.8946
 7026TIP3    H242494   4.653   0.564  13.660  1.3750  1.5288 -1.1974
 7027TIP3   OH242495   6.502   6.276   4.674 -0.3012 -0.0296  0.1562
 7027TIP3    H142496   6.549   6.218   4.733  1.5385  1.1058 -0.1050
 7027TIP3    H242497   6.541   6.259   4.588 -1.3226 -0.0066 -0.3217
 7028TIP3   OH242498   5.202   2.800  11.301 -0.2996  0.1248 -0.4397
 7028TIP3    H142499   5.252   2.814  11.220 -0.6962  0.5048 -0.6305
 7028TIP3    H242500   5.264   2.818  11.371  0.6292 -2.1529 -0.5980
 7029TIP3   OH242501   6.491   2.359   1.502  0.1743  0.3056  0.3198
 7029TIP3    H142502   6.551   2.286   1.489  1.2542  1.4007 -1.4039
 7029TIP3    H242503   6.420   2.343   1.439  1.0182  1.2680 -0.9440
 7030TIP3   OH242504   0.234   4.841  13.000 -0.1927 -0.0191  0.3343
 7030TIP3    H142505   0.195   4.915  13.046 -1.1539 -0.2350 -0.1107
 7030TIP3    H242506   0.264   4.877  12.917 -1.7201 -0.3220 -0.3942
 7031TIP3   OH242507   4.084   1.660  15.733 -0.0571 -0.1892  0.4767
 7031TIP3    H142508   4.083   1.568  15.758 -0.4012 -0.0912  0.8467
 7031TIP3    H242509   4.055   1.662  15.642  0.1368 -0.4638  0.4115
 7032TIP3   OH242510   0.632   3.227  17.164 -0.2306  0.0441  0.3594
 7032TIP3    H142511   0.712   3.277  17.179 -1.1355  1.2249  1.4547
 7032TIP3    H242512   0.659   3.136  17.175  0.8054  0.4652  1.6216
 7033TIP3   OH242513   3.945   0.260  16.740  0.0826  0.4564  0.7487
 7033TIP3    H142514   3.964   0.249  16.833  2.3781  1.3408  0.4630
 7033TIP3    H242515   3.979   0.181  16.699  2.1562  1.4778  0.3673
 7034TIP3   OH242516   0.647   6.242   1.802  0.0508 -0.1043 -0.8805
 7034TIP3    H142517   0.661   6.285   1.718 -1.3700  0.5392 -0.8090
 7034TIP3    H242518   0.601   6.161   1.781 -2.0264  0.9451 -0.6216
 7035TIP3   OH242519   4.990   0.639   2.231  0.0310  0.1759 -0.3965
 7035TIP3    H142520   4.952   0.601   2.152 -1.5467 -0.4409  0.6030
 7035TIP3    H242521   4.987   0.567   2.295 -0.3877  1.1549  0.7219
 7036TIP3   OH242522   1.034   0.680   3.824 -0.6273  0.4629 -0.3014
 7036TIP3    H142523   1.119   0.686   3.868 -0.7874  0.3771  0.0242
 7036TIP3    H242524   0.972   0.716   3.888 -1.0061 -0.6407 -0.0335
 7037TIP3   OH242525   5.075   2.643   4.807  0.6098  0.1705  0.1951
 7037TIP3    H142526   5.099   2.613   4.720 -0.1263 -0.3974  0.1776
 7037TIP3    H242527   5.152   2.690   4.838  0.5922  1.0773 -1.0643
 7038TIP3   OH242528   4.903   1.854   3.331  0.2257  0.2470 -0.6601
 7038TIP3    H142529   4.812   1.824   3.326  0.7590 -1.5290 -0.1994
 7038TIP3    H242530   4.944   1.819   3.252  1.3089 -1.9166  0.7909
 7039TIP3   OH242531   3.646   3.720  17.025  0.6279  0.2546  0.3046
 7039TIP3    H142532   3.656   3.628  17.050 -0.1961  0.2575  0.6821
 7039TIP3    H242533   3.671   3.769  17.103 -0.6098  0.2997  0.6864
 7040TIP3   OH242534   1.144   2.630   2.488 -0.6416 -0.0605 -0.3915
 7040TIP3    H142535   1.197   2.709   2.494  0.1212 -0.4921 -1.0503
 7040TIP3    H242536   1.169   2.592   2.403  1.2531 -2.5337  1.1031
 7041TIP3   OH242537   4.497   0.791   3.768  0.1460  0.1564 -0.5804
 7041TIP3    H142538   4.554   0.816   3.841  0.7746 -1.7949 -0.3508
 7041TIP3    H242539   4.472   0.875   3.727 -0.0267  1.2827  1.6923
 7042TIP3   OH242540   1.758   0.541   2.842 -0.0440 -1.0222  0.0413
 7042TIP3    H142541   1.824   0.472   2.853  0.1584 -0.9433 -0.6277
 7042TIP3    H242542   1.808   0.623   2.849 -0.1987 -0.9509  0.3111
 7043TIP3   OH242543   5.758   5.021   3.730  0.1418  0.2629 -0.5898
 7043TIP3    H142544   5.763   5.085   3.801  0.7015 -0.6117  0.1830
 7043TIP3    H242545   5.849   4.998   3.711 -0.0195 -3.3525  2.0214
 7044TIP3   OH242546   1.485   0.419   0.354  0.2897 -0.1926 -0.0726
 7044TIP3    H142547   1.415   0.385   0.411  1.5405 -2.0180  0.4577
 7044TIP3    H242548   1.528   0.487   0.405 -0.0344 -0.2332  0.2546
 7045TIP3   OH242549   3.240   2.405   4.675  0.0077  0.2818 -0.5761
 7045TIP3    H142550   3.198   2.320   4.680 -2.4003  1.4546  1.2904
 7045TIP3    H242551   3.218   2.437   4.587 -3.6445  0.9860  0.4063
 7046TIP3   OH242552   1.642   6.244  12.632 -0.1453  0.2892  0.8625
 7046TIP3    H142553   1.676   6.333  12.631 -0.4390  0.3979  0.5970
 7046TIP3    H242554   1.547   6.254  12.623  0.0295 -0.1758 -3.9650
 7047TIP3   OH242555   1.363   5.758   2.120 -0.1131 -0.0920  0.0911
 7047TIP3    H142556   1.332   5.775   2.031  0.2684 -1.2621 -0.2780
 7047TIP3    H242557   1.412   5.838   2.143  1.3167 -0.4559 -1.4546
 7048TIP3   OH242558   0.211   6.158  16.478 -0.0339 -0.5011 -0.2062
 7048TIP3    H142559   0.293   6.170  16.429 -0.6101 -1.1305 -1.3695
 7048TIP3    H242560   0.225   6.079  16.530  0.3734 -0.1494  0.2378
 7049TIP3   OH242561   3.818   3.557  16.138  0.1188  0.6520 -0.1596
 7049TIP3    H142562   3.891   3.497  16.153  0.7052  0.9094 -1.7816
 7049TIP3    H242563   3.796   3.590  16.225  1.3163 -0.1360  0.4729
 7050TIP3   OH242564   5.216   6.433  12.952  0.6718 -0.0004 -0.3469
 7050TIP3    H142565   5.288   6.399  13.005  1.4027 -0.2048 -1.4198
 7050TIP3    H242566   5.257   6.458  12.869 -0.6047 -0.9431 -1.3230
 7051TIP3   OH242567   4.253   4.563   0.888  0.2828 -0.3792 -0.2115
 7051TIP3    H142568   4.255   4.469   0.868  0.2409 -0.4053 -0.0922
 7051TIP3    H242569   4.343   4.592   0.872  0.5201 -0.6235  0.6266
 7052TIP3   OH242570   0.298   2.414  15.392  0.1984  0.2560  0.2848
 7052TIP3    H142571   0.215   2.379  15.359  0.0264  1.4418 -0.6149
 7052TIP3    H242572   0.343   2.338  15.428 -1.4379 -0.3385  1.1641
 7053TIP3   OH242573   1.469   6.266   4.558 -0.0887 -0.3288 -0.1683
 7053TIP3    H142574   1.385   6.304   4.585  1.2202  1.5521  1.5704
 7053TIP3    H242575   1.453   6.232   4.470 -2.8258 -0.6115  0.3558
 7054TIP3   OH242576   2.358   3.156  12.149  0.3517 -0.2043 -0.0409
 7054TIP3    H142577   2.413   3.223  12.106 -0.7418  0.8563  0.1545
 7054TIP3    H242578   2.361   3.180  12.242 -0.1145 -0.3866  0.0190
 7055TIP3   OH242579   4.893   5.012  12.156 -1.0348  0.2396  0.0399
 7055TIP3    H142580   4.953   4.953  12.111 -2.1423  0.9006 -2.4615
 7055TIP3    H242581   4.807   4.972  12.145 -1.3836  0.5631  1.3990
 7056TIP3   OH242582   5.363   2.412  14.460 -0.3967 -1.0007  0.2748
 7056TIP3    H142583   5.350   2.374  14.373 -2.4095  0.4766 -0.1470
 7056TIP3    H242584   5.452   2.447  14.457 -0.4522 -0.9085 -1.2394
 7057TIP3   OH242585   3.890   3.000  14.090 -0.4619 -0.1705 -0.1810
 7057TIP3    H142586   3.909   3.034  14.002  0.1020 -1.2480 -0.4833
 7057TIP3    H242587   3.975   2.998  14.133 -0.3537 -1.9499 -0.4397
 7058TIP3   OH242588   5.702   4.545  13.994  0.7749 -0.2326 -0.0166
 7058TIP3    H142589   5.659   4.462  14.015 -0.3881 -0.1431 -1.8536
 7058TIP3    H242590   5.694   4.597  14.075 -1.0073 -0.8822  0.2699
 7059TIP3   OH242591   6.652   0.350   2.046 -0.4814 -0.0969 -0.5800
 7059TIP3    H142592   6.709   0.280   2.015  0.0172 -0.6160  1.3581
 7059TIP3    H242593   6.604   0.312   2.119 -0.7338  1.3586  0.0524
 7060TIP3   OH242594   3.786   5.733   1.625  0.4673  0.0514  0.4048
 7060TIP3    H142595   3.859   5.716   1.683  1.2781  1.2197 -0.2301
 7060TIP3    H242596   3.825   5.738   1.538 -0.2678  1.1594  0.1073
 7061TIP3   OH242597   2.573   3.972   0.361 -0.2077 -0.1155  0.0675
 7061TIP3    H142598   2.485   3.941   0.337  0.7073 -2.1872 -0.7960
 7061TIP3    H242599   2.587   3.937   0.449  0.0036 -0.3482 -0.0583
 7062TIP3   OH242600   2.139   3.312   2.607 -0.1839 -0.3136  0.6156
 7062TIP3    H142601   2.234   3.309   2.619 -0.2020 -0.4601  0.7319
 7062TIP3    H242602   2.107   3.234   2.653 -0.3503 -0.3212  0.4884
 7063TIP3   OH242603   2.397   6.710   4.583  0.2719 -0.5195  0.6441
 7063TIP3    H142604   2.420   6.662   4.663 -0.4606  0.5444  1.5233
 7063TIP3    H242605   2.435   6.657   4.512  2.5269 -0.5665  1.7857
 7064TIP3   OH242606   1.814   0.003  13.936  0.5769  0.5057  0.2824
 7064TIP3    H142607   1.786   0.018  13.845  0.6776  0.1496  0.1890
 7064TIP3    H242608   1.875   0.075  13.954 -0.1513  1.1075  0.3830
 7065TIP3   OH242609   0.293   3.721   4.660 -0.4408 -0.1267 -0.1564
 7065TIP3    H142610   0.308   3.815   4.665 -0.9291 -0.0275 -0.5840
 7065TIP3    H242611   0.275   3.695   4.750 -0.4216  0.2031 -0.0567
 7066TIP3   OH242612   4.482   1.292  16.179  0.9773  0.1999 -0.3686
 7066TIP3    H142613   4.442   1.320  16.096  0.7533  1.2432  0.0800
 7066TIP3    H242614   4.457   1.200  16.188  1.2503 -0.0174 -1.6016
 7067TIP3   OH242615   1.306   2.313   0.270  0.5057  0.3011 -0.0038
 7067TIP3    H142616   1.279   2.358   0.189 -0.5879 -2.0731 -1.0613
 7067TIP3    H242617   1.321   2.223   0.243  0.0695 -0.5895  2.4734
 7068TIP3   OH242618   2.768   1.975   5.096 -0.3352  0.1259 -0.0752
 7068TIP3    H142619   2.815   1.967   5.013 -1.2391  0.9967 -0.7062
 7068TIP3    H242620   2.698   1.910   5.090  1.8333 -2.5775  1.6953
 7069TIP3   OH242621   2.267   3.041  13.429 -0.4362 -0.0469 -0.7648
 7069TIP3    H142622   2.293   3.091  13.351 -0.0192  0.3410 -0.3861
 7069TIP3    H242623   2.324   2.965  13.429  1.3809  1.2307  0.5318
 7070TIP3   OH242624   1.767   6.030   1.958  0.0578 -0.9672 -0.2781
 7070TIP3    H142625   1.709   6.018   2.033  1.1076 -0.8539  0.5823
 7070TIP3    H242626   1.709   6.040   1.883 -1.0655  0.2888  0.7175
 7071TIP3   OH242627   0.907   4.615  14.272 -0.4610  0.4842 -0.0894
 7071TIP3    H142628   0.982   4.641  14.220 -0.3421  1.3333  0.4865
 7071TIP3    H242629   0.938   4.619  14.363 -0.6382 -1.0306  0.0657
 7072TIP3   OH242630   5.138   6.709   2.965  0.5731  0.4425 -0.3577
 7072TIP3    H142631   5.229   6.739   2.955  0.7935 -0.4552 -1.2402
 7072TIP3    H242632   5.138   6.665   3.050  0.9503  0.4911 -0.3267
 7073TIP3   OH242633   3.850   3.290  15.143 -0.2003  0.6305 -0.1366
 7073TIP3    H142634   3.807   3.221  15.092 -0.2473  0.2409  0.4162
 7073TIP3    H242635   3.813   3.281  15.231  1.9617 -0.6042  0.7194
 7074TIP3   OH242636   1.339   1.433   4.393 -0.1155 -0.2308  0.4108
 7074TIP3    H142637   1.273   1.493   4.357  0.8724  1.8440  1.8469
 7074TIP3    H242638   1.395   1.413   4.318 -0.0191  1.3184  0.0338
 7075TIP3   OH242639   0.319   0.062  14.825  0.4944  0.2305 -0.5526
 7075TIP3    H142640   0.408   0.070  14.858  0.8160  1.1484 -1.5835
 7075TIP3    H242641   0.328   0.016  14.741 -0.2778 -1.8850  0.4519
 7076TIP3   OH242642   1.087   4.725   0.070 -0.4852  0.0248  0.2746
 7076TIP3    H142643   1.060   4.643   0.030 -0.6797 -0.0860  0.6300
 7076TIP3    H242644   1.137   4.770   0.002 -0.9232 -0.1031 -0.1392
 7077TIP3   OH242645   1.180   4.649  14.258  0.0644  0.5864 -0.2891
 7077TIP3    H142646   1.171   4.717  14.325 -0.9355  0.4205 -0.2495
 7077TIP3    H242647   1.210   4.696  14.180 -1.5001  1.2474 -0.5337
 7078TIP3   OH242648   4.887   2.594  16.167 -0.3157  0.1770 -0.0350
 7078TIP3    H142649   4.935   2.514  16.148 -0.1273  0.3726 -0.3986
 7078TIP3    H242650   4.902   2.610  16.260  1.0991  0.7453 -0.3491
 7079TIP3   OH242651   0.777   6.459  14.033 -0.0172  0.2672  0.0607
 7079TIP3    H142652   0.747   6.499  13.951  0.4129  0.6744  0.0954
 7079TIP3    H242653   0.718   6.495  14.100 -0.2728  0.0516 -0.0462
 7080TIP3   OH242654   1.757   3.010   3.721 -0.2047 -0.0278  0.0850
 7080TIP3    H142655   1.847   2.980   3.732  0.3934  1.3257 -0.8673
 7080TIP3    H242656   1.730   2.975   3.636 -0.6484 -0.5740  0.4449
 7081TIP3   OH242657   3.356   3.152   1.853 -0.4522  0.4981 -0.1158
 7081TIP3    H142658   3.274   3.197   1.876 -1.5797 -1.3849 -0.2204
 7081TIP3    H242659   3.335   3.107   1.770  0.3766 -0.7365  0.3210
 7082TIP3   OH242660   1.075   3.919  17.141  0.1936  0.6034 -0.1945
 7082TIP3    H142661   1.080   3.852  17.073 -1.0530 -0.1124  0.3892
 7082TIP3    H242662   0.991   3.962  17.126  1.0588  2.2308 -0.7016
 7083TIP3   OH242663   5.023   6.763   1.169  0.3491  0.5356 -0.9156
 7083TIP3    H142664   4.971   6.835   1.133  1.5292  0.8918 -1.9860
 7083TIP3    H242665   4.959   6.693   1.186 -0.9062  1.9717  0.6330
 7084TIP3   OH242666   6.393   1.931  14.511 -0.2334 -0.2490  0.5839
 7084TIP3    H142667   6.469   1.974  14.550  0.4853 -1.5662  0.7096
 7084TIP3    H242668   6.395   1.958  14.419  0.9089 -0.9272  0.3874
 7085TIP3   OH242669   6.087   4.156  16.989  0.1496  0.2012  0.1977
 7085TIP3    H142670   6.071   4.077  16.937 -0.0125  0.2227  0.2154
 7085TIP3    H242671   6.019   4.154  17.057 -0.7048  1.0448 -0.6043
 7086TIP3   OH242672   2.583   6.130   3.374 -0.1140  0.1690  0.3755
 7086TIP3    H142673   2.633   6.071   3.431 -0.3282  0.6948  1.1241
 7086TIP3    H242674   2.598   6.217   3.411  1.0632  0.7519 -1.3396
 7087TIP3   OH242675   5.937   3.234  16.259  0.0919  0.6787 -0.7749
 7087TIP3    H142676   5.891   3.160  16.299  1.8573 -0.5135 -0.8602
 7087TIP3    H242677   6.008   3.194  16.209  1.9230  2.4852  0.2770
 7088TIP3   OH242678   1.789   0.972  11.688 -0.7078 -0.1090 -0.2440
 7088TIP3    H142679   1.739   0.893  11.707 -1.0096  0.4070  1.2487
 7088TIP3    H242680   1.752   1.039  11.746  0.2717  0.8519 -0.6761
 7089TIP3   OH242681   3.978   1.321   0.703  0.5008  0.2243 -0.1748
 7089TIP3    H142682   4.020   1.235   0.714 -0.8497 -0.3024  1.2237
 7089TIP3    H242683   4.039   1.383   0.743  1.0745 -0.1901 -0.3925
 7090TIP3   OH242684   5.713   5.008  14.608 -0.1387 -0.0275 -0.1066
 7090TIP3    H142685   5.678   4.927  14.572  0.0438 -0.5333  0.8087
 7090TIP3    H242686   5.711   4.995  14.703  1.9216  0.1580  0.0146
 7091TIP3   OH242687   0.387   5.524   5.307  0.2148 -0.1552  0.0117
 7091TIP3    H142688   0.478   5.497   5.316  0.6911  1.8503  2.2579
 7091TIP3    H242689   0.341   5.479   5.377  0.1604  1.2906  0.9469
 7092TIP3   OH242690   2.548   4.965   5.148  0.1392  0.3667  0.0559
 7092TIP3    H142691   2.566   4.871   5.146  1.4656  0.5949  0.2513
 7092TIP3    H242692   2.494   4.981   5.071 -0.6584 -0.6519  0.3866
 7093TIP3   OH242693   3.847   0.825  14.604  0.2609 -0.3059  0.1741
 7093TIP3    H142694   3.938   0.846  14.583  0.5317 -0.9665  0.6660
 7093TIP3    H242695   3.846   0.813  14.699 -0.3280 -0.3723  0.1669
 7094TIP3   OH242696   3.265   6.161  11.136  0.3033  0.7969  0.4601
 7094TIP3    H142697   3.357   6.179  11.114 -0.0198 -0.2728 -2.1056
 7094TIP3    H242698   3.258   6.065  11.132 -1.4129  0.9288 -1.9778
 7095TIP3   OH242699   3.684   2.422  16.154 -0.1251  0.0378 -0.2546
 7095TIP3    H142700   3.629   2.407  16.078 -0.3480 -1.3152  0.1452
 7095TIP3    H242701   3.696   2.517  16.157 -0.2158  0.1209 -1.8848
 7096TIP3   OH242702   3.694   5.445  15.649  0.0739  0.1105 -0.6028
 7096TIP3    H142703   3.624   5.383  15.668  1.1970 -0.7265  1.0086
 7096TIP3    H242704   3.681   5.469  15.557 -1.2324 -1.3976 -0.8433
 7097TIP3   OH242705   3.757   4.044   4.640  0.0641  0.1912 -0.3945
 7097TIP3    H142706   3.692   3.996   4.692  0.9759  2.4320  3.2329
 7097TIP3    H242707   3.707   4.117   4.602 -0.6018 -1.4374 -2.8162
 7098TIP3   OH242708   6.138   2.900  11.676 -0.3360 -0.9287 -0.6202
 7098TIP3    H142709   6.144   2.978  11.621 -0.2656  0.5271  1.3737
 7098TIP3    H242710   6.228   2.882  11.703 -0.6584  0.0642  1.2387
 7099TIP3   OH242711   5.061   1.182   1.104  0.2185  0.1626 -0.1619
 7099TIP3    H142712   5.150   1.176   1.139  0.7877  1.5963 -1.2718
 7099TIP3    H242713   5.070   1.228   1.021 -1.4324 -0.7033 -0.8835
 7100TIP3   OH242714   5.587   3.842  15.129 -0.0106  0.0548  0.1978
 7100TIP3    H142715   5.643   3.793  15.069  0.2669 -1.1451  1.3777
 7100TIP3    H242716   5.636   3.922  15.148  0.5296 -0.2038 -0.0926
 7101TIP3   OH242717   4.603   1.209   0.643 -0.6266  0.1937 -0.2635
 7101TIP3    H142718   4.643   1.132   0.684  0.5248  1.0540  0.2544
 7101TIP3    H242719   4.621   1.281   0.703  2.8272  1.9329 -3.0282
 7102TIP3   OH242720   0.578   4.431   2.851  0.3278 -0.1825 -0.0158
 7102TIP3    H142721   0.610   4.511   2.808 -2.1105 -0.1826 -2.0275
 7102TIP3    H242722   0.548   4.461   2.937  1.0633  0.7055 -0.0503
 7103TIP3   OH242723   3.244   0.413   6.201  0.0986  0.0125  0.2835
 7103TIP3    H142724   3.244   0.402   6.296  0.3488  1.2038  0.4360
 7103TIP3    H242725   3.330   0.451   6.182 -1.0560  2.6411 -0.0350
 7104TIP3   OH242726   1.513   1.253  13.258 -0.3427  0.8537  0.1675
 7104TIP3    H142727   1.562   1.308  13.318  2.9191 -0.8775 -0.6107
 7104TIP3    H242728   1.565   1.172  13.253 -2.1561 -0.2909 -2.5159
 7105TIP3   OH242729   0.601   1.706  14.658 -0.5141  0.3614 -0.4913
 7105TIP3    H142730   0.581   1.708  14.752 -0.9445 -0.4577 -0.5505
 7105TIP3    H242731   0.535   1.761  14.618 -3.5176 -3.0669 -0.7871
 7106TIP3   OH242732   4.922   1.079   2.137  0.0543 -0.4179  0.2287
 7106TIP3    H142733   4.850   1.108   2.082  1.6377  0.9619 -1.2269
 7106TIP3    H242734   4.897   0.990   2.164 -1.8402 -0.2476 -0.7806
 7107TIP3   OH242735   6.081   2.409   5.093  0.0857  0.2239 -0.5102
 7107TIP3    H142736   6.007   2.462   5.065 -0.6099 -0.1912  0.4813
 7107TIP3    H242737   6.103   2.442   5.180 -0.8140 -1.5250  0.4277
 7108TIP3   OH242738   3.663   1.534  10.625 -0.2888  0.8056  0.1178
 7108TIP3    H142739   3.671   1.450  10.672  0.2508  1.7993  1.9039
 7108TIP3    H242740   3.737   1.535  10.565 -0.6056 -0.2160 -0.3076
 7109TIP3   OH242741   1.384   4.912  17.226 -0.2372  0.0382 -0.4844
 7109TIP3    H142742   1.468   4.927  17.184  1.4724  1.8209  3.0935
 7109TIP3    H242743   1.336   4.994  17.215 -0.7852 -0.3449 -0.9950
 7110TIP3   OH242744   3.504   4.879   0.022  0.3389 -0.5409 -0.0314
 7110TIP3    H142745   3.563   4.810   0.053  0.0642  0.1023  2.0674
 7110TIP3    H242746   3.425   4.833  -0.004  1.1209 -1.2455 -1.2485
 7111TIP3   OH242747   0.087   4.488  13.805 -0.0603 -0.2957 -0.2096
 7111TIP3    H142748   0.108   4.534  13.886 -0.0553  0.0560 -0.4047
 7111TIP3    H242749   0.024   4.545  13.761 -0.6518 -0.8621 -0.0994
 7112TIP3   OH242750   2.739   4.699   5.069  0.5805  0.1955 -0.3791
 7112TIP3    H142751   2.806   4.657   5.016  1.9878  0.1474  1.3423
 7112TIP3    H242752   2.722   4.638   5.140  0.5403  1.2644  0.5687
 7113TIP3   OH242753   3.910   2.057  12.090 -0.0986 -0.7191 -0.2905
 7113TIP3    H142754   3.889   2.052  11.997 -0.0913 -2.9153 -0.2143
 7113TIP3    H242755   3.836   2.015  12.134  0.6240 -1.1140  0.5803
 7114TIP3   OH242756   4.969   5.819   2.794 -0.6862  0.1426  0.1984
 7114TIP3    H142757   4.925   5.824   2.879 -1.5092  2.0616 -0.3055
 7114TIP3    H242758   5.000   5.908   2.777  0.5255 -0.4682 -0.9850
 7115TIP3   OH242759   2.933   2.523  16.901 -0.0976 -0.2315  0.5212
 7115TIP3    H142760   2.914   2.609  16.938 -0.1989 -0.0746  0.1158
 7115TIP3    H242761   2.853   2.473  16.915  0.5470 -0.8321  2.3224
 7116TIP3   OH242762   4.137   4.921   5.215  0.2848 -0.2945 -0.4202
 7116TIP3    H142763   4.230   4.898   5.226  0.2625 -0.5833 -0.8418
 7116TIP3    H242764   4.098   4.843   5.175 -0.4002 -0.6740  0.9275
 7117TIP3   OH242765   1.866   1.613  13.206  0.6087 -0.1632  0.3268
 7117TIP3    H142766   1.893   1.526  13.235  1.6428  0.6574  1.9985
 7117TIP3    H242767   1.777   1.622  13.238  0.6090 -0.4927  0.4305
 7118TIP3   OH242768   1.488   4.260   4.879 -0.7404 -0.6688  0.3699
 7118TIP3    H142769   1.442   4.241   4.797 -1.6693 -3.2053  1.3888
 7118TIP3    H242770   1.434   4.221   4.947  1.0233 -0.4006  2.0174
 7119TIP3   OH242771   5.448   0.299   0.897 -0.1285 -0.3730  0.1483
 7119TIP3    H142772   5.471   0.390   0.881  1.0680 -0.4661  1.2011
 7119TIP3    H242773   5.506   0.249   0.840 -0.4562 -0.4947 -0.0819
 7120TIP3   OH242774   5.463   2.902   0.938  0.2151 -0.5962  0.3579
 7120TIP3    H142775   5.531   2.844   0.972  0.2446 -0.4128  0.6151
 7120TIP3    H242776   5.449   2.966   1.008 -0.6001 -0.9493  0.5196
 7121TIP3   OH242777   6.681   2.002  14.508  0.3566  0.2327 -0.3698
 7121TIP3    H142778   6.689   2.069  14.440 -0.8931  0.7069 -0.0673
 7121TIP3    H242779   6.697   2.050  14.590 -2.3709  0.6378  0.0244
 7122TIP3   OH242780   3.187   1.763   0.351  0.1643  0.5163  0.5529
 7122TIP3    H142781   3.115   1.751   0.288 -1.1049 -0.3356  2.0924
 7122TIP3    H242782   3.186   1.856   0.371 -3.6532 -0.0133  3.9555
 7123TIP3   OH242783   1.979   5.162  16.506 -0.4161 -0.1745  0.1165
 7123TIP3    H142784   1.998   5.176  16.599  0.6945  0.2242 -0.1551
 7123TIP3    H242785   1.884   5.168  16.500 -0.3959  1.7726  0.9272
 7124TIP3   OH242786   2.488   2.102   0.695  0.2270 -0.0297  0.0507
 7124TIP3    H142787   2.406   2.101   0.646  0.7393  1.7973 -0.9050
 7124TIP3    H242788   2.461   2.086   0.786 -1.0578 -0.4734 -0.3795
 7125TIP3   OH242789   1.726   5.842   0.125 -0.2972  0.0864 -0.3702
 7125TIP3    H142790   1.777   5.779   0.176  1.6320  1.0671 -0.9917
 7125TIP3    H242791   1.784   5.870   0.055 -1.9329  0.8148 -1.5126
 7126TIP3   OH242792   6.295   0.605   4.116  0.5389  0.0123 -0.6664
 7126TIP3    H142793   6.214   0.656   4.109  1.6742  2.0975  0.3556
 7126TIP3    H242794   6.358   0.654   4.064  1.2499 -1.4519 -1.2412
 7127TIP3   OH242795   2.635   5.928   4.875  0.5158 -0.6080  0.0537
 7127TIP3    H142796   2.686   5.915   4.954 -0.9161 -2.5389  0.7533
 7127TIP3    H242797   2.658   5.853   4.819 -1.8111 -1.8363  0.6095
 7128TIP3   OH242798   1.517   1.358   4.174  0.0673 -0.1356 -0.0156
 7128TIP3    H142799   1.468   1.346   4.093  1.2361  4.6322 -1.7155
 7128TIP3    H242800   1.603   1.318   4.156 -0.2652 -0.6745 -0.4320
 7129TIP3   OH242801   2.610   0.563   5.928  0.0179 -0.3322  0.3534
 7129TIP3    H142802   2.653   0.487   5.889 -1.4393 -0.8116 -0.3906
 7129TIP3    H242803   2.638   0.637   5.874  1.1766 -0.3736  0.8739
 7130TIP3   OH242804   2.346   2.784  16.779 -0.1731  0.5562  0.2300
 7130TIP3    H142805   2.367   2.833  16.700  2.2608 -0.4157  0.1976
 7130TIP3    H242806   2.413   2.810  16.843  0.6015 -1.8924  0.5286
 7131TIP3   OH242807   6.204   4.622   1.545  0.0593 -0.2999  0.2007
 7131TIP3    H142808   6.131   4.648   1.601 -2.1335  0.6944 -2.7989
 7131TIP3    H242809   6.168   4.553   1.489  2.1668 -1.3887  0.0946
 7132TIP3   OH242810   0.240   0.739   0.334 -0.6134  0.0224 -0.1944
 7132TIP3    H142811   0.290   0.738   0.253 -0.3715  1.2691 -0.0684
 7132TIP3    H242812   0.281   0.671   0.388 -1.0051 -1.0627 -1.2253
 7133TIP3   OH242813   0.535   2.337  11.041 -0.2012  0.6363  0.1414
 7133TIP3    H142814   0.615   2.382  11.066 -0.7119  1.2577  0.6962
 7133TIP3    H242815   0.544   2.323  10.947  1.1388 -0.5067  0.4195
 7134TIP3   OH242816   0.748   6.529   3.288 -0.3665  0.2361  0.6176
 7134TIP3    H142817   0.734   6.614   3.330 -0.1856  0.2849  0.5809
 7134TIP3    H242818   0.822   6.491   3.335  0.7434  0.8932 -0.5524
 7135TIP3   OH242819   0.932   5.907   1.338 -0.5623 -0.5703 -0.2118
 7135TIP3    H142820   0.927   5.986   1.285 -0.3460 -2.2680 -2.9385
 7135TIP3    H242821   1.019   5.872   1.322 -1.2814 -2.3124 -0.5814
 7136TIP3   OH242822   2.182   5.526  11.725 -0.2048  0.3508  0.2832
 7136TIP3    H142823   2.200   5.488  11.639 -1.9102 -1.3269  0.5962
 7136TIP3    H242824   2.088   5.514  11.737 -0.0697  0.9194  2.2239
 7137TIP3   OH242825   1.650   0.326   1.384 -0.7431  0.0093 -0.3304
 7137TIP3    H142826   1.573   0.335   1.441 -0.6683 -0.0897 -0.2140
 7137TIP3    H242827   1.667   0.415   1.354 -0.1253  0.2478  0.6710
 7138TIP3   OH242828   3.635   6.158   2.278 -0.0798 -0.0583  0.0404
 7138TIP3    H142829   3.614   6.251   2.271  0.1596  0.0628  0.8731
 7138TIP3    H242830   3.701   6.153   2.347  3.7024 -0.2657 -3.2253
 7139TIP3   OH242831   2.125   4.124  11.725  0.6094 -0.0130 -0.2342
 7139TIP3    H142832   2.140   4.035  11.694  3.3271 -0.0101  0.8354
 7139TIP3    H242833   2.038   4.147  11.691  0.0341 -2.8608 -0.9281
 7140TIP3   OH242834   0.630   6.026  14.234 -0.8268 -0.7944  0.3769
 7140TIP3    H142835   0.680   6.105  14.211 -1.9847  0.1444  0.9716
 7140TIP3    H242836   0.538   6.052  14.224 -1.2332 -2.3437 -0.2618
 7141TIP3   OH242837   1.449   0.394   1.548  0.4364  0.5468 -0.5605
 7141TIP3    H142838   1.473   0.463   1.609 -1.0389  1.6308 -1.1288
 7141TIP3    H242839   1.359   0.416   1.521  0.3243 -0.9928 -1.5864
 7142TIP3   OH242840   3.165   6.039   5.507  0.1739  0.1551  0.3027
 7142TIP3    H142841   3.127   6.012   5.591  2.1591  1.0767  1.5935
 7142TIP3    H242842   3.126   6.125   5.490  0.2641  0.2741  0.6730
 7143TIP3   OH242843   4.591   3.212  12.248  0.0600  0.1671  0.1671
 7143TIP3    H142844   4.545   3.198  12.330 -0.2981 -1.6309 -0.2810
 7143TIP3    H242845   4.663   3.148  12.249  0.1753  0.2563 -0.8108
 7144TIP3   OH242846   6.564   1.428   4.536  0.1431  0.0026  0.8523
 7144TIP3    H142847   6.522   1.510   4.558  0.2942  0.2061  0.3978
 7144TIP3    H242848   6.630   1.451   4.470  0.6788 -0.3714  1.2396
 7145TIP3   OH242849   2.467   3.845  16.747 -0.0870 -0.0018  0.0326
 7145TIP3    H142850   2.470   3.938  16.767 -2.5998  0.3401 -0.8644
 7145TIP3    H242851   2.472   3.841  16.651  1.1160 -0.8885  0.1137
 7146TIP3   OH242852   5.845   5.319   3.599  0.1460 -0.2225  0.2182
 7146TIP3    H142853   5.810   5.290   3.683 -0.1710 -0.3222  0.0529
 7146TIP3    H242854   5.905   5.390   3.622  0.7151 -0.8028  0.6031
 7147TIP3   OH242855   6.327   5.330   1.296  0.0033  0.4648  0.2503
 7147TIP3    H142856   6.326   5.387   1.374 -0.9758 -1.1712  1.4828
 7147TIP3    H242857   6.264   5.261   1.316 -1.1258  0.5937 -2.4938
 7148TIP3   OH242858   2.053   6.002   4.853  0.0798 -0.3962 -0.1971
 7148TIP3    H142859   2.126   6.044   4.899  0.0283 -0.4803 -0.0360
 7148TIP3    H242860   2.040   5.920   4.900  0.3128 -0.6893 -0.6409
 7149TIP3   OH242861   5.870   0.145   0.561  0.4054 -0.3219  0.3113
 7149TIP3    H142862   5.899   0.075   0.502  0.1671  0.4863 -0.7823
 7149TIP3    H242863   5.926   0.219   0.541  1.4133 -0.4907  2.2616
 7150TIP3   OH242864   2.676   3.765  15.005  0.1520  0.1377 -0.4906
 7150TIP3    H142865   2.745   3.701  14.986  0.1742 -0.2826  0.8774
 7150TIP3    H242866   2.595   3.715  15.002 -0.0276  0.4629 -1.2960
 7151TIP3   OH242867   5.091   1.299  10.419  0.3073  0.2398  0.0883
 7151TIP3    H142868   5.150   1.265  10.351  0.1349  2.0855 -1.0851
 7151TIP3    H242869   5.122   1.389  10.433  0.2978 -0.0729  2.4797
 7152TIP3   OH242870   4.902   5.759   1.060  0.9839 -0.4590  0.0312
 7152TIP3    H142871   4.946   5.714   0.988 -1.3628 -1.0048 -1.1570
 7152TIP3    H242872   4.826   5.801   1.019 -0.4158 -0.7583  2.1837
 7153TIP3   OH242873   5.823   6.552   6.036  0.4154  0.1099  0.0550
 7153TIP3    H142874   5.883   6.627   6.030  0.6344 -0.1114 -0.6390
 7153TIP3    H242875   5.862   6.496   6.103 -0.0725  0.8940  1.0148
 7154TIP3   OH242876   6.675   5.053   0.651 -0.4572 -0.3916 -0.1718
 7154TIP3    H142877   6.756   5.037   0.700 -0.3867 -2.3099 -0.7953
 7154TIP3    H242878   6.696   5.027   0.561 -1.1714  1.1042 -0.7950
 7155TIP3   OH242879   3.564   5.168  11.369 -0.5802  0.7067  0.1089
 7155TIP3    H142880   3.641   5.204  11.413 -0.9183  1.1977  0.2964
 7155TIP3    H242881   3.582   5.074  11.363  0.4153  0.9313 -0.6153
 7156TIP3   OH242882   1.221   2.908  16.267  0.2010  0.3628  0.1051
 7156TIP3    H142883   1.317   2.914  16.262  0.3198 -1.2521 -0.0718
 7156TIP3    H242884   1.192   2.999  16.265  1.7192  0.8858 -0.1023
 7157TIP3   OH242885   1.467   3.097  14.571 -0.4307  0.2049  0.4504
 7157TIP3    H142886   1.420   3.162  14.623 -1.5457 -0.5965  0.4586
 7157TIP3    H242887   1.411   3.081  14.495  0.3244 -0.0045 -0.0870
 7158TIP3   OH242888   5.738   1.258  12.083 -0.0155  0.3270 -0.1701
 7158TIP3    H142889   5.757   1.351  12.092 -0.5143  0.3202  1.3710
 7158TIP3    H242890   5.677   1.239  12.155  0.6148 -1.3211 -0.0144
 7159TIP3   OH242891   0.993   2.233  14.205  0.2183  0.2823  0.4216
 7159TIP3    H142892   1.079   2.223  14.245  0.1684 -2.2964  0.0709
 7159TIP3    H242893   1.005   2.299  14.137  1.4631  1.2218  1.5003
 7160TIP3   OH242894   5.629   1.550   0.805 -0.3809  0.8242  0.5559
 7160TIP3    H142895   5.701   1.507   0.759  0.2468 -1.1060  3.1341
 7160TIP3    H242896   5.551   1.527   0.754  0.4500  0.1762 -0.4589
 7161TIP3   OH242897   3.778   2.825   2.787  0.1821  0.7481  0.0381
 7161TIP3    H142898   3.687   2.819   2.818 -0.3162  1.4715 -1.2073
 7161TIP3    H242899   3.819   2.888   2.847 -0.2874  0.8415  0.2673
 7162TIP3   OH242900   0.737   6.268  16.162 -0.1481  0.3570 -0.5614
 7162TIP3    H142901   0.761   6.356  16.193  0.0923 -0.0382  0.4029
 7162TIP3    H242902   0.650   6.279  16.125 -0.2244  0.9515 -0.2203
 7163TIP3   OH242903   2.469   4.371  14.283 -0.1238 -0.3109  0.0429
 7163TIP3    H142904   2.478   4.326  14.199 -1.4373  1.0285 -0.8537
 7163TIP3    H242905   2.492   4.304  14.348  1.8074 -1.1174 -1.3801
 7164TIP3   OH242906   6.749   1.969   4.056 -0.9202 -0.0687  0.0712
 7164TIP3    H142907   6.822   1.940   4.111  0.1331  1.4872 -0.4397
 7164TIP3    H242908   6.755   1.915   3.978  0.7867  1.1719 -0.7103
 7165TIP3   OH242909   6.164   6.037   0.711  0.3222 -0.3606  0.1133
 7165TIP3    H142910   6.221   6.020   0.786  0.4018 -1.8447 -0.2388
 7165TIP3    H242911   6.101   6.102   0.742  2.0688  1.1761  0.5657
 7166TIP3   OH242912   2.895   3.451  16.642  0.6005 -0.2750  0.2258
 7166TIP3    H142913   2.887   3.405  16.559  1.8115  0.9294 -0.6076
 7166TIP3    H242914   2.988   3.476  16.647  0.3885  0.3322  1.5678
 7167TIP3   OH242915   6.307   5.412   3.951 -0.2911  0.3810 -0.3898
 7167TIP3    H142916   6.291   5.436   3.859  0.1628 -1.2681 -0.9316
 7167TIP3    H242917   6.391   5.367   3.949 -1.1066 -1.2632  0.5377
 7168TIP3   OH242918   0.166   4.130  11.460 -0.4680  0.4377  0.2095
 7168TIP3    H142919   0.214   4.075  11.399  0.1559  3.0527 -1.8058
 7168TIP3    H242920   0.075   4.100  11.452 -0.1012 -0.5299 -0.5458
 7169TIP3   OH242921   0.977   4.494  12.212  0.6838 -0.2990  0.2518
 7169TIP3    H142922   0.942   4.408  12.191 -1.5401  0.6589 -0.3429
 7169TIP3    H242923   1.007   4.529  12.128  2.6530 -0.8758  0.6668
 7170TIP3   OH242924   5.640   2.167   2.230  0.6084  0.3142  0.2348
 7170TIP3    H142925   5.581   2.127   2.166 -0.9797  1.4174  0.9433
 7170TIP3    H242926   5.665   2.095   2.288 -0.6833 -0.0603  0.3628
 7171TIP3   OH242927   5.015   5.446   2.023 -0.7015 -0.5759 -0.2806
 7171TIP3    H142928   5.000   5.530   2.067 -0.0178  0.6217 -2.1719
 7171TIP3    H242929   4.972   5.457   1.938  0.3752 -1.7139 -0.9965
 7172TIP3   OH242930   1.982   4.846   5.130  0.3743  0.1344 -0.4322
 7172TIP3    H142931   1.898   4.880   5.101  0.9387  2.9621  0.8828
 7172TIP3    H242932   2.044   4.917   5.114  1.4681  0.3102  3.5198
 7173TIP3   OH242933   3.123   0.748  13.139  0.3380  0.1940  0.0518
 7173TIP3    H142934   3.066   0.821  13.164  0.2533  0.2107 -0.1911
 7173TIP3    H242935   3.200   0.790  13.099  0.0472  0.1326 -0.5844
 7174TIP3   OH242936   1.951   6.162   1.612  0.1126  0.0347 -0.3343
 7174TIP3    H142937   2.044   6.141   1.616  0.2977  0.4442 -1.9055
 7174TIP3    H242938   1.909   6.081   1.585  0.3225  0.4774 -2.0770
 7175TIP3   OH242939   0.127   5.530   0.170 -0.2096 -0.0432  0.1307
 7175TIP3    H142940   0.073   5.490   0.239  0.0871 -0.4054  0.1548
 7175TIP3    H242941   0.209   5.552   0.214 -0.3301  0.4953  0.0903
 7176TIP3   OH242942   0.226   0.070  11.634  0.5809 -0.2755 -0.0049
 7176TIP3    H142943   0.315   0.074  11.668  0.5069  0.2378  0.1283
 7176TIP3    H242944   0.218   0.145  11.576  0.1075 -0.0847  0.2959
 7177TIP3   OH242945   3.534   2.813   5.853 -0.2970 -0.1876 -0.3011
 7177TIP3    H142946   3.505   2.904   5.847 -0.1946 -0.0688  0.8204
 7177TIP3    H242947   3.531   2.792   5.947 -0.4117 -1.3730 -0.5463
 7178TIP3   OH242948   2.768   5.725   2.097  0.0359 -0.2063  0.0276
 7178TIP3    H142949   2.721   5.670   2.035  1.0421 -0.3752 -0.6181
 7178TIP3    H242950   2.849   5.677   2.115 -0.6928 -0.6739  2.3211
 7179TIP3   OH242951   3.408   5.121  16.929  0.2090 -0.7084  0.5219
 7179TIP3    H142952   3.480   5.184  16.928  0.6776 -1.2373 -0.5128
 7179TIP3    H242953   3.413   5.081  17.016  1.4617 -1.0490  0.3228
 7180TIP3   OH242954   6.767   1.894  15.361 -0.7409 -0.4536 -0.3027
 7180TIP3    H142955   6.732   1.844  15.288  0.3768  0.1721 -1.2985
 7180TIP3    H242956   6.790   1.828  15.427  1.2451 -1.3757 -1.7987
 7181TIP3   OH242957   3.703   6.540   1.262 -0.1477 -0.2269 -0.0510
 7181TIP3    H142958   3.742   6.457   1.290 -1.9035 -1.3708 -0.7933
 7181TIP3    H242959   3.741   6.557   1.176  0.0215 -0.4110 -0.0138
 7182TIP3   OH242960   2.755   6.313  16.717  0.2306 -0.0395  0.4181
 7182TIP3    H142961   2.799   6.383  16.668  0.7643 -0.2554  0.5877
 7182TIP3    H242962   2.662   6.331  16.704  0.3397 -0.5941 -1.4196
 7183TIP3   OH242963   5.025   3.605   0.853 -0.0710  0.2593  0.2786
 7183TIP3    H142964   5.016   3.677   0.790 -0.4427 -1.1540 -1.3455
 7183TIP3    H242965   4.948   3.613   0.909 -0.2823  0.9311 -0.0884
 7184TIP3   OH242966   4.229   4.662  11.675  0.1628  0.0310  0.0743
 7184TIP3    H142967   4.169   4.592  11.649 -3.2245  2.4190  0.7269
 7184TIP3    H242968   4.236   4.653  11.770  3.3433 -1.8884 -0.1957
 7185TIP3   OH242969   3.787   6.146  11.075 -0.0748 -0.4196 -0.2282
 7185TIP3    H142970   3.853   6.193  11.024 -1.7401  0.9741 -1.2187
 7185TIP3    H242971   3.767   6.068  11.023  0.2770 -0.4885 -0.2623
 7186TIP3   OH242972   0.345   6.199   0.965  0.4543 -0.4629  0.2830
 7186TIP3    H142973   0.269   6.142   0.971 -0.5241  0.8614  0.9497
 7186TIP3    H242974   0.325   6.259   0.893  1.7197 -1.2689 -0.7899
 7187TIP3   OH242975   3.757   1.306  16.989  1.2436 -0.5023 -0.5371
 7187TIP3    H142976   3.767   1.320  16.895  0.7084  0.5696 -0.4404
 7187TIP3    H242977   3.846   1.315  17.024  1.4717 -1.0715 -0.9493
 7188TIP3   OH242978   2.493   3.894  13.233  0.1937  0.6297  0.5877
 7188TIP3    H142979   2.516   3.956  13.164 -0.1555 -0.8018 -0.8749
 7188TIP3    H242980   2.572   3.842  13.245  1.0652  2.3234  3.0047
 7189TIP3   OH242981   6.007   3.349   1.089 -0.2433  0.0424  0.4406
 7189TIP3    H142982   6.070   3.328   1.158  1.3500  0.5418 -0.8044
 7189TIP3    H242983   6.052   3.326   1.008 -1.8727 -0.0513 -0.4704
 7190TIP3   OH242984   5.528   5.959   5.238 -0.5535  0.3631  0.3981
 7190TIP3    H142985   5.547   5.883   5.292  0.2671  1.8036  2.2611
 7190TIP3    H242986   5.437   5.981   5.257 -0.8814 -0.2717 -0.3577
 7191TIP3   OH242987   3.574   4.914   4.649  0.1188 -0.4315 -0.7899
 7191TIP3    H142988   3.582   5.009   4.635 -2.8096 -0.0131 -0.1968
 7191TIP3    H242989   3.516   4.885   4.579 -1.0396 -1.3104  0.4929
 7192TIP3   OH242990   6.042   4.603  12.559  0.0176  0.5243 -0.3108
 7192TIP3    H142991   5.953   4.583  12.590  0.1234  2.7747  1.7450
 7192TIP3    H242992   6.035   4.690  12.520  0.9960 -0.0761 -1.9411
 7193TIP3   OH242993   3.979   5.182  16.902 -0.5290 -0.0923 -0.4545
 7193TIP3    H142994   3.968   5.274  16.879 -1.2229 -0.2953 -0.9733
 7193TIP3    H242995   3.891   5.151  16.922 -0.0847 -0.1435  1.7659
 7194TIP3   OH242996   5.993   4.850   1.965 -0.1819 -0.1380 -0.5516
 7194TIP3    H142997   6.061   4.895   2.015 -0.3738 -1.6708  1.2135
 7194TIP3    H242998   5.937   4.920   1.932 -0.9828  1.0019  2.8006
 7195TIP3   OH242999   2.844   2.872  14.057  0.3400 -0.5443  0.1927
 7195TIP3    H143000   2.838   2.954  14.009 -2.3962 -0.7193  0.0754
 7195TIP3    H243001   2.759   2.863  14.100 -0.4369 -4.4025 -1.7013
 7196TIP3   OH243002   1.957   2.542   4.801 -0.3970  0.0509  0.2234
 7196TIP3    H143003   1.906   2.590   4.736 -0.5539 -1.7113 -1.0315
 7196TIP3    H243004   1.971   2.605   4.872 -3.3424  0.9470  0.1428
 7197TIP3   OH243005   2.979   1.315   4.969  1.0454  0.2603  1.0527
 7197TIP3    H143006   3.014   1.232   4.936 -1.6345 -0.9214  0.9129
 7197TIP3    H243007   3.008   1.318   5.061  0.8039 -1.0911  1.1997
 7198TIP3   OH243008   0.085   3.500   0.975 -0.5583 -0.0932 -0.5250
 7198TIP3    H143009   0.039   3.540   0.901 -0.9035  2.0086  0.7520
 7198TIP3    H243010   0.059   3.552   1.051  1.4649 -0.8291  0.7589
 7199TIP3   OH243011   6.090   4.840  12.804 -0.3326 -0.4684  0.1434
 7199TIP3    H143012   6.011   4.886  12.777 -1.0837 -1.4484  0.5797
 7199TIP3    H243013   6.089   4.758  12.755  0.5844 -0.3621 -0.0775
 7200TIP3   OH243014   5.236   4.284   2.188  0.9261 -0.4166  0.3657
 7200TIP3    H143015   5.282   4.252   2.266  1.9950  1.4542  0.5724
 7200TIP3    H243016   5.167   4.340   2.222  0.8314 -0.2878 -0.0303
 7201TIP3   OH243017   6.501   5.304  15.617 -0.2416  0.2369  0.4187
 7201TIP3    H143018   6.494   5.389  15.574  0.1410  2.9585  5.0576
 7201TIP3    H243019   6.594   5.298  15.640 -0.5759 -0.5952  1.6027
 7202TIP3   OH243020   6.568   1.389   4.797 -0.5152  0.4609 -0.7223
 7202TIP3    H143021   6.556   1.401   4.703 -1.9609 -0.6240 -0.7218
 7202TIP3    H243022   6.495   1.332   4.823  0.0979  0.3936  0.9778
 7203TIP3   OH243023   3.689   4.380   0.476 -0.0376 -0.5791 -0.1004
 7203TIP3    H143024   3.636   4.459   0.466  0.0790 -0.5735 -0.6789
 7203TIP3    H243025   3.770   4.411   0.518 -0.8173 -0.7193  1.6030
 7204TIP3   OH243026   1.784   6.385   3.698  0.5388 -0.0884  0.1937
 7204TIP3    H143027   1.748   6.426   3.619  0.7362 -2.9922 -1.5419
 7204TIP3    H243028   1.812   6.459   3.752 -0.3785  2.0616 -2.0464
 7205TIP3   OH243029   4.971   2.679  15.530  0.6463  0.3912 -0.7041
 7205TIP3    H143030   4.946   2.654  15.619 -0.1720  0.3130 -0.9412
 7205TIP3    H243031   5.054   2.725  15.539  0.4310  0.6252  0.1281
 7206TIP3   OH243032   1.004   0.973   4.250  0.1068 -0.2626  0.6645
 7206TIP3    H143033   1.086   0.943   4.212 -1.0157 -1.0535 -1.3122
 7206TIP3    H243034   0.994   1.063   4.217  0.6291  0.1928  1.7148
 7207TIP3   OH243035   0.770   0.843  12.787  0.5522  0.1770 -0.1829
 7207TIP3    H143036   0.863   0.827  12.801  0.2461 -1.0466  0.6035
 7207TIP3    H243037   0.762   0.938  12.788  1.7293  0.2896  0.1843
 7208TIP3   OH243038   2.023   1.294   1.234 -0.1656  0.2953 -0.5743
 7208TIP3    H143039   2.001   1.361   1.169  1.6008  0.5681 -0.9349
 7208TIP3    H243040   2.101   1.328   1.278 -0.7298 -0.3615  1.0087
 7209TIP3   OH243041   1.550   0.328  13.159  0.7898  0.4320 -0.0404
 7209TIP3    H143042   1.511   0.413  13.181  2.5351  1.0194  1.0108
 7209TIP3    H243043   1.496   0.265  13.207  0.6620  1.1448  0.7884
 7210TIP3   OH243044   2.390   2.073  15.663  0.0695  0.0436 -0.7704
 7210TIP3    H143045   2.435   2.155  15.679  0.9669 -0.6088  0.1738
 7210TIP3    H243046   2.456   2.016  15.624 -0.6697 -0.1090 -1.8810
 7211TIP3   OH243047   5.076   5.961  10.392  0.3963 -0.3703 -0.2057
 7211TIP3    H143048   5.042   5.876  10.418 -2.7933 -0.0367 -2.8141
 7211TIP3    H243049   5.003   6.022  10.405  2.0073  1.6779 -0.1440
 7212TIP3   OH243050   2.409   6.048   0.021  0.0982  0.1309  0.0857
 7212TIP3    H143051   2.496   6.072   0.054  1.3741 -0.6770 -2.4593
 7212TIP3    H243052   2.359   6.130   0.025  2.0336  1.4857 -1.4724
 7213TIP3   OH243053   6.365   4.166  17.211 -0.0582  0.4997 -0.1056
 7213TIP3    H143054   6.361   4.222  17.133 -1.1023  2.1419  1.0534
 7213TIP3    H243055   6.379   4.078  17.177  2.5255  1.5250 -1.9807
 7214TIP3   OH243056   1.829   4.803  15.949  0.0956 -0.1148  0.0281
 7214TIP3    H143057   1.915   4.774  15.918 -0.4307 -0.9083 -0.7476
 7214TIP3    H243058   1.771   4.788  15.874 -0.9920 -0.9267  0.9955
 7215TIP3   OH243059   0.737   6.560  12.276  0.5057 -0.0014 -0.0890
 7215TIP3    H143060   0.675   6.628  12.248  1.3989  0.4022 -1.1718
 7215TIP3    H243061   0.823   6.593  12.249  1.0509 -1.1667  0.1554
 7216TIP3   OH243062   3.075   2.476   2.693 -0.2981  0.2615  0.2161
 7216TIP3    H143063   3.053   2.385   2.673 -1.0460 -0.1254  2.4852
 7216TIP3    H243064   3.001   2.527   2.659 -1.2943 -0.3062  1.4595
 7217TIP3   OH243065   5.815   5.688   6.203 -0.5635 -0.3954  0.3907
 7217TIP3    H143066   5.746   5.751   6.227 -0.6305 -0.6794  0.9581
 7217TIP3    H243067   5.893   5.743   6.189 -0.8840 -0.0797 -0.1967
 7218TIP3   OH243068   1.851   0.062   4.509  0.4751  0.1632 -0.2645
 7218TIP3    H143069   1.934   0.103   4.532  0.1592  0.1187  1.0351
 7218TIP3    H243070   1.827   0.012   4.588 -1.4178  1.2215 -0.1305
 7219TIP3   OH243071   3.137   0.500  13.606  0.1320 -0.5545 -0.0381
 7219TIP3    H143072   3.124   0.408  13.628 -0.0198 -0.9521 -1.6919
 7219TIP3    H243073   3.157   0.500  13.512 -0.4121  1.1451 -0.1807
 7220TIP3   OH243074   1.150   2.924  16.618 -0.1319 -0.3046 -0.3478
 7220TIP3    H143075   1.136   2.861  16.547  0.4300 -0.1140 -0.6408
 7220TIP3    H243076   1.063   2.958  16.639 -0.1688  0.6006 -1.8480
 7221TIP3   OH243077   6.021   0.250   5.500 -0.1262 -0.8693  0.3521
 7221TIP3    H143078   5.953   0.192   5.537 -1.2893  1.7809  2.7163
 7221TIP3    H243079   5.980   0.337   5.499  2.4235  0.4094 -0.5730
 7222TIP3   OH243080   0.723   4.899   4.065  0.2529 -0.2693 -0.0900
 7222TIP3    H143081   0.726   4.841   3.989 -0.0834  2.9336 -2.8190
 7222TIP3    H243082   0.634   4.933   4.066  0.7621  1.1197  0.5839
 7223TIP3   OH243083   6.709   3.860  10.721  0.2370  0.2486  0.0314
 7223TIP3    H143084   6.752   3.940  10.689 -0.1736  0.9675  1.1810
 7223TIP3    H243085   6.617   3.871  10.697  0.0453  0.4923  0.8401
 7224TIP3   OH243086   1.716   1.768  16.438 -0.5686 -0.5604 -0.2911
 7224TIP3    H143087   1.653   1.840  16.430  1.0567  0.8822 -0.7600
 7224TIP3    H243088   1.777   1.781  16.366  1.4583 -0.6323  1.2966
 7225TIP3   OH243089   2.524   4.295  16.943  0.1130 -0.0903  0.4890
 7225TIP3    H143090   2.588   4.232  16.978 -1.1747 -0.9283  1.4393
 7225TIP3    H243091   2.495   4.255  16.860  0.2986 -0.0669  0.4130
 7226TIP3   OH243092   5.611   0.188   0.648  0.1722  0.1648  0.0681
 7226TIP3    H143093   5.611   0.281   0.627  2.1590  0.1548 -0.0954
 7226TIP3    H243094   5.697   0.156   0.620 -1.1134 -2.1332 -1.6926
 7227TIP3   OH243095   5.195   4.416   5.824 -0.4713 -0.6707 -0.6400
 7227TIP3    H143096   5.108   4.413   5.864  0.2314 -0.2587  0.9850
 7227TIP3    H243097   5.215   4.510   5.818  0.8923 -0.7738  1.4140
 7228TIP3   OH243098   4.425   4.929   5.218  0.1543  0.6036  0.2361
 7228TIP3    H143099   4.465   4.931   5.306  1.1561 -0.1393 -0.1862
 7228TIP3    H243100   4.484   4.981   5.164  0.8875 -0.9323 -0.5099
 7229TIP3   OH243101   0.129   5.123  14.405  0.0085  0.0008 -0.3722
 7229TIP3    H143102   0.202   5.177  14.436  0.2053 -0.1667 -0.5383
 7229TIP3    H243103   0.126   5.049  14.466 -1.1385  0.8814  0.6888
 7230TIP3   OH243104   6.350   0.873  15.115  0.3117  0.6753  0.1516
 7230TIP3    H143105   6.426   0.816  15.128  0.0823  0.1593 -0.6777
 7230TIP3    H243106   6.340   0.920  15.198 -0.3504 -1.5235  1.3872
 7231TIP3   OH243107   2.886   3.976  16.868 -0.2352  0.1503  0.1302
 7231TIP3    H143108   2.976   3.978  16.836 -0.1951  1.0865  0.2745
 7231TIP3    H243109   2.864   3.883  16.874  0.7186 -0.0797  0.0936
 7232TIP3   OH243110   0.874   0.103   1.748 -0.4758  0.4941 -0.3305
 7232TIP3    H143111   0.893   0.113   1.655  0.3297 -2.0502 -0.4945
 7232TIP3    H243112   0.781   0.083   1.752  0.0814 -2.6115 -0.9497
 7233TIP3   OH243113   6.110   4.535  11.624  0.4188  0.8779 -0.4113
 7233TIP3    H143114   6.131   4.627  11.608 -0.3964  1.0870 -0.3284
 7233TIP3    H243115   6.147   4.488  11.549  1.3935  1.1825 -0.1417
 7234TIP3   OH243116   4.212   4.964  15.581  0.3522 -0.1358 -0.5704
 7234TIP3    H143117   4.137   4.904  15.575 -0.9771  1.5851 -3.2417
 7234TIP3    H243118   4.183   5.031  15.644  1.1252 -1.2562  1.0474
 7235TIP3   OH243119   6.338   1.685  16.354 -0.5004  0.2859  0.0339
 7235TIP3    H143120   6.312   1.701  16.445  0.1812 -0.8751  0.4603
 7235TIP3    H243121   6.362   1.771  16.320 -0.2317  0.6610  1.1333
 7236TIP3   OH243122   3.571   0.107  12.823  0.3521 -0.4178  0.5218
 7236TIP3    H143123   3.551   0.200  12.814 -0.2894 -0.6641 -0.9267
 7236TIP3    H243124   3.666   0.102  12.825  0.4011  0.4182  2.8419
 7237TIP3   OH243125   6.178   6.480  12.165 -0.6197 -0.4109  0.0020
 7237TIP3    H143126   6.189   6.564  12.120 -2.2882 -1.0614 -1.7426
 7237TIP3    H243127   6.237   6.421  12.120  0.7899 -0.1600  1.4356
 7238TIP3   OH243128   6.636   3.571  13.784  0.1588  0.0307  0.0303
 7238TIP3    H143129   6.560   3.574  13.724 -0.0234 -0.9865  0.2004
 7238TIP3    H243130   6.645   3.479  13.806  1.0889  0.2292  0.4913
 7239TIP3   OH243131   6.123   1.980  12.442  0.2212  0.3852 -0.1943
 7239TIP3    H143132   6.162   2.049  12.495  0.8803 -0.1244  0.0002
 7239TIP3    H243133   6.094   1.914  12.505  0.0350  0.2573 -0.4071
 7240TIP3   OH243134   3.980   6.063   1.989 -0.4365  0.3915  0.0668
 7240TIP3    H143135   4.051   6.002   2.008  0.8714  1.6329 -0.6744
 7240TIP3    H243136   4.007   6.146   2.030 -1.7184  0.7581  0.2321
 7241TIP3   OH243137   6.323   5.131   3.679  0.4192  0.0008 -0.0619
 7241TIP3    H143138   6.251   5.186   3.710  0.6527  0.1793  0.1704
 7241TIP3    H243139   6.291   5.092   3.598  0.2389  0.4531 -0.2085
 7242TIP3   OH243140   0.453   2.538   4.907  0.4886 -0.2064 -0.2940
 7242TIP3    H143141   0.521   2.471   4.912  2.3752  1.6332 -0.1132
 7242TIP3    H243142   0.371   2.488   4.907  1.7251 -2.4580  1.4581
 7243TIP3   OH243143   1.446   0.572   2.318 -0.2162  0.1291 -0.2818
 7243TIP3    H143144   1.415   0.572   2.409  2.8800  2.0364  0.9407
 7243TIP3    H243145   1.506   0.498   2.313 -1.7621 -1.1224 -1.4352
 7244TIP3   OH243146   5.045   0.296  13.991  0.1714 -0.5097 -0.0906
 7244TIP3    H143147   5.050   0.390  14.010 -1.6470 -0.0709 -1.4258
 7244TIP3    H243148   5.045   0.292  13.895 -0.1339 -1.8488 -0.0489
 7245TIP3   OH243149   0.357   2.167   5.802  0.1927 -0.2311  0.1417
 7245TIP3    H143150   0.327   2.158   5.893  3.5509 -1.6675  1.2562
 7245TIP3    H243151   0.397   2.083   5.782  0.4395  0.4152 -2.3640
 7246TIP3   OH243152   4.262   3.642   1.981 -0.4165  0.0161  0.4375
 7246TIP3    H143153   4.287   3.554   1.953  0.0901  0.2185  0.2388
 7246TIP3    H243154   4.175   3.631   2.019 -0.2101 -0.6342  0.7515
 7247TIP3   OH243155   4.170   4.020  14.355  0.0013 -0.0633  0.1982
 7247TIP3    H143156   4.117   4.051  14.281  0.1095  1.5711  0.7688
 7247TIP3    H243157   4.256   4.059  14.341  0.7063 -1.6122  0.0038
 7248TIP3   OH243158   0.033   2.079  16.860  0.5515 -0.3975  0.1714
 7248TIP3    H143159   0.125   2.054  16.847  0.6704  0.0159  0.2008
 7248TIP3    H243160   0.005   2.110  16.774  1.0350  1.3695  0.6207
 7249TIP3   OH243161   3.454   6.667  13.493 -0.1386 -0.5695  0.3148
 7249TIP3    H143162   3.517   6.735  13.467 -1.4955 -0.3040 -2.5803
 7249TIP3    H243163   3.495   6.625  13.569  2.4594  1.0365 -0.0719
 7250TIP3   OH243164   0.368   4.087  14.417  0.6186 -0.1385 -0.1829
 7250TIP3    H143165   0.368   4.130  14.332  1.5397  0.2810  0.0056
 7250TIP3    H243166   0.461   4.081  14.441  0.4072 -0.7374  0.5460
 7251TIP3   OH243167   4.615   5.474  16.893 -0.0265 -0.7765 -0.2978
 7251TIP3    H143168   4.533   5.425  16.908  0.6637 -2.1207 -0.7325
 7251TIP3    H243169   4.679   5.430  16.949  0.4266  0.1965 -0.0455
 7252TIP3   OH243170   4.598   4.499   3.608 -0.1008 -0.4681 -0.5242
 7252TIP3    H143171   4.558   4.487   3.521 -0.4942 -0.8165 -0.2949
 7252TIP3    H243172   4.543   4.564   3.651 -1.2572 -1.9575  0.3092
 7253TIP3   OH243173   3.721   0.139  13.228 -0.0685  0.5807  0.1461
 7253TIP3    H143174   3.783   0.084  13.179 -1.8362 -1.0727 -0.3554
 7253TIP3    H243175   3.736   0.116  13.320 -0.8054 -0.7967 -0.0634
 7254TIP3   OH243176   0.658   5.409  13.953 -0.1000 -0.4065 -0.4857
 7254TIP3    H143177   0.605   5.483  13.980 -0.4753 -0.9834  0.4127
 7254TIP3    H243178   0.748   5.433  13.976  0.0995  0.6489 -2.1846
 7255TIP3   OH243179   1.443   2.514   2.061 -0.4765 -0.4884  0.4459
 7255TIP3    H143180   1.455   2.586   2.123  1.8447 -0.5717  0.1731
 7255TIP3    H243181   1.527   2.468   2.062 -1.6459 -2.7406  0.0138
 7256TIP3   OH243182   3.631   4.309   1.179  0.6168 -0.2932 -0.3449
 7256TIP3    H143183   3.619   4.370   1.106  1.3983 -0.0349 -0.2662
 7256TIP3    H243184   3.644   4.365   1.256 -0.6455 -0.5630  0.0844
 7257TIP3   OH243185   2.077   3.957   5.722  0.3495  0.0113  0.5656
 7257TIP3    H143186   2.051   4.043   5.687 -1.8065 -0.8900 -0.2103
 7257TIP3    H243187   2.023   3.947   5.801  0.9869 -0.4204  0.9534
 7258TIP3   OH243188   3.756   4.119   5.564 -0.2659 -0.3089 -0.2831
 7258TIP3    H143189   3.725   4.075   5.485  0.0073 -0.9150 -0.0637
 7258TIP3    H243190   3.694   4.093   5.632  1.0166 -2.0588  0.3020
 7259TIP3   OH243191   3.774   0.994   6.518 -0.4925 -0.1273  0.2109
 7259TIP3    H143192   3.701   0.934   6.508 -0.3758 -0.3173  0.4845
 7259TIP3    H243193   3.852   0.938   6.519 -0.5442 -0.3602  3.6908
 7260TIP3   OH243194   2.734   0.239  16.488 -0.4734 -0.0468 -0.1945
 7260TIP3    H143195   2.773   0.152  16.481  0.1914  0.2331  0.0012
 7260TIP3    H243196   2.758   0.270  16.575  0.2897  0.8026 -0.6845
 7261TIP3   OH243197   2.484   0.609  14.255  0.0490  0.1739 -0.6289
 7261TIP3    H143198   2.445   0.570  14.333  0.2362  1.2136 -0.0034
 7261TIP3    H243199   2.561   0.656  14.287  0.2983  0.3633 -1.4816
 7262TIP3   OH243200   5.494   3.117  14.243 -0.0741  0.7921 -0.2129
 7262TIP3    H143201   5.448   3.200  14.234  1.4722  1.9829  1.9497
 7262TIP3    H243202   5.580   3.141  14.277  0.4693 -1.6864  0.3535
 7263TIP3   OH243203   2.782   2.230   4.373  0.3334  0.1124 -0.0178
 7263TIP3    H143204   2.812   2.221   4.463  2.2230 -0.4527 -0.6446
 7263TIP3    H243205   2.834   2.302   4.338 -0.7239  0.6441 -0.5358
 7264TIP3   OH243206   2.552   2.387   3.796 -0.2278  0.7244  0.3531
 7264TIP3    H143207   2.481   2.326   3.775 -0.5271  0.9021  0.8489
 7264TIP3    H243208   2.570   2.371   3.889  0.0923  0.9798  0.3336
 7265TIP3   OH243209   3.253   3.689  13.945  0.0348 -0.0341 -0.4895
 7265TIP3    H143210   3.298   3.605  13.930  1.7011  0.9895 -1.5702
 7265TIP3    H243211   3.213   3.710  13.860  1.1402  1.0711 -0.7740
 7266TIP3   OH243212   6.005   1.987   1.942  0.5461 -0.7038 -0.1846
 7266TIP3    H143213   6.027   2.033   1.861 -0.4586 -0.3842 -0.2900
 7266TIP3    H243214   6.035   2.045   2.012  0.6612 -0.5919 -0.3274
 7267TIP3   OH243215   3.428   3.904  12.541  0.3306  0.0700  0.0127
 7267TIP3    H143216   3.492   3.833  12.533  0.9593  0.3427  2.0478
 7267TIP3    H243217   3.384   3.906  12.456  2.0536 -1.0649 -0.9717
 7268TIP3   OH243218   2.708   0.161  13.726  0.0026  0.0264  0.9912
 7268TIP3    H143219   2.686   0.243  13.769 -1.2457 -0.8745  2.1690
 7268TIP3    H243220   2.632   0.105  13.741  0.2506 -0.9124 -0.9482
 7269TIP3   OH243221   1.281   5.218  17.223 -0.2629  0.1158  0.5287
 7269TIP3    H143222   1.327   5.254  17.299 -2.6916  0.9152  1.7273
 7269TIP3    H243223   1.189   5.218  17.248 -0.9302 -1.9457 -1.5165
 7270TIP3   OH243224   1.328   5.929  10.687  0.1560 -0.0996 -0.2062
 7270TIP3    H143225   1.402   5.931  10.627  0.9294  0.0656  0.7208
 7270TIP3    H243226   1.368   5.918  10.774 -0.9356 -0.5525  0.2557
 7271TIP3   OH243227   0.317   5.356   2.813 -0.1143 -0.6428 -0.4791
 7271TIP3    H143228   0.394   5.334   2.865  0.2373  1.0635 -0.2398
 7271TIP3    H243229   0.279   5.432   2.856 -1.0804 -0.5391 -1.4610
 7272TIP3   OH243230   4.222   3.216   2.736 -0.2562  0.1740  0.1548
 7272TIP3    H143231   4.299   3.262   2.769  0.6009  0.4663 -2.0671
 7272TIP3    H243232   4.224   3.131   2.779  2.6230 -0.6943 -1.4028
 7273TIP3   OH243233   1.699   5.441   0.978 -0.2919 -0.1795 -0.1151
 7273TIP3    H143234   1.791   5.459   0.959 -0.5618  0.6483 -0.6813
 7273TIP3    H243235   1.702   5.372   1.044  0.7577  0.9960  1.1249
 7274TIP3   OH243236   3.091   1.307  10.411  0.0645  0.3307 -0.0416
 7274TIP3    H143237   3.069   1.350  10.493  0.3041 -1.1847  0.8718
 7274TIP3    H243238   3.177   1.267  10.427 -0.4196 -1.0098 -0.5862
 7275TIP3   OH243239   5.789   1.955   2.654 -0.3566  0.1761  0.1450
 7275TIP3    H143240   5.806   1.862   2.640 -0.3368  0.1580  0.2957
 7275TIP3    H243241   5.711   1.957   2.709  0.4235  0.2271  1.2760
 7276TIP3   OH243242   6.221   1.324  17.223  0.0132  0.9984 -0.1085
 7276TIP3    H143243   6.203   1.248  17.169  1.3476  0.8602 -0.3975
 7276TIP3    H243244   6.275   1.291  17.294 -2.2104  1.0608  1.7224
 7277TIP3   OH243245   0.250   2.331   2.940 -0.4375  0.0029  0.4062
 7277TIP3    H143246   0.185   2.342   3.009 -1.3775  0.0343 -0.4783
 7277TIP3    H243247   0.206   2.280   2.872  1.0816 -1.7803  0.6479
 7278TIP3   OH243248   3.130   1.665  13.133  0.0181  0.4454 -0.6482
 7278TIP3    H143249   3.044   1.705  13.141 -0.0197  0.0702  1.1209
 7278TIP3    H243250   3.143   1.656  13.039 -1.4012  1.4959 -0.9847
 7279TIP3   OH243251   2.438   4.026  11.272  0.0291  0.2983 -0.2816
 7279TIP3    H143252   2.468   3.979  11.194 -0.4713 -0.1939 -0.1873
 7279TIP3    H243253   2.372   4.087  11.239 -2.3786 -1.9214  0.0459
 7280TIP3   OH243254   2.352   4.580  15.913 -0.1032  0.0850 -0.2332
 7280TIP3    H143255   2.436   4.627  15.919 -0.0509  0.4910 -2.8051
 7280TIP3    H243256   2.372   4.505  15.857 -0.7261 -1.7696  1.9439
 7281TIP3   OH243257   3.849   3.633  16.606 -0.4242 -0.6659 -0.7161
 7281TIP3    H143258   3.904   3.559  16.581  0.8849 -0.0589  0.2595
 7281TIP3    H243259   3.844   3.628  16.702 -1.2620 -0.1323 -0.7175
 7282TIP3   OH243260   1.841   5.713   1.772  0.1860  0.1072  0.1891
 7282TIP3    H143261   1.767   5.657   1.751 -0.5210  1.3679 -0.7877
 7282TIP3    H243262   1.908   5.689   1.708  1.4452 -2.3985  2.2420
 7283TIP3   OH243263   0.908   0.548  13.341 -0.1782 -0.2702  0.0364
 7283TIP3    H143264   1.003   0.538  13.332 -0.2355 -0.2618 -0.6945
 7283TIP3    H243265   0.887   0.504  13.423  0.1585 -2.4884 -0.9604
 7284TIP3   OH243266   2.775   1.535  14.863 -0.0954  0.9077 -0.0616
 7284TIP3    H143267   2.754   1.502  14.776  2.2398  2.0858 -1.1707
 7284TIP3    H243268   2.817   1.461  14.907 -0.4553  0.5832 -0.2550
 7285TIP3   OH243269   2.445   5.613  12.559 -0.0090 -0.1906  0.0949
 7285TIP3    H143270   2.469   5.703  12.581  1.6314 -1.0250  2.0980
 7285TIP3    H243271   2.519   5.560  12.590 -1.7169 -2.3943  0.7122
 7286TIP3   OH243272   3.574   1.745  14.047 -0.3835 -0.0039 -0.1529
 7286TIP3    H143273   3.486   1.729  14.012 -0.5942 -1.7236  1.0666
 7286TIP3    H243274   3.561   1.759  14.140  0.7200 -1.3305  0.2299
 7287TIP3   OH243275   4.733   3.230   5.004  0.5705 -0.3829 -0.1790
 7287TIP3    H143276   4.767   3.150   4.965  2.2850  0.9302 -1.5527
 7287TIP3    H243277   4.666   3.260   4.942 -0.3165 -0.8762  0.5051
 7288TIP3   OH243278   5.908   0.450  11.409  0.0899  0.1353  0.4141
 7288TIP3    H143279   5.928   0.424  11.499 -1.7828  3.0468  1.8594
 7288TIP3    H243280   5.817   0.479  11.412 -0.6263 -1.2843 -2.9132
 7289TIP3   OH243281   3.462   0.271  13.215  0.4146  0.0549  0.2416
 7289TIP3    H143282   3.515   0.194  13.194 -1.2615 -0.6337 -1.7829
 7289TIP3    H243283   3.469   0.328  13.139  0.5097  1.2982  1.1395
 7290TIP3   OH243284   6.089   3.854  13.966  0.5785  0.2451 -0.1228
 7290TIP3    H143285   6.154   3.924  13.961 -1.4051  2.1126 -1.4644
 7290TIP3    H243286   6.027   3.883  14.033 -1.4760  0.9982 -2.2037
 7291TIP3   OH243287   2.393   0.871   6.122 -0.2909 -0.0865  0.0461
 7291TIP3    H143288   2.345   0.950   6.146  0.3515  1.2010 -2.4906
 7291TIP3    H243289   2.340   0.830   6.054  0.5540 -0.4670 -0.4085
 7292TIP3   OH243290   2.846   4.228   4.124  0.3615  0.2976 -0.1197
 7292TIP3    H143291   2.884   4.217   4.210  0.4075 -0.2369 -0.2096
 7292TIP3    H243292   2.914   4.272   4.073  0.1271  1.1350  0.2685
 7293TIP3   OH243293   2.188   6.728  11.709 -0.8485  0.2529  0.1224
 7293TIP3    H143294   2.132   6.694  11.779  0.0457  0.2039  0.8413
 7293TIP3    H243295   2.158   6.683  11.630 -1.6725  0.0751  0.5254
 7294TIP3   OH243296   3.852   6.240  16.527 -0.5005 -0.2709  0.2589
 7294TIP3    H143297   3.904   6.197  16.459 -2.7244 -1.7265 -0.6842
 7294TIP3    H243298   3.855   6.333  16.505  1.6853 -0.2841  0.3152
 7295TIP3   OH243299   1.472   5.170   3.195 -0.2457 -0.7550 -0.4122
 7295TIP3    H143300   1.452   5.104   3.129  2.2468 -0.2090 -1.8442
 7295TIP3    H243301   1.488   5.250   3.145 -0.6751  0.3134  1.0855
 7296TIP3   OH243302   3.407   3.938  14.758 -0.4338 -0.7309 -0.1181
 7296TIP3    H143303   3.372   3.860  14.800 -0.2517 -0.8780 -0.2340
 7296TIP3    H243304   3.330   3.983  14.723 -0.8641  0.5892  2.3068
 7297TIP3   OH243305   3.143   6.201   5.205 -0.6457  0.2441 -0.2421
 7297TIP3    H143306   3.219   6.258   5.194  0.0627  0.0280  2.6452
 7297TIP3    H243307   3.167   6.120   5.162  0.5613  0.3622  0.1826
 7298TIP3   OH243308   3.576   1.068   5.599  1.2450 -0.1347  0.5224
 7298TIP3    H143309   3.509   1.135   5.614 -0.1119 -0.9995 -1.3083
 7298TIP3    H243310   3.549   0.994   5.653  0.4489 -0.6245 -0.5075
 7299TIP3   OH243311   6.654   2.595  16.413  0.5450  0.0877 -0.0528
 7299TIP3    H143312   6.616   2.627  16.331  2.2567 -0.9946 -1.3675
 7299TIP3    H243313   6.746   2.621  16.408  0.7417 -0.2705  1.3991
 7300TIP3   OH243314   3.294   0.219   0.969  0.1682  0.3069 -0.2599
 7300TIP3    H143315   3.242   0.142   0.992  1.2272  0.0255  1.3841
 7300TIP3    H243316   3.365   0.220   1.034 -1.3270  4.2181  1.5953
 7301TIP3   OH243317   1.124   1.636   2.507  0.2720 -0.0639 -0.1690
 7301TIP3    H143318   1.119   1.575   2.434  2.4163 -1.4339  0.7359
 7301TIP3    H243319   1.071   1.596   2.576 -0.1255  0.2396 -0.2902
 7302TIP3   OH243320   5.227   6.631   5.334  0.0356  0.1426  0.0459
 7302TIP3    H143321   5.186   6.640   5.420  1.0779 -1.9393  0.8317
 7302TIP3    H243322   5.297   6.697   5.334 -1.0531  1.3388  0.0575
 7303TIP3   OH243323   6.200   0.852   0.501 -0.4623  0.0483 -0.3720
 7303TIP3    H143324   6.132   0.853   0.434 -0.9328  0.1118  0.0986
 7303TIP3    H243325   6.259   0.923   0.475 -0.6352  0.0671 -0.7237
 7304TIP3   OH243326   5.876   4.173  16.148 -0.1869 -0.0851  0.2940
 7304TIP3    H143327   5.829   4.113  16.090 -0.0753  1.7662 -1.8402
 7304TIP3    H243328   5.808   4.221  16.193 -0.3699  0.8756 -0.9532
 7305TIP3   OH243329   0.587   3.620  16.525  0.2244 -0.1048 -0.1054
 7305TIP3    H143330   0.679   3.647  16.534  0.1093  0.5345 -0.7368
 7305TIP3    H243331   0.564   3.644  16.435 -0.9225  0.9087  0.4256
 7306TIP3   OH243332   1.916   4.695   5.353  0.0963 -0.1548 -0.1566
 7306TIP3    H143333   1.948   4.743   5.276  0.4218  2.4816  1.4842
 7306TIP3    H243334   1.847   4.751   5.388 -1.5197 -2.3403  0.3323
 7307TIP3   OH243335   5.126   1.565  10.670 -0.5175  0.1508  0.7041
 7307TIP3    H143336   5.147   1.648  10.714  0.5670  1.1599 -1.5582
 7307TIP3    H243337   5.204   1.511  10.681 -0.6568 -0.0159  0.8977
 7308TIP3   OH243338   1.595   6.354   1.965 -0.2660 -0.2493  0.7928
 7308TIP3    H143339   1.688   6.371   1.954  0.1769 -2.2337  1.2219
 7308TIP3    H243340   1.585   6.334   2.058 -1.4557  1.6910  1.1437
 7309TIP3   OH243341   4.981   2.103   1.031 -0.0947  0.5503  0.6405
 7309TIP3    H143342   4.994   2.009   1.027  1.6025  0.7668  0.2322
 7309TIP3    H243343   4.911   2.120   0.968  0.5747 -0.2899 -0.3586
 7310TIP3   OH243344   4.228   3.138   3.025 -0.2768  0.4396 -0.0991
 7310TIP3    H143345   4.321   3.115   3.021 -0.1318  1.1445 -1.1236
 7310TIP3    H243346   4.202   3.114   3.114  1.1018  1.0554  0.5161
 7311TIP3   OH243347   2.311   5.300  16.407 -0.0387 -0.3589 -0.4501
 7311TIP3    H143348   2.403   5.306  16.381  1.2213 -1.7611  3.0237
 7311TIP3    H243349   2.301   5.210  16.439 -2.5120 -0.0938 -0.2482
 7312TIP3   OH243350   4.847   0.138  12.219  0.1725 -0.3998 -0.1211
 7312TIP3    H143351   4.767   0.090  12.200 -0.4650  0.3773  0.5185
 7312TIP3    H243352   4.872   0.177  12.135 -0.3210 -0.3594 -0.2513
 7313TIP3   OH243353   0.001   3.912  15.037  0.0004 -0.7494 -0.1494
 7313TIP3    H143354   0.081   3.861  15.029 -0.6821 -1.7641 -0.5935
 7313TIP3    H243355  -0.066   3.849  15.061 -0.7130  0.0662  0.0637
 7314TIP3   OH243356   4.818   2.144   4.005 -0.1434  0.1228 -0.2460
 7314TIP3    H143357   4.842   2.217   3.947 -1.0118  0.8756  0.3080
 7314TIP3    H243358   4.817   2.067   3.948  0.1518  0.6530 -0.9842
 7315TIP3   OH243359   5.525   1.113   2.348  0.1214 -0.4831 -0.4239
 7315TIP3    H143360   5.524   1.107   2.443 -2.4322 -1.2765 -0.4320
 7315TIP3    H243361   5.494   1.201   2.329 -0.8751 -0.8310 -0.4894
 7316TIP3   OH243362   4.338   1.562   4.119  0.1288 -0.5248 -0.0296
 7316TIP3    H143363   4.314   1.515   4.039 -0.8693  0.3779 -0.2763
 7316TIP3    H243364   4.428   1.591   4.103  0.5737 -1.8561 -0.0862
 7317TIP3   OH243365   6.361   5.775  14.350  0.0025  0.1351 -0.2659
 7317TIP3    H143366   6.359   5.858  14.303  1.0820 -0.8963 -2.3022
 7317TIP3    H243367   6.325   5.712  14.288  1.7480 -1.3507  0.1231
 7318TIP3   OH243368   5.980   0.412   5.734  0.3602  0.0386 -0.1101
 7318TIP3    H143369   5.973   0.473   5.807  1.5384 -0.0179  0.0767
 7318TIP3    H243370   5.937   0.456   5.661  1.5175  1.2811 -0.0790
 7319TIP3   OH243371   5.084   4.137  11.457 -0.0988  0.7805 -0.1256
 7319TIP3    H143372   5.143   4.070  11.491  0.9738  2.2215  0.9622
 7319TIP3    H243373   5.009   4.135  11.517  0.3581  1.1685  0.4727
 7320TIP3   OH243374   1.630   0.250  11.510  0.1353  0.2487  0.1375
 7320TIP3    H143375   1.658   0.190  11.579 -0.2337  1.3420  1.2876
 7320TIP3    H243376   1.676   0.221  11.432 -0.2893 -1.7153  0.5821
 7321TIP3   OH243377   2.419   2.211   5.000  1.0016  0.0239  0.2498
 7321TIP3    H143378   2.455   2.187   5.085 -1.3888  1.1656  1.6793
 7321TIP3    H243379   2.341   2.156   4.990 -0.4175  1.9370  0.2329
 7322TIP3   OH243380   2.876   1.438  15.407  0.0027 -0.1863  0.2333
 7322TIP3    H143381   2.961   1.423  15.367 -0.5309 -0.6474 -0.7640
 7322TIP3    H243382   2.851   1.353  15.444  0.0738  0.0026  0.7204
 7323TIP3   OH243383   6.212   6.492  12.420  0.7223  0.0740  0.0401
 7323TIP3    H143384   6.202   6.487  12.325 -0.9900 -2.4344  0.2583
 7323TIP3    H243385   6.168   6.574  12.445  0.1408  0.1626 -1.2252
 7324TIP3   OH243386   3.644   2.450   5.513  0.0732  0.0565  0.7810
 7324TIP3    H143387   3.680   2.535   5.487 -0.1237  0.1486  0.8108
 7324TIP3    H243388   3.556   2.448   5.475  0.5465 -0.6814 -0.3519
 7325TIP3   OH243389   2.821   4.422   0.157  0.6152 -0.5480  0.5966
 7325TIP3    H143390   2.771   4.388   0.083 -1.4464 -0.0836  1.6672
 7325TIP3    H243391   2.890   4.475   0.118 -0.9054  0.3662 -1.0090
 7326TIP3   OH243392   3.406   5.064  14.804  0.4385  0.5920 -0.2535
 7326TIP3    H143393   3.353   5.000  14.851  1.7696 -0.8251 -0.6032
 7326TIP3    H243394   3.496   5.040  14.825  0.9909  1.6742 -1.2982
 7327TIP3   OH243395   6.604   4.400  16.221 -0.8218  0.0941  0.5233
 7327TIP3    H143396   6.631   4.481  16.179  2.7477 -0.8752  0.6900
 7327TIP3    H243397   6.572   4.427  16.307 -0.5100  1.3847  0.2527
 7328TIP3   OH243398   0.225   5.206   3.844 -0.3504  0.1689  0.1434
 7328TIP3    H143399   0.192   5.163   3.923 -1.5149  0.9849  0.1195
 7328TIP3    H243400   0.173   5.168   3.773  1.3034 -1.2295 -0.3828
 7329TIP3   OH243401   1.217   4.504  13.021  0.4989  0.1567  0.0407
 7329TIP3    H143402   1.311   4.498  13.005  0.0960 -1.1521 -2.2251
 7329TIP3    H243403   1.198   4.432  13.081  0.8608  0.0981  0.0894
 7330TIP3   OH243404   4.460   2.824  16.379  0.3090  0.4926  1.0198
 7330TIP3    H143405   4.416   2.879  16.444 -0.2134 -0.8849  1.8814
 7330TIP3    H243406   4.523   2.773  16.429  2.3228  1.7947 -0.0777
 7331TIP3   OH243407   5.830   1.392  16.193 -1.2110 -0.1705  0.2161
 7331TIP3    H143408   5.874   1.422  16.272  1.3784 -0.2502 -1.0956
 7331TIP3    H243409   5.837   1.466  16.132  2.3483 -1.9990 -1.9324
 7332TIP3   OH243410   5.255   2.010   1.302  0.7185  0.2698 -0.1387
 7332TIP3    H143411   5.247   1.915   1.306  0.1118  0.2930 -0.6507
 7332TIP3    H243412   5.240   2.032   1.210 -1.2049  1.0227  0.3004
 7333TIP3   OH243413   4.157   6.418  13.225  0.3740 -0.1446  0.0146
 7333TIP3    H143414   4.146   6.326  13.249  2.7958 -0.5287 -0.0532
 7333TIP3    H243415   4.220   6.416  13.153  0.1646  1.5471 -0.2521
 7334TIP3   OH243416   6.764   6.502  11.058  0.3789 -0.6614 -0.4504
 7334TIP3    H143417   6.785   6.512  10.965  1.7219 -0.4669 -0.1452
 7334TIP3    H243418   6.675   6.467  11.059 -0.0644  0.3195 -1.7927
 7335TIP3   OH243419   3.062   0.738  16.197 -0.1967  0.6300  0.4927
 7335TIP3    H143420   2.967   0.744  16.196 -0.1936  0.7171  0.6495
 7335TIP3    H243421   3.090   0.787  16.120 -0.4123 -2.0297 -1.4029
 7336TIP3   OH243422   2.173   3.723   5.661 -0.1938 -0.2231 -0.4451
 7336TIP3    H143423   2.155   3.816   5.673  0.4514 -0.3037  1.3361
 7336TIP3    H243424   2.088   3.680   5.673  0.0752 -0.1282  2.3244
 7337TIP3   OH243425   5.966   2.548   2.606  0.2919 -0.3674  0.2903
 7337TIP3    H143426   6.029   2.489   2.647  0.6608 -1.2352 -1.4181
 7337TIP3    H243427   5.902   2.566   2.674  0.5001 -2.2727  1.0540
 7338TIP3   OH243428   1.398   3.002  15.472  0.0407  0.0511 -0.5615
 7338TIP3    H143429   1.380   3.043  15.388 -0.5099 -1.2506 -1.1129
 7338TIP3    H243430   1.311   2.979  15.506  0.3166 -0.3900 -0.1466
 7339TIP3   OH243431   5.249   0.514   1.820 -0.0292 -0.2580  0.1960
 7339TIP3    H143432   5.230   0.470   1.903  0.0573 -0.9948 -0.1764
 7339TIP3    H243433   5.309   0.585   1.845  1.2999 -1.4483  0.5694
 7340TIP3   OH243434   4.471   2.141  12.547  0.5548  0.7008  0.5771
 7340TIP3    H143435   4.417   2.136  12.626  0.7972  1.4382  0.7964
 7340TIP3    H243436   4.536   2.208  12.567  0.3685  1.1871 -0.3971
 7341TIP3   OH243437   4.200   5.530  13.851  0.0465  0.3465  0.4654
 7341TIP3    H143438   4.232   5.531  13.761  0.7008 -0.6231  0.6762
 7341TIP3    H243439   4.105   5.533  13.842  0.0600 -0.7887 -0.3044
 7342TIP3   OH243440   4.277   2.031  13.808  0.4190 -0.2255  0.4025
 7342TIP3    H143441   4.355   2.041  13.862  2.6004 -1.1993 -2.2853
 7342TIP3    H243442   4.310   2.033  13.718 -2.6269 -1.1338 -0.8795
 7343TIP3   OH243443   4.839   0.847   4.462  0.0461 -0.6919  0.5858
 7343TIP3    H143444   4.913   0.800   4.423 -0.2023 -0.2770 -0.4337
 7343TIP3    H243445   4.869   0.872   4.549  0.4268 -2.1293  0.8886
 7344TIP3   OH243446   4.421   5.677   4.583  0.7478 -0.0706  0.1014
 7344TIP3    H143447   4.476   5.618   4.531  0.5557  0.3562 -0.5974
 7344TIP3    H243448   4.339   5.628   4.595 -0.0964  0.7306 -2.0254
 7345TIP3   OH243449   4.000   4.645  12.196  0.2317  0.5081  0.1327
 7345TIP3    H143450   3.914   4.608  12.175  0.9064 -1.6293  0.8995
 7345TIP3    H243451   4.060   4.604  12.135  0.8596  1.3327  0.1734
 7346TIP3   OH243452   3.448   5.103  13.155 -0.0459 -0.0021 -0.6835
 7346TIP3    H143453   3.462   5.191  13.190 -4.0070  1.3061 -1.8539
 7346TIP3    H243454   3.469   5.110  13.062 -0.5749 -0.1825 -0.8239
 7347TIP3   OH243455   0.442   5.233   5.509  0.2178 -0.3585 -0.2293
 7347TIP3    H143456   0.534   5.251   5.526 -0.0427 -0.9974  2.4143
 7347TIP3    H243457   0.443   5.158   5.449  1.4766 -1.2610  0.8532
 7348TIP3   OH243458   0.103   4.254   1.458 -0.2888 -0.0875 -0.0389
 7348TIP3    H143459   0.013   4.244   1.487 -0.2015 -0.6754  0.0366
 7348TIP3    H243460   0.104   4.337   1.410 -0.4038  1.0181  1.7748
 7349TIP3   OH243461   2.625   0.220  15.997 -0.1645  0.3939  0.2075
 7349TIP3    H143462   2.640   0.197  15.905  0.6418  0.0140  0.4152
 7349TIP3    H243463   2.543   0.176  16.020 -0.1224  0.0966 -0.2009
 7350TIP3   OH243464   4.604   2.978  14.509  0.3618 -0.1921  0.4533
 7350TIP3    H143465   4.619   3.036  14.584 -0.3747 -0.3768  0.7429
 7350TIP3    H243466   4.514   2.948  14.518  0.7482 -1.4501  0.3433
 7351TIP3   OH243467   4.041   3.616  13.111 -0.3792 -0.5160  0.0387
 7351TIP3    H143468   4.014   3.532  13.075 -0.1442 -0.6561  0.1888
 7351TIP3    H243469   4.075   3.665  13.036  0.3693 -0.9127  0.1130
 7352TIP3   OH243470   0.019   0.560   0.540  0.4740  0.2864  0.5250
 7352TIP3    H143471  -0.026   0.509   0.607 -1.7291  0.3539 -0.8098
 7352TIP3    H243472   0.112   0.541   0.554  0.0517 -0.2675  3.0823
 7353TIP3   OH243473   6.069   0.809   1.050 -0.4543  0.3217 -0.2802
 7353TIP3    H143474   5.986   0.856   1.048 -1.2711 -1.0565 -0.0505
 7353TIP3    H243475   6.113   0.841   1.129 -1.6176 -0.3171  0.6469
 7354TIP3   OH243476   2.595   1.024  11.304 -0.5304  0.7726  0.3674
 7354TIP3    H143477   2.571   0.937  11.336  0.9737  0.5154  0.8816
 7354TIP3    H243478   2.621   1.072  11.383  3.3877  0.0861 -0.2748
 7355TIP3   OH243479   3.653   3.094   1.529  0.0592  0.6537 -0.1033
 7355TIP3    H143480   3.605   3.030   1.476  0.1420  3.0952 -3.3949
 7355TIP3    H243481   3.591   3.165   1.544  0.9584  1.3327  0.5228
 7356TIP3   OH243482   1.304   1.616  15.059  0.2656  0.8917  0.3210
 7356TIP3    H143483   1.363   1.588  14.989  0.7910 -1.1908  1.5196
 7356TIP3    H243484   1.247   1.681  15.018 -1.9976 -2.8796 -3.2162
 7357TIP3   OH243485   4.113   6.373   4.030  0.2596  0.2984 -0.0473
 7357TIP3    H143486   4.152   6.455   4.062  0.8549 -0.0604  0.1611
 7357TIP3    H243487   4.178   6.306   4.051 -0.1277 -0.1984 -0.4172
 7358TIP3   OH243488   0.285   1.193  14.662 -0.3320 -0.6334  0.5910
 7358TIP3    H143489   0.333   1.250  14.602  0.2104 -0.7082  0.9413
 7358TIP3    H243490   0.344   1.119  14.676 -0.4176 -0.5870  1.2554
 7359TIP3   OH243491   2.401   1.741  16.640  0.0494 -0.1346 -0.4334
 7359TIP3    H143492   2.350   1.773  16.566  0.4522 -1.1094 -1.1498
 7359TIP3    H243493   2.335   1.710  16.703 -0.3025  1.0635 -0.2018
 7360TIP3   OH243494   2.755   4.211  13.426  0.2097  0.3305 -0.3234
 7360TIP3    H143495   2.718   4.152  13.492  1.4109 -0.8158 -0.6374
 7360TIP3    H243496   2.785   4.287  13.475 -1.0658  0.5635  0.1327
 7361TIP3   OH243497   0.310   6.143  11.371 -0.3113 -0.4952 -0.6167
 7361TIP3    H143498   0.262   6.091  11.435 -0.4978 -0.0950 -0.4284
 7361TIP3    H243499   0.357   6.208  11.423 -0.8801  0.1716 -0.9145
 7362TIP3   OH243500   1.985   0.595   0.026  0.3688  0.2892 -0.0608
 7362TIP3    H143501   1.965   0.562   0.114  0.9871 -0.4080 -0.1753
 7362TIP3    H243502   2.067   0.553   0.003 -0.9557 -1.4523 -1.9556
 7363TIP3   OH243503   3.829   3.075  13.782 -0.4833  0.2408 -0.2708
 7363TIP3    H143504   3.867   3.161  13.764 -0.8213  0.5322  0.4117
 7363TIP3    H243505   3.878   3.016  13.725  0.8940  0.6407  0.4552
 7364TIP3   OH243506   3.770   5.087   4.902  0.4148 -0.2829 -0.4419
 7364TIP3    H143507   3.780   5.136   4.983 -0.3576 -1.3613  0.3279
 7364TIP3    H243508   3.702   5.022   4.921  1.5534 -1.8045 -1.3492
 7365TIP3   OH243509   5.471   5.084  15.592 -0.3966 -0.0528 -0.0541
 7365TIP3    H143510   5.517   5.115  15.514  1.0159 -1.1407  0.3115
 7365TIP3    H243511   5.500   5.142  15.662 -1.2118  0.5544 -0.2032
 7366TIP3   OH243512   4.688   5.465  16.633  0.2247 -0.4213  0.4636
 7366TIP3    H143513   4.611   5.454  16.577  0.5446 -1.4313  0.1901
 7366TIP3    H243514   4.653   5.473  16.722 -0.2294 -0.1119  0.2563
 7367TIP3   OH243515   0.661   4.687  14.456  0.5121  0.0221 -0.7784
 7367TIP3    H143516   0.747   4.691  14.498  0.8164 -1.1434 -1.2488
 7367TIP3    H243517   0.653   4.596  14.427 -1.8344 -0.5446  1.2437
 7368TIP3   OH243518   0.829   4.121  12.711  0.2066 -0.1020 -0.4160
 7368TIP3    H143519   0.828   4.028  12.690 -0.7768 -0.7957  2.2979
 7368TIP3    H243520   0.901   4.131  12.774 -0.2118  0.8150 -0.0600
 7369TIP3   OH243521   0.681   2.473  13.945 -0.2472  0.1525 -0.0099
 7369TIP3    H143522   0.727   2.539  13.997 -0.8251 -1.7005  3.1028
 7369TIP3    H243523   0.589   2.482  13.970 -0.8364  0.2998 -2.0757
 7370TIP3   OH243524   1.440   3.230   6.377 -0.5515 -0.6752  0.5759
 7370TIP3    H143525   1.527   3.200   6.353  0.4261  0.5134  2.3960
 7370TIP3    H243526   1.385   3.152   6.370  1.1269 -2.0247  1.6541
 7371TIP3   OH243527   3.272   1.140  13.558  0.4229  0.1999  0.0582
 7371TIP3    H143528   3.334   1.185  13.615 -1.1647 -0.0863  2.0829
 7371TIP3    H243529   3.248   1.206  13.493 -0.5377  1.7881  1.9227
 7372TIP3   OH243530   5.967   2.577  12.385 -0.0539 -0.6364 -0.2450
 7372TIP3    H143531   6.062   2.581  12.373  0.2638  0.5552  2.1194
 7372TIP3    H243532   5.937   2.666  12.370 -1.2404 -1.4513 -3.4160
 7373TIP3   OH243533   4.411   6.018   5.781 -0.1932  0.4957  0.2324
 7373TIP3    H143534   4.467   6.095   5.787  0.3238  0.1026  0.4656
 7373TIP3    H243535   4.408   5.983   5.870  0.8224 -0.6219 -0.1399
 7374TIP3   OH243536   2.012   0.813   5.437  0.1214  0.2192  0.0793
 7374TIP3    H143537   2.092   0.861   5.458 -0.1679  0.3592  0.8904
 7374TIP3    H243538   2.016   0.800   5.342  0.3169  1.6600 -0.1289
 7375TIP3   OH243539   1.025   4.478  15.134 -0.1832 -0.7512 -0.4401
 7375TIP3    H143540   1.056   4.544  15.196 -2.5476 -0.5661  0.6636
 7375TIP3    H243541   1.104   4.447  15.090  1.1421  1.9443 -0.1522
 7376TIP3   OH243542   3.615   5.319  16.744 -0.2669  0.6611 -0.4715
 7376TIP3    H143543   3.627   5.291  16.653 -2.2527 -0.2010 -0.5079
 7376TIP3    H243544   3.554   5.391  16.739  0.6312  1.4852  0.1042
 7377TIP3   OH243545   1.614   3.218  14.861 -0.4339  0.2458 -0.0051
 7377TIP3    H143546   1.523   3.213  14.831  0.0553 -2.5795 -1.3277
 7377TIP3    H243547   1.664   3.171  14.794  1.7096 -0.1828  1.7768
 7378TIP3   OH243548   4.483   4.846   0.960 -0.8657 -0.1754  0.0998
 7378TIP3    H143549   4.547   4.871   0.893 -1.1765  1.5236  0.3795
 7378TIP3    H243550   4.485   4.751   0.961  0.4524 -0.1943 -1.0588
 7379TIP3   OH243551   2.170   4.614  11.590 -0.3238 -0.4671  0.6767
 7379TIP3    H143552   2.144   4.694  11.635 -0.7943  0.7389 -1.5928
 7379TIP3    H243553   2.088   4.566  11.576 -0.0678 -1.2885  1.8566
 7380TIP3   OH243554   2.760   2.855   4.371  0.1641 -0.6761  0.1880
 7380TIP3    H143555   2.682   2.863   4.427 -0.8812  3.0486 -1.5102
 7380TIP3    H243556   2.831   2.891   4.424  0.0719 -1.0760  0.5912
 7381TIP3   OH243557   3.980   5.673   6.041 -0.0835  0.0829  0.5820
 7381TIP3    H143558   3.901   5.634   6.004  0.6276  1.1829 -2.3896
 7381TIP3    H243559   3.964   5.767   6.038  0.5371  0.2574  2.0084
 7382TIP3   OH243560   3.965   2.878  12.878 -0.2861 -0.5448 -0.2608
 7382TIP3    H143561   3.986   2.810  12.942  0.6001  1.2359  1.4483
 7382TIP3    H243562   3.942   2.830  12.799  0.0004 -2.8222  0.9518
 7383TIP3   OH243563   6.380   4.204  14.809 -0.4143 -0.2836 -0.0314
 7383TIP3    H143564   6.303   4.253  14.781 -2.4951 -3.0728  0.2758
 7383TIP3    H243565   6.375   4.122  14.760  2.0068 -0.8488  0.5378
 7384TIP3   OH243566   3.316   3.155   6.729  0.2703 -1.0149 -0.3317
 7384TIP3    H143567   3.247   3.118   6.673  0.2250 -1.4131 -0.0176
 7384TIP3    H243568   3.381   3.188   6.668  1.1137 -3.1140 -0.6488
 7385TIP3   OH243569   2.842   2.012   1.024 -0.1182  0.3961  0.1187
 7385TIP3    H143570   2.937   2.007   1.015 -0.1628  0.4579 -0.4283
 7385TIP3    H243571   2.827   2.022   1.118  0.3682 -0.6932  0.3315
 7386TIP3   OH243572   1.420   3.251   0.693  0.0850  0.3602  0.5048
 7386TIP3    H143573   1.487   3.183   0.692 -0.0745  0.2045  0.0958
 7386TIP3    H243574   1.412   3.276   0.785  0.9444  0.6235  0.5135
 7387TIP3   OH243575   4.855   6.129  10.450  0.5247  0.5896  0.4916
 7387TIP3    H143576   4.786   6.071  10.484  1.6035 -0.8596  0.3412
 7387TIP3    H243577   4.841   6.213  10.494 -1.0778  0.2002  0.7600
 7388TIP3   OH243578   5.238   2.483   1.559  0.2924 -0.0258 -0.5423
 7388TIP3    H143579   5.228   2.389   1.576  0.1736  0.2056  0.7514
 7388TIP3    H243580   5.311   2.510   1.614  0.4407  0.6158 -1.0467
 7389TIP3   OH243581   5.927   3.721   1.479 -0.0749 -0.3902 -0.0429
 7389TIP3    H143582   5.883   3.684   1.402  0.3478 -0.5823 -0.1925
 7389TIP3    H243583   5.873   3.692   1.553 -1.0010  0.5434 -0.3142
 7390TIP3   OH243584   5.547   6.312   2.761  0.3816  0.0657  0.1475
 7390TIP3    H143585   5.521   6.326   2.670  0.7837  1.0596  0.1724
 7390TIP3    H243586   5.607   6.238   2.758 -1.4237 -1.4547 -0.0690
 7391TIP3   OH243587   0.124   0.119   4.134 -0.5516  0.1598 -0.3695
 7391TIP3    H143588   0.083   0.090   4.216 -0.1780 -1.0910 -0.6118
 7391TIP3    H243589   0.212   0.084   4.137  1.2031  4.0496  0.8321
 7392TIP3   OH243590   0.814   6.317  13.583  0.3476  0.3048 -0.0861
 7392TIP3    H143591   0.765   6.358  13.512  0.1769  0.6899  0.2429
 7392TIP3    H243592   0.855   6.240  13.544 -0.3065  0.1278 -0.4320
 7393TIP3   OH243593   0.163   3.564   3.742 -0.6132  0.0528  1.0599
 7393TIP3    H143594   0.226   3.492   3.746 -2.1907 -1.3280  2.8706
 7393TIP3    H243595   0.217   3.643   3.736  1.2504 -1.1098  1.7430
 7394TIP3   OH243596   5.398   5.237   2.770  0.0110 -0.1380  0.0140
 7394TIP3    H143597   5.357   5.211   2.687  0.9435 -1.2779 -0.1169
 7394TIP3    H243598   5.425   5.327   2.756 -3.3152  1.1019  0.4716
 7395TIP3   OH243599   6.689   6.578   4.014  0.0639  1.2027  0.5709
 7395TIP3    H143600   6.661   6.506   4.070  0.4389  1.5162  1.1775
 7395TIP3    H243601   6.611   6.602   3.964 -0.2511  0.8580  0.8918
 7396TIP3   OH243602   4.980   4.305   0.000  0.3991  0.1820  0.2370
 7396TIP3    H143603   4.985   4.387  -0.048  0.9954 -0.0622 -0.1238
 7396TIP3    H243604   5.066   4.297   0.042  0.6038 -0.6187 -0.3269
 7397TIP3   OH243605   5.242   2.179   5.770 -0.3576  0.1268 -0.8595
 7397TIP3    H143606   5.334   2.203   5.781 -0.2663 -0.1564 -1.0012
 7397TIP3    H243607   5.224   2.117   5.841 -0.3388 -0.0971 -1.0482
 7398TIP3   OH243608   3.582   1.601  15.083 -0.1444 -0.5475  0.6822
 7398TIP3    H143609   3.608   1.666  15.018  1.5691 -1.1403  0.7245
 7398TIP3    H243610   3.521   1.648  15.141 -0.6733  0.3517 -0.5571
 7399TIP3   OH243611   2.779   0.110  11.694 -0.0214 -0.0564 -0.0432
 7399TIP3    H143612   2.845   0.075  11.635 -0.9056 -2.1966  0.1398
 7399TIP3    H243613   2.806   0.081  11.781 -0.4505  0.2710  0.2078
 7400TIP3   OH243614   2.055   0.895  15.057 -0.0636  0.6683  0.0932
 7400TIP3    H143615   2.119   0.826  15.038  0.5248  1.3236 -0.3463
 7400TIP3    H243616   2.030   0.880  15.148 -0.0661 -0.2203 -0.0434
 7401TIP3   OH243617   5.543   6.507  17.025  0.3622 -0.1057  0.8578
 7401TIP3    H143618   5.481   6.449  16.980  1.5347 -0.5217 -0.2802
 7401TIP3    H243619   5.565   6.461  17.106 -1.1921  0.2977  1.5609
 7402TIP3   OH243620   6.200   5.776   5.322 -0.5830 -0.1249 -0.2546
 7402TIP3    H143621   6.173   5.821   5.242 -2.3351  0.5496  0.6545
 7402TIP3    H243622   6.216   5.686   5.296 -3.5716 -0.5324 -0.9727
 7403TIP3   OH243623   6.541   5.948  11.144  0.5998  0.8372 -0.4098
 7403TIP3    H143624   6.523   5.854  11.149 -0.5165  0.9815 -1.3773
 7403TIP3    H243625   6.534   5.978  11.235  0.2596  0.1081 -0.1811
 7404TIP3   OH243626   4.859   0.963   1.428  0.1407 -0.5479  0.1394
 7404TIP3    H143627   4.875   1.043   1.478 -1.1668 -0.1757  0.0057
 7404TIP3    H243628   4.901   0.979   1.343 -0.8975  0.4165 -0.2263
 7405TIP3   OH243629   2.564   5.778   1.916 -0.6486 -0.0907 -0.5038
 7405TIP3    H143630   2.578   5.700   1.862 -0.1295  0.5603 -1.3389
 7405TIP3    H243631   2.644   5.829   1.906  0.1059 -0.6036  2.0669
 7406TIP3   OH243632   0.227   4.390   3.236  0.1956 -0.2652 -0.2799
 7406TIP3    H143633   0.254   4.470   3.281  1.5472  0.0003 -1.4947
 7406TIP3    H243634   0.134   4.382   3.255 -0.2587  2.2713 -1.0946
 7407TIP3   OH243635   1.513   4.490  16.291  0.0091 -0.5708  0.3477
 7407TIP3    H143636   1.452   4.464  16.222 -1.4784  0.3572  1.2535
 7407TIP3    H243637   1.568   4.557  16.250  0.0767 -1.0364 -0.3366
 7408TIP3   OH243638   5.523   4.275  12.761  0.4444 -0.1134 -0.2989
 7408TIP3    H143639   5.472   4.319  12.829 -0.0846 -1.3637  0.1414
 7408TIP3    H243640   5.479   4.191  12.748  3.1392 -1.8942  1.1018
 7409TIP3   OH243641   4.694   2.935  12.114 -0.1650 -0.2322  0.4924
 7409TIP3    H143642   4.611   2.958  12.071  0.5515  1.9495  0.1470
 7409TIP3    H243643   4.668   2.889  12.194 -1.6765 -0.3318 -0.0260
 7410TIP3   OH243644   6.379   4.309   4.326 -0.0614  0.8270 -0.3294
 7410TIP3    H143645   6.395   4.388   4.275 -0.0341  0.4363 -0.9354
 7410TIP3    H243646   6.445   4.246   4.295  0.4781  0.8356  0.7577
 7411TIP3   OH243647   1.045   3.371  12.112  0.0082  0.6197 -0.1659
 7411TIP3    H143648   1.094   3.300  12.072  0.7252  1.2776 -0.4943
 7411TIP3    H243649   1.112   3.427  12.152 -0.6542  0.1827  1.6445
 7412TIP3   OH243650   0.606   3.646   1.755 -0.3195  0.2654 -0.2997
 7412TIP3    H143651   0.543   3.606   1.815  0.4876 -0.5141  0.0524
 7412TIP3    H243652   0.569   3.633   1.668 -0.0997 -1.2604 -0.1973
 7413TIP3   OH243653   6.650   1.997  15.978 -0.6414  0.0949  0.1756
 7413TIP3    H143654   6.577   2.052  15.947 -1.5172 -0.6451  0.8610
 7413TIP3    H243655   6.712   2.059  16.016 -1.5185  0.6454  0.7514
 7414TIP3   OH243656   3.441   2.163  14.302 -0.6254  0.6980 -0.2581
 7414TIP3    H143657   3.388   2.088  14.331 -0.2222  0.5195  0.0173
 7414TIP3    H243658   3.405   2.238  14.350 -1.4636  0.8119 -1.0197
 7415TIP3   OH243659   2.544   3.889   0.633  0.1841 -0.0605 -0.1157
 7415TIP3    H143660   2.450   3.875   0.618  0.2285 -0.0334 -0.4314
 7415TIP3    H243661   2.568   3.823   0.698 -0.2918  0.6580  0.8159
 7416TIP3   OH243662   4.126   1.809  11.835  0.0506 -0.0359  0.0046
 7416TIP3    H143663   4.127   1.737  11.897  0.7337  0.1061  0.1674
 7416TIP3    H243664   4.088   1.772  11.755 -1.5766 -0.0219  0.7170
 7417TIP3   OH243665   5.393   0.356  17.024 -0.1371 -0.4758 -0.5248
 7417TIP3    H143666   5.472   0.309  17.052 -0.4088 -0.8566 -0.3981
 7417TIP3    H243667   5.383   0.334  16.932  0.2985  0.1353 -0.7281
 7418TIP3   OH243668   0.228   6.515  14.471 -0.4439 -0.3420 -0.0840
 7418TIP3    H143669   0.221   6.449  14.402 -1.1173 -0.7906  0.4093
 7418TIP3    H243670   0.260   6.467  14.547  2.4107  0.5222 -0.5925
 7419TIP3   OH243671   6.294   5.730   3.094  0.6019 -0.4597 -0.0540
 7419TIP3    H143672   6.227   5.671   3.060 -0.2969 -0.1348  1.0936
 7419TIP3    H243673   6.276   5.814   3.054  0.6295 -0.4911 -0.1313
 7420TIP3   OH243674   5.183   3.650  12.041  0.0423 -0.0354 -0.0236
 7420TIP3    H143675   5.226   3.595  12.107  1.2475  1.0490  0.1539
 7420TIP3    H243676   5.206   3.610  11.958  1.8290  0.7142  0.0385
 7421TIP3   OH243677   3.454   1.728   2.611  0.3909 -0.3674  0.1414
 7421TIP3    H143678   3.429   1.635   2.606 -0.0160 -0.2073 -1.4016
 7421TIP3    H243679   3.379   1.770   2.652  1.2924 -0.9166  2.5522
 7422TIP3   OH243680   4.461   4.062   3.454 -0.1297  0.1495 -0.0489
 7422TIP3    H143681   4.424   4.087   3.369  0.2030  0.9373  0.0264
 7422TIP3    H243682   4.534   4.004   3.432  0.9906  1.6304 -0.4186
 7423TIP3   OH243683   4.349   4.418  15.187 -0.5738  0.0134  0.2051
 7423TIP3    H143684   4.384   4.394  15.101 -2.3760  0.6749 -0.7755
 7423TIP3    H243685   4.333   4.335  15.231  0.7562 -0.3231  0.0726
 7424TIP3   OH243686   3.666   5.296   6.716  0.3849 -0.2370  0.1626
 7424TIP3    H143687   3.620   5.378   6.699  2.7344  1.2073  0.2581
 7424TIP3    H243688   3.650   5.278   6.808 -0.0134  0.2262  0.1881
 7425TIP3   OH243689   0.107   5.487  13.463  0.2155  0.2975  0.6413
 7425TIP3    H143690   0.034   5.446  13.509 -0.5713  1.1723  0.2123
 7425TIP3    H243691   0.161   5.414  13.434 -1.8279 -0.5929 -1.2689
 7426TIP3   OH243692   1.882   1.212  16.655 -0.0895 -0.0585 -0.1734
 7426TIP3    H143693   1.818   1.142  16.666  0.6226 -0.4442  1.8395
 7426TIP3    H243694   1.834   1.292  16.676 -0.7986  0.0650 -2.0936
 7427TIP3   OH243695   5.388   1.689  14.176 -0.5122 -0.2227  0.2306
 7427TIP3    H143696   5.346   1.699  14.262 -0.9525 -1.4610  0.1947
 7427TIP3    H243697   5.470   1.643  14.195 -0.9388 -1.1369 -0.0558
 7428TIP3   OH243698   1.733   5.693  12.192 -0.1144  0.6152 -0.4063
 7428TIP3    H143699   1.781   5.765  12.153  1.8351  0.9103  2.2519
 7428TIP3    H243700   1.651   5.732  12.222  1.0458  1.8992  1.2816
 7429TIP3   OH243701   1.142   1.957  15.141 -0.3431 -0.4860  0.2783
 7429TIP3    H143702   1.178   2.026  15.197  1.3716 -1.7943  0.8809
 7429TIP3    H243703   1.216   1.929  15.086 -2.1174  1.3634 -3.4691
 7430TIP3   OH243704   2.899   2.707  11.896  0.4560 -0.4176 -0.0487
 7430TIP3    H143705   2.925   2.649  11.968  1.2560 -0.4069 -0.3148
 7430TIP3    H243706   2.835   2.766  11.935  3.3107  1.8277  1.6613
 7431TIP3   OH243707   6.541   2.060  15.046  0.0970 -1.0959  0.3467
 7431TIP3    H143708   6.525   1.993  15.112 -0.8101 -1.0031  0.2298
 7431TIP3    H243709   6.471   2.049  14.982  0.7179 -0.9073 -0.3817
 7432TIP3   OH243710   1.350   0.898  13.092  0.0111  0.0403  0.3065
 7432TIP3    H143711   1.376   0.968  13.033 -0.6415 -0.8498 -1.0834
 7432TIP3    H243712   1.372   0.818  13.045 -1.5321 -0.7019  0.7772
 7433TIP3   OH243713   4.950   4.760   5.468  0.1502  0.8917 -0.1421
 7433TIP3    H143714   4.996   4.697   5.524  1.3825  1.7179 -0.1951
 7433TIP3    H243715   4.860   4.759   5.501  0.8518  1.4204  1.9569
 7434TIP3   OH243716   1.890   5.475  11.735  0.6260 -0.1807 -0.4201
 7434TIP3    H143717   1.850   5.527  11.666 -1.4815 -0.9210  0.1665
 7434TIP3    H243718   1.843   5.500  11.815  0.5585 -1.8573  0.1151
 7435TIP3   OH243719   3.154   2.343   0.099 -0.4340  0.3328 -0.2527
 7435TIP3    H143720   3.121   2.260   0.134  1.4051  0.0756  1.0396
 7435TIP3    H243721   3.133   2.339   0.006  0.4882 -2.0933 -0.4557
 7436TIP3   OH243722   5.833   2.098  16.597 -0.2808 -0.2282  0.1174
 7436TIP3    H143723   5.793   2.165  16.653 -1.4447 -0.8110  0.0069
 7436TIP3    H243724   5.853   2.025  16.656  3.2642  1.0409  0.7443
 7437TIP3   OH243725   0.868   2.271   3.797  0.6361  0.3787  0.0569
 7437TIP3    H143726   0.955   2.305   3.820  1.0721  0.1744 -1.2064
 7437TIP3    H243727   0.848   2.311   3.713 -1.4192  2.0070  1.2374
 7438TIP3   OH243728   0.649   5.618  12.025  0.1583 -0.4560 -0.7926
 7438TIP3    H143729   0.679   5.706  12.049  0.0271 -0.5038 -0.4601
 7438TIP3    H243730   0.729   5.572  12.002  0.8899 -1.6703  3.4013
 7439TIP3   OH243731   2.690   2.808  13.108 -0.3482  0.5681  0.0492
 7439TIP3    H143732   2.634   2.884  13.120  0.3087  1.0453  0.1536
 7439TIP3    H243733   2.779   2.844  13.099 -0.3345  0.0451 -2.9620
 7440TIP3   OH243734   0.845   0.534  15.307  0.5969 -0.3871  0.4275
 7440TIP3    H143735   0.797   0.530  15.390 -1.1443 -2.4854 -0.5773
 7440TIP3    H243736   0.898   0.613  15.314 -0.2579  0.0648  3.1110
 7441TIP3   OH243737   6.466   5.523  15.449  0.1598  0.5394 -0.7027
 7441TIP3    H143738   6.534   5.573  15.403  0.9654  0.7874  0.7089
 7441TIP3    H243739   6.404   5.590  15.479  1.8970  0.9709  2.3075
 7442TIP3   OH243740   4.566   5.647  10.935 -0.2120  0.1636  0.8181
 7442TIP3    H143741   4.558   5.640  11.030  1.8569  3.0078  1.3188
 7442TIP3    H243742   4.659   5.634  10.918 -0.3962  0.6275 -0.7166
 7443TIP3   OH243743   0.516   5.896  15.601 -0.2055  0.1182 -0.4859
 7443TIP3    H143744   0.508   5.969  15.662  1.7614 -1.5543  1.9624
 7443TIP3    H243745   0.429   5.888  15.561 -1.4146  1.6776  1.6497
 7444TIP3   OH243746   5.097   5.067   0.218  0.4267  0.1481  0.5763
 7444TIP3    H143747   5.163   5.047   0.283  0.1954  0.7396  0.9972
 7444TIP3    H243748   5.120   5.013   0.142  0.6374 -0.6134  1.1797
 7445TIP3   OH243749   0.849   5.687   5.297 -0.2049 -0.2321 -0.6648
 7445TIP3    H143750   0.842   5.709   5.204 -0.5203  2.1189 -0.1545
 7445TIP3    H243751   0.904   5.755   5.334  0.6058 -1.5890  0.7685
 7446TIP3   OH243752   0.132   2.214   0.041 -0.1830  0.2495  0.1114
 7446TIP3    H143753   0.148   2.205   0.135  1.7836  0.7833 -0.1222
 7446TIP3    H243754   0.045   2.253   0.034  0.2472  1.6024  1.7668
 7447TIP3   OH243755   2.850   1.110   5.288  0.1274 -0.7291  0.2028
 7447TIP3    H143756   2.864   1.026   5.245  0.9872 -0.5844  0.1869
 7447TIP3    H243757   2.826   1.088   5.378  1.4330 -0.9835  0.5069
 7448TIP3   OH243758   5.502   3.070   1.887  0.5883  0.1614  0.3528
 7448TIP3    H143759   5.488   3.160   1.857  0.9458  0.1231  0.0529
 7448TIP3    H243760   5.563   3.079   1.961 -1.1894  0.3539  1.8575
 7449TIP3   OH243761   4.271   1.326   0.800  0.1792 -0.3259 -0.1436
 7449TIP3    H143762   4.315   1.347   0.718  0.4119  0.1191  0.0930
 7449TIP3    H243763   4.233   1.240   0.785  1.6424 -0.9959 -0.1336
 7450TIP3   OH243764   2.994   6.616   3.534 -0.1051 -0.3097 -0.0385
 7450TIP3    H143765   2.941   6.549   3.490  1.5345 -1.8810  0.2625
 7450TIP3    H243766   3.020   6.576   3.617  1.2264  0.5416 -0.0104
 7451TIP3   OH243767   1.349   3.558  17.126  0.2490  0.1059  0.0456
 7451TIP3    H143768   1.414   3.603  17.071  0.3952 -0.5594 -0.3427
 7451TIP3    H243769   1.401   3.501  17.183 -0.0155 -1.9283 -1.6017
 7452TIP3   OH243770   2.648   3.155  12.332  0.4101  0.4804  0.6937
 7452TIP3    H143771   2.623   3.242  12.299  0.4362  0.7011  1.2417
 7452TIP3    H243772   2.689   3.112  12.258 -1.0695  0.3235 -0.0785
 7453TIP3   OH243773   1.128   1.971   1.489  0.0377  0.3407  0.4150
 7453TIP3    H143774   1.077   1.989   1.410  0.5059 -0.6987 -0.1321
 7453TIP3    H243775   1.064   1.935   1.551 -0.1632  0.3323  0.2030
 7454TIP3   OH243776   0.739   1.274   6.430 -0.4591 -0.4346 -0.4677
 7454TIP3    H143777   0.768   1.365   6.437 -2.0891  0.0801  0.0584
 7454TIP3    H243778   0.675   1.264   6.500  1.1333 -2.6004  0.8104
 7455TIP3   OH243779   5.440   4.890  13.997  0.1130 -0.0281  0.1300
 7455TIP3    H143780   5.410   4.944  14.069 -0.2256  0.1931 -0.1726
 7455TIP3    H243781   5.496   4.947  13.945 -1.4517  0.5330 -1.0374
 7456TIP3   OH243782   0.883   2.253   0.835 -0.1995  1.0657  0.2896
 7456TIP3    H143783   0.856   2.169   0.873 -2.1719  1.2085 -0.6800
 7456TIP3    H243784   0.961   2.231   0.783  0.7874  0.3365  1.9635
 7457TIP3   OH243785   3.035   6.553  12.517  0.2632 -0.4217 -0.3924
 7457TIP3    H143786   2.947   6.586  12.499 -1.3562 -3.3575  1.4121
 7457TIP3    H243787   3.066   6.518  12.433 -1.2149 -1.2662 -0.6170
 7458TIP3   OH243788   2.999   6.107   1.966 -0.0657 -0.1952  0.0154
 7458TIP3    H143789   2.915   6.103   2.012 -0.3360  2.3031 -0.1144
 7458TIP3    H243790   2.998   6.033   1.906 -2.8411  0.5838 -1.0257
 7459TIP3   OH243791   5.393   3.795   3.332  0.3016  0.0075  0.4251
 7459TIP3    H143792   5.337   3.844   3.393  0.7742  1.4027 -0.2145
 7459TIP3    H243793   5.342   3.792   3.250 -0.0509 -1.2812  0.6678
 7460TIP3   OH243794   3.562   4.502  14.603 -0.0974 -0.1642  0.1095
 7460TIP3    H143795   3.476   4.497  14.645  0.3129  0.3622  1.0603
 7460TIP3    H243796   3.611   4.428  14.641 -0.3652 -0.9405 -1.0199
 7461TIP3   OH243797   5.345   1.203   0.142  0.1698  0.0411  0.0287
 7461TIP3    H143798   5.339   1.229   0.050  3.2632 -0.0820 -0.3221
 7461TIP3    H243799   5.340   1.108   0.140  0.9261 -0.0016 -0.1174
 7462TIP3   OH243800   1.194   2.777  14.289  0.3024 -0.2323  0.2711
 7462TIP3    H143801   1.200   2.714  14.361 -2.7386 -1.8323 -0.7066
 7462TIP3    H243802   1.183   2.862  14.332  1.4587 -0.7333  1.6319
 7463TIP3   OH243803   3.843   6.114   5.030  0.5527  0.6646 -0.4913
 7463TIP3    H143804   3.807   6.105   5.118  2.1438  0.6690  0.1918
 7463TIP3    H243805   3.921   6.169   5.041  0.2335  1.4961 -2.0621
 7464TIP3   OH243806   0.770   2.104   6.380  0.2297  0.4817 -0.0110
 7464TIP3    H143807   0.767   2.073   6.289  0.9795 -0.6819  0.3465
 7464TIP3    H243808   0.678   2.111   6.406  0.0313 -0.4439 -0.4347
 7465TIP3   OH243809   4.773   0.023   0.820  0.1136  0.6170  0.4867
 7465TIP3    H143810   4.726  -0.022   0.890  0.5679 -0.9413 -0.1746
 7465TIP3    H243811   4.707   0.077   0.777 -0.4559  0.5505  1.2622
 7466TIP3   OH243812   3.087   3.198   6.086 -0.4321  0.0514  0.1001
 7466TIP3    H143813   3.096   3.253   6.163 -2.0935  1.2589 -0.4977
 7466TIP3    H243814   3.029   3.248   6.028 -1.3135 -1.9411 -0.8358
 7467TIP3   OH243815   3.846   6.100   5.324  0.4460  0.5213  0.1066
 7467TIP3    H143816   3.773   6.148   5.364  0.3038  0.3495  0.0552
 7467TIP3    H243817   3.824   6.008   5.337 -1.1034  0.3266 -2.9369
 7468TIP3   OH243818   5.858   2.374   0.189  0.0269  0.1308  0.9007
 7468TIP3    H143819   5.897   2.410   0.269 -1.5160  2.2467  0.7659
 7468TIP3    H243820   5.926   2.386   0.122  0.9879 -0.8350  1.6602
 7469TIP3   OH243821   2.574   3.324  12.885  0.2681 -0.0428  0.4000
 7469TIP3    H143822   2.567   3.378  12.806 -0.9269  0.5780  0.9058
 7469TIP3    H243823   2.494   3.343  12.934 -0.2324 -2.3025  0.5764
 7470TIP3   OH243824   1.940   0.158   2.594  0.2539  0.5837 -0.1535
 7470TIP3    H143825   1.930   0.105   2.515  1.9431  0.2646 -0.2011
 7470TIP3    H243826   1.995   0.232   2.566  0.8922  0.4509  0.6997
 7471TIP3   OH243827   3.132   3.496  11.418  0.3019  0.4019  0.7183
 7471TIP3    H143828   3.100   3.578  11.457  1.2172  1.3612 -0.4541
 7471TIP3    H243829   3.227   3.501  11.428  0.8863  1.8577 -3.5517
 7472TIP3   OH243830   2.783   2.182  15.514 -1.0917 -0.9036 -0.2311
 7472TIP3    H143831   2.812   2.248  15.577 -0.5955  0.3150 -1.6892
 7472TIP3    H243832   2.707   2.220  15.472 -1.5014 -1.7705 -0.3011
 7473TIP3   OH243833   0.464   1.884  16.866  0.0671 -0.0325 -0.2652
 7473TIP3    H143834   0.432   1.832  16.941 -0.5121 -0.0638 -0.5307
 7473TIP3    H243835   0.558   1.891  16.881 -0.1029  0.3454  0.7082
 7474TIP3   OH243836   0.421   3.942   6.264  0.1250  0.2220  0.0299
 7474TIP3    H143837   0.414   3.972   6.355  0.5050 -0.0653  0.1573
 7474TIP3    H243838   0.378   4.011   6.213 -0.9473 -0.0871  0.5080
 7475TIP3   OH243839   6.261   1.912   2.740 -0.1155  0.0276  0.5380
 7475TIP3    H143840   6.265   1.855   2.663 -1.2914 -0.6701  0.9670
 7475TIP3    H243841   6.172   1.948   2.738  0.0237  0.4261  1.2811
 7476TIP3   OH243842   2.185   2.280   4.125  0.6180  0.2098 -0.9418
 7476TIP3    H143843   2.188   2.357   4.182 -2.0072 -0.6947  0.5885
 7476TIP3    H243844   2.179   2.315   4.037 -3.1051  1.9979 -0.1877
 7477TIP3   OH243845   3.257   6.383   5.725  0.2412  0.1005 -0.1045
 7477TIP3    H143846   3.308   6.382   5.806  0.9600 -0.7604 -0.5375
 7477TIP3    H243847   3.232   6.291   5.712  2.7504 -0.4097 -2.3977
 7478TIP3   OH243848   5.042   5.143  16.113 -0.0813  0.2659 -0.5965
 7478TIP3    H143849   5.015   5.118  16.201  2.0285 -1.5333 -0.3939
 7478TIP3    H243850   4.962   5.177  16.073 -0.6566  3.2284  2.6231
 7479TIP3   OH243851   5.353   3.410  12.083  0.4312  0.0974  0.4433
 7479TIP3    H143852   5.310   3.335  12.125 -0.5114  0.5782  0.3677
 7479TIP3    H243853   5.349   3.390  11.989 -1.3315  0.9687  0.2831
 7480TIP3   OH243854   3.033   3.813   3.896 -0.2238  0.0392  0.1312
 7480TIP3    H143855   2.950   3.802   3.850 -0.4275 -3.4055  1.0751
 7480TIP3    H243856   3.063   3.724   3.914  1.1491  1.0999  4.2845
 7481TIP3   OH243857   1.415   1.078   1.719 -0.6384 -0.1619  0.1437
 7481TIP3    H143858   1.416   1.154   1.778  1.9001 -0.4738  0.6254
 7481TIP3    H243859   1.425   1.003   1.777 -2.5497 -0.8772 -0.3812
 7482TIP3   OH243860   0.674   5.882  15.850 -0.1691  0.5011  0.0556
 7482TIP3    H143861   0.622   5.888  15.770  0.7798 -0.1420 -0.6386
 7482TIP3    H243862   0.640   5.805  15.895 -1.8387  1.8167  1.1461
 7483TIP3   OH243863   3.665   5.965  12.867  0.1961 -0.1386  0.6373
 7483TIP3    H143864   3.756   5.946  12.842 -0.1894 -0.9138 -0.2342
 7483TIP3    H243865   3.665   5.960  12.963  1.2019  0.5123  0.6918
 7484TIP3   OH243866   3.791   6.577  15.318 -0.2713 -0.2474  0.3430
 7484TIP3    H143867   3.856   6.616  15.260  0.2716 -1.1165  0.3551
 7484TIP3    H243868   3.712   6.571  15.264  0.1096 -0.6628 -0.1780
 7485TIP3   OH243869   6.740   4.247  13.686  0.1763 -0.7849 -0.4211
 7485TIP3    H143870   6.747   4.266  13.780 -0.4218  0.6617 -0.6431
 7485TIP3    H243871   6.688   4.319  13.651  2.7884  0.3360 -2.3559
 7486TIP3   OH243872   3.809   1.979   4.655  0.0938 -0.0722  0.3597
 7486TIP3    H143873   3.869   1.917   4.697  0.2263 -0.3289 -0.1934
 7486TIP3    H243874   3.759   2.016   4.727  0.3541 -0.4626  0.7506
 7487TIP3   OH243875   3.502   4.058  16.726 -0.4217  0.4154 -0.4560
 7487TIP3    H143876   3.478   4.019  16.809 -4.4807  1.5892 -0.8299
 7487TIP3    H243877   3.460   4.002  16.660  1.4125  0.3719 -1.6679
 7488TIP3   OH243878   3.555   0.101   3.802  0.7083 -0.1653 -0.2157
 7488TIP3    H143879   3.530   0.034   3.867 -2.4374  0.4171 -0.6846
 7488TIP3    H243880   3.561   0.182   3.853 -1.7398  0.2878 -0.5247
 7489TIP3   OH243881   4.243   3.116  14.921 -0.2092 -0.0089  0.0956
 7489TIP3    H143882   4.191   3.050  14.875  2.0616 -2.2434  0.5173
 7489TIP3    H243883   4.256   3.185  14.856 -2.5181  0.0333 -0.4162
 7490TIP3   OH243884   3.066   1.736   2.982 -0.0943 -0.1808  0.1999
 7490TIP3    H143885   3.138   1.776   3.031 -0.1088  1.4068 -0.9823
 7490TIP3    H243886   2.991   1.794   2.996 -0.3826 -0.2923 -0.7762
 7491TIP3   OH243887   0.707   3.206   4.868 -0.0091  0.3007  0.0177
 7491TIP3    H143888   0.717   3.119   4.831 -2.2451 -1.3855  2.9895
 7491TIP3    H243889   0.788   3.223   4.915 -0.4226 -1.2648  1.3653
 7492TIP3   OH243890   4.571   6.110   0.270 -0.0232 -0.2803 -0.9701
 7492TIP3    H143891   4.663   6.092   0.291 -0.1858  1.4709  1.7233
 7492TIP3    H243892   4.572   6.137   0.178  2.6291  2.2139 -0.3508
 7493TIP3   OH243893   0.465   2.432  12.707  0.0285 -0.0519  0.1695
 7493TIP3    H143894   0.404   2.359  12.714 -0.6214  0.4867  0.2646
 7493TIP3    H243895   0.465   2.454  12.614 -0.6575  0.5487  0.3022
 7494TIP3   OH243896   0.013   5.432  12.322 -0.5024  0.0545  0.2970
 7494TIP3    H143897   0.062   5.409  12.401 -0.5228  0.6292  0.4843
 7494TIP3    H243898   0.073   5.414  12.250 -0.1569  0.3808  0.5010
 7495TIP3   OH243899   1.594   4.952  11.282 -0.1838  0.2518  0.2317
 7495TIP3    H143900   1.609   5.023  11.220 -1.3223 -1.0633 -1.6375
 7495TIP3    H243901   1.643   4.878  11.247 -0.3382 -0.3568  1.2568
 7496TIP3   OH243902   2.885   5.683  11.563 -0.7882 -0.1625  0.0792
 7496TIP3    H143903   2.951   5.749  11.544 -1.2760  0.2284 -0.3009
 7496TIP3    H243904   2.851   5.708  11.649 -2.1939  1.1450 -0.8049
 7497TIP3   OH243905   5.568   2.750  11.264 -0.7521  0.0623 -0.1507
 7497TIP3    H143906   5.505   2.701  11.213 -0.5564 -0.8921  0.5039
 7497TIP3    H243907   5.558   2.718  11.354 -0.6453  1.2415  0.3078
 7498TIP3   OH243908   1.022   0.453  17.058  0.2143  0.2110  0.5289
 7498TIP3    H143909   0.999   0.398  16.983  1.3023  1.2018 -0.5813
 7498TIP3    H243910   1.117   0.456  17.056  0.2389  0.5315  1.7779
 7499TIP3   OH243911   6.696   4.668   3.087 -0.0438  0.3066 -1.3991
 7499TIP3    H143912   6.780   4.710   3.068  1.2997 -1.8318 -0.5940
 7499TIP3    H243913   6.664   4.637   3.002  1.6496 -1.6908 -1.3831
 7500TIP3   OH243914   1.702   4.727  14.569 -0.4250  0.1376 -0.3753
 7500TIP3    H143915   1.773   4.673  14.605  1.6480  2.5927 -0.4827
 7500TIP3    H243916   1.686   4.793  14.636 -2.0906  0.1093 -0.7185
 7501TIP3   OH243917   2.718   3.387   3.962 -0.3696 -0.0203  0.0465
 7501TIP3    H143918   2.764   3.303   3.968 -0.7697 -0.3240 -0.8638
 7501TIP3    H243919   2.769   3.438   3.900 -0.3187  0.2841  0.3354
 7502TIP3   OH243920   2.269   6.569  16.776  0.4776 -0.1681  0.4277
 7502TIP3    H143921   2.208   6.508  16.819  0.7134 -0.3037  0.5687
 7502TIP3    H243922   2.222   6.653  16.775 -0.7847 -0.8282 -1.7705
 7503TIP3   OH243923   4.270   0.781  12.842 -0.4467 -0.5150 -0.1843
 7503TIP3    H143924   4.285   0.735  12.759  2.7209 -0.8366  0.4448
 7503TIP3    H243925   4.311   0.866  12.829 -0.3144 -0.4072  0.9099
 7504TIP3   OH243926   3.456   3.100  16.177  0.0466 -0.3726 -0.0899
 7504TIP3    H143927   3.518   3.038  16.137  0.4807 -0.3050  0.4791
 7504TIP3    H243928   3.456   3.175  16.118 -0.3089 -0.8066 -0.6639
 7505TIP3   OH243929   1.747   4.620  16.631 -0.2812  0.0434 -0.3032
 7505TIP3    H143930   1.778   4.627  16.541  0.4970 -2.7841 -0.3647
 7505TIP3    H243931   1.653   4.601  16.622  0.0241 -1.4446 -0.6346
 7506TIP3   OH243932   2.304   4.077   3.790 -0.0331 -0.1994 -0.1048
 7506TIP3    H143933   2.314   4.034   3.875  0.2672  2.0127  1.0423
 7506TIP3    H243934   2.209   4.080   3.775 -0.1087 -0.1788  0.3780
 7507TIP3   OH243935   3.380   0.444   1.603  0.1955 -0.6625  0.0652
 7507TIP3    H143936   3.445   0.514   1.591 -3.1701  2.7559 -0.2849
 7507TIP3    H243937   3.374   0.402   1.517  1.1289 -0.2623 -0.2044
 7508TIP3   OH243938   3.552   6.552   2.233 -0.3040  0.1868  0.0602
 7508TIP3    H143939   3.560   6.597   2.317  1.2096  1.4005 -0.6797
 7508TIP3    H243940   3.640   6.520   2.214 -0.6021 -0.0291 -1.0678
 7509TIP3   OH243941   3.130   4.776   3.330 -0.5970  0.7732 -0.5929
 7509TIP3    H143942   3.128   4.750   3.238 -1.0864 -2.2002  0.1731
 7509TIP3    H243943   3.040   4.767   3.359 -0.2120  0.3729  0.5093
 7510TIP3   OH243944   4.437   3.252  11.098  0.0345  0.3918 -0.1292
 7510TIP3    H143945   4.384   3.199  11.038 -1.4367  1.1436  0.4615
 7510TIP3    H243946   4.415   3.219  11.185  1.2193  0.1447  0.1039
 7511TIP3   OH243947   5.140   2.437  16.576  0.2302  0.5300  0.2098
 7511TIP3    H143948   5.183   2.470  16.655  0.1842  0.3465  0.3124
 7511TIP3    H243949   5.068   2.498  16.560 -2.1837 -1.4582  2.5058
 7512TIP3   OH243950   3.058   2.084   2.388  0.4204 -0.4608 -0.5005
 7512TIP3    H143951   3.054   1.988   2.389  0.5017 -0.4624 -0.1716
 7512TIP3    H243952   3.025   2.108   2.302  2.7674 -0.8885 -1.5998
 7513TIP3   OH243953   6.320   3.425  15.496 -0.3206 -0.5301 -0.1745
 7513TIP3    H143954   6.332   3.368  15.572  0.3889 -0.9469 -0.5955
 7513TIP3    H243955   6.407   3.461  15.479 -0.4699 -0.4647 -0.8169
 7514TIP3   OH243956   2.820   3.218  16.145 -0.3100  0.3016 -0.3231
 7514TIP3    H143957   2.763   3.162  16.198  0.2234 -0.3284 -0.4072
 7514TIP3    H243958   2.848   3.163  16.072  0.1797  0.6877 -0.4334
 7515TIP3   OH243959   4.186   0.952  12.312  0.1996  0.0742  0.0400
 7515TIP3    H143960   4.167   0.975  12.221  0.3076 -2.5709 -0.7298
 7515TIP3    H243961   4.136   1.015  12.364 -0.0961  1.4534 -1.8160
 7516TIP3   OH243962   3.996   3.542  12.214 -0.1500 -0.3958 -0.0715
 7516TIP3    H143963   3.952   3.497  12.286 -0.5885  0.6943  0.3800
 7516TIP3    H243964   4.084   3.560  12.247 -0.7130  1.1566  0.7048
 7517TIP3   OH243965   2.739   4.155  12.776 -0.2839  0.7351  0.2931
 7517TIP3    H143966   2.817   4.209  12.788 -0.6163  0.8970  2.1621
 7517TIP3    H243967   2.682   4.179  12.850 -1.3229 -0.6772 -0.0010
 7518TIP3   OH243968   5.420   1.571  11.387  0.1791 -0.4286 -0.0084
 7518TIP3    H143969   5.389   1.647  11.337 -0.6965 -0.6892  0.1248
 7518TIP3    H243970   5.512   1.562  11.362 -0.4183 -1.0353 -2.2331
 7519TIP3   OH243971   5.250   6.491  10.775  0.3638 -0.5697  0.1422
 7519TIP3    H143972   5.291   6.568  10.814  2.0696 -1.4282  0.1192
 7519TIP3    H243973   5.158   6.496  10.803  0.0849  2.1385 -0.8996
 7520TIP3   OH243974   1.139   5.074  15.835  0.2518 -0.2600  0.8500
 7520TIP3    H143975   1.163   5.024  15.913 -0.9373 -0.1907  1.2863
 7520TIP3    H243976   1.109   5.009  15.772 -1.5303 -0.1445  1.5047
 7521TIP3   OH243977   1.337   6.707   4.141  0.6103 -0.7336 -0.3299
 7521TIP3    H143978   1.393   6.719   4.218  0.7952 -0.3188 -0.5275
 7521TIP3    H243979   1.277   6.781   4.144  0.5443 -0.7801 -0.5236
 7522TIP3   OH243980   3.816   0.566   3.968 -0.0279  0.3604  1.1055
 7522TIP3    H143981   3.900   0.529   3.996 -0.7448 -0.2058  2.6325
 7522TIP3    H243982   3.840   0.636   3.907  1.4959 -0.4803  0.6914
 7523TIP3   OH243983   2.349   6.298   5.511 -0.1867  0.1525  0.5960
 7523TIP3    H143984   2.332   6.238   5.438 -0.3807 -1.0294  1.5821
 7523TIP3    H243985   2.285   6.273   5.578  0.4296  0.7702  1.4322
 7524TIP3   OH243986   5.689   0.378   3.505  0.2522 -0.1373  0.4319
 7524TIP3    H143987   5.645   0.414   3.582  1.0253  1.4539  0.1639
 7524TIP3    H243988   5.621   0.370   3.439  0.1093  1.0601  0.4309
 7525TIP3   OH243989   4.727   5.343  12.783 -0.2869  0.1624 -0.0437
 7525TIP3    H143990   4.688   5.399  12.850  0.1518  1.1904 -0.6141
 7525TIP3    H243991   4.688   5.257  12.796 -1.6677  0.8222  0.2806
 7526TIP3   OH243992   6.621   3.626  12.641  0.0273  0.3586  0.3432
 7526TIP3    H143993   6.613   3.569  12.718 -0.2269  1.0083  0.8071
 7526TIP3    H243994   6.533   3.661  12.628  0.1232  0.4356 -0.1081
 7527TIP3   OH243995   3.627   4.516  15.346 -0.0832 -0.2181 -0.1637
 7527TIP3    H143996   3.697   4.490  15.405  1.9039  0.1069 -2.2382
 7527TIP3    H243997   3.613   4.609  15.364 -1.2162 -0.6634  1.4098
 7528TIP3   OH243998   4.675   3.473  14.708  0.3545  0.2403  0.0937
 7528TIP3    H143999   4.598   3.514  14.748  1.1119  0.9256  0.8959
 7528TIP3    H244000   4.727   3.547  14.676  0.4283 -0.2422 -0.9408
 7529TIP3   OH244001   0.503   3.217  12.847 -0.0659  0.0128 -0.0912
 7529TIP3    H144002   0.485   3.286  12.911 -0.4091 -0.1239 -0.0413
 7529TIP3    H244003   0.530   3.264  12.768  2.8666  0.1586  0.8794
 7530TIP3   OH244004   6.702   3.199  15.037  0.1394 -0.4088 -0.6546
 7530TIP3    H144005   6.731   3.243  15.116  0.3083 -0.1558 -0.8544
 7530TIP3    H244006   6.749   3.115  15.037 -0.4180 -0.7236 -0.1187
 7531TIP3   OH244007   1.329   2.848  13.290 -0.3174  0.1414  0.4227
 7531TIP3    H144008   1.371   2.840  13.376 -1.0741  0.5402  0.8416
 7531TIP3    H244009   1.360   2.932  13.256  0.3155 -0.2082  0.1053
 7532TIP3   OH244010   5.090   6.427   5.193  0.4992 -0.0495  0.2639
 7532TIP3    H144011   5.077   6.447   5.100  1.5828  0.5339  0.2270
 7532TIP3    H244012   5.111   6.512   5.233 -1.7541  0.0528  1.4044
 7533TIP3   OH244013   4.578   6.738   3.907  0.2807 -0.0371  0.5847
 7533TIP3    H144014   4.509   6.678   3.882  0.0304  0.9229 -1.1632
 7533TIP3    H244015   4.532   6.813   3.945  0.4901 -0.2040  1.1843
 7534TIP3   OH244016   1.477   3.720   1.368  0.5772  0.0229  0.2423
 7534TIP3    H144017   1.537   3.662   1.320  1.3904  0.2212  0.9764
 7534TIP3    H244018   1.447   3.667   1.441 -0.1873 -0.0871 -0.1488
 7535TIP3   OH244019   2.683   6.194  15.064  0.2246  0.2511  0.3494
 7535TIP3    H144020   2.645   6.244  14.992 -0.7657 -0.5256  0.3102
 7535TIP3    H244021   2.607   6.158  15.111  0.9020 -1.3254  0.2813
 7536TIP3   OH244022   3.134   4.978  15.167 -0.5472 -0.0744 -0.1969
 7536TIP3    H144023   3.085   5.030  15.231  0.9510  0.2709  0.7002
 7536TIP3    H244024   3.144   5.036  15.092  2.9576  1.9345  1.5538
 7537TIP3   OH244025   3.074   4.056   3.251  0.2188  0.3800  0.0978
 7537TIP3    H144026   3.123   4.023   3.176  0.6721  1.4243 -0.0823
 7537TIP3    H244027   3.003   3.993   3.264  1.5733 -1.1343  0.3472
 7538TIP3   OH244028   5.682   4.422   0.953 -0.4758 -0.2011  0.2157
 7538TIP3    H144029   5.692   4.454   1.043 -1.1267  4.4075 -1.0725
 7538TIP3    H244030   5.758   4.366   0.939  1.1288  1.0866  2.8875
 7539TIP3   OH244031   3.360   2.961  12.293  0.1038  0.9371 -0.1693
 7539TIP3    H144032   3.384   3.034  12.350 -3.0872 -0.0593  2.7901
 7539TIP3    H244033   3.370   2.884  12.348 -1.9760 -0.2300 -1.3047
 7540TIP3   OH244034   1.720   5.680   3.416 -0.3794  0.1972  0.5255
 7540TIP3    H144035   1.630   5.712   3.420 -0.1875  0.7930  0.2100
 7540TIP3    H244036   1.759   5.727   3.342 -0.2591 -1.2256 -0.3615
 7541TIP3   OH244037   1.157   2.958  13.583  0.4668 -0.0351  0.4721
 7541TIP3    H144038   1.152   2.878  13.532  1.0450  0.5075 -0.4822
 7541TIP3    H244039   1.251   2.981  13.582  0.3443  0.5153  0.9300
 7542TIP3   OH244040   4.968   0.002  16.773 -0.2236 -0.3939 -0.2229
 7542TIP3    H144041   5.019   0.000  16.854  0.5805 -0.4935 -0.7221
 7542TIP3    H244042   4.887  -0.045  16.794 -0.4255  0.3577  0.7753
 7543TIP3   OH244043   5.549   2.161  14.147  0.2441 -0.6416  0.2203
 7543TIP3    H144044   5.629   2.206  14.120  0.9084 -1.3350  0.9584
 7543TIP3    H244045   5.565   2.069  14.127  0.2216 -0.9842  1.6545
 7544TIP3   OH244046   4.854   5.261   1.255 -0.7369 -0.0239  0.8695
 7544TIP3    H144047   4.819   5.247   1.343 -0.0238  1.4084  1.4104
 7544TIP3    H244048   4.939   5.218   1.255 -1.6880 -2.0169  0.1043
 7545TIP3   OH244049   2.982   0.797   2.955  0.1084 -0.4773  0.3283
 7545TIP3    H144050   2.967   0.878   2.907 -0.8697 -1.3556 -0.8950
 7545TIP3    H244051   3.055   0.756   2.909 -0.4500 -1.0443 -0.0601
 7546TIP3   OH244052   1.096   4.419  16.250  0.0727  0.4037 -0.1517
 7546TIP3    H144053   1.025   4.392  16.191  0.4469 -0.1427 -0.3658
 7546TIP3    H244054   1.064   4.398  16.337 -0.6834  1.6650 -0.1097
 7547TIP3   OH244055   3.111   4.128  12.377  0.0374 -0.0176  0.1970
 7547TIP3    H144056   3.174   4.079  12.428 -0.0447 -2.3638 -1.7767
 7547TIP3    H244057   3.029   4.080  12.387 -0.2470  0.1526 -1.1213
 7548TIP3   OH244058   5.479   3.313  13.090 -0.9509  0.4926 -0.1793
 7548TIP3    H144059   5.570   3.338  13.107 -1.1261 -0.0330  1.7531
 7548TIP3    H244060   5.431   3.344  13.167 -1.8860 -1.8806  0.2754
 7549TIP3   OH244061   0.611   6.235  12.207  0.2461 -0.1574  0.3282
 7549TIP3    H144062   0.531   6.267  12.165  0.4741  0.3029  0.2315
 7549TIP3    H244063   0.585   6.154  12.250 -0.3025  0.0509  0.4023
 7550TIP3   OH244064   1.438   3.262   2.571  0.0051 -0.2461 -0.3179
 7550TIP3    H144065   1.489   3.181   2.573 -2.9448 -2.2336  1.1583
 7550TIP3    H244066   1.375   3.249   2.500 -1.9005 -0.2368  1.3107
 7551TIP3   OH244067   3.398   3.926  13.423  0.2083  0.2102 -0.2973
 7551TIP3    H144068   3.470   3.877  13.463  2.0172  0.2974 -3.1881
 7551TIP3    H244069   3.320   3.875  13.444  1.4901 -1.6044  0.3184
 7552TIP3   OH244070   1.388   6.256   3.456  0.0709  0.2892 -0.4583
 7552TIP3    H144071   1.361   6.317   3.525  2.4641  2.1598 -1.0517
 7552TIP3    H244072   1.316   6.259   3.393 -0.8678  0.7463  0.5773
 7553TIP3   OH244073   5.081   1.980   3.922  0.0281  0.1771 -0.8393
 7553TIP3    H144074   4.991   1.961   3.895 -0.1154  2.2885 -2.0729
 7553TIP3    H244075   5.119   2.028   3.848  1.4234  1.3227  0.5488
 7554TIP3   OH244076   4.090   3.543  14.231 -0.0801  0.3353 -0.3727
 7554TIP3    H144077   4.137   3.625  14.250  1.2920 -0.4818 -0.1318
 7554TIP3    H244078   4.045   3.522  14.313  0.7698  0.0787  0.0345
 7555TIP3   OH244079   2.820   2.727  14.708 -0.1135  0.1415  0.1551
 7555TIP3    H144080   2.795   2.757  14.621 -0.8712 -1.4369 -0.2062
 7555TIP3    H244081   2.767   2.649  14.723  0.4078  0.0628  1.8119
 7556TIP3   OH244082   2.325   0.353   4.055  0.4084 -0.0665  0.4292
 7556TIP3    H144083   2.380   0.285   4.017  0.9369  0.3975  0.3473
 7556TIP3    H244084   2.379   0.431   4.054 -0.0263  0.2535  0.9491
 7557TIP3   OH244085   4.772   0.628   3.952 -0.5136 -0.1229 -0.1607
 7557TIP3    H144086   4.681   0.599   3.966 -0.3142 -0.2738  0.9355
 7557TIP3    H244087   4.779   0.709   4.002 -0.0120 -0.1746 -0.1419
 7558TIP3   OH244088   4.464   3.801  15.534  0.4786 -0.1777  0.1507
 7558TIP3    H144089   4.380   3.760  15.514  0.3225  0.1711  0.0807
 7558TIP3    H244090   4.511   3.802  15.451 -0.2653  1.4945 -0.2942
 7559TIP3   OH244091   3.772   3.681  11.534 -0.3979  0.1670 -0.0002
 7559TIP3    H144092   3.818   3.650  11.611 -0.3368 -0.1542 -0.1666
 7559TIP3    H244093   3.685   3.707  11.567 -0.2535  0.3572  0.2337
 7560TIP3   OH244094   0.994   3.499  11.773 -0.2860 -0.4963  0.4406
 7560TIP3    H144095   1.012   3.548  11.853 -0.9281  0.3601  0.0848
 7560TIP3    H244096   0.930   3.553  11.726  3.1759  1.3062 -2.7273
 7561TIP3   OH244097   4.803   2.857   3.977  0.0735  0.2744 -0.0817
 7561TIP3    H144098   4.766   2.795   3.913 -1.9262 -0.1294  1.3553
 7561TIP3    H244099   4.774   2.942   3.946 -1.2697  0.0428  0.4578
 7562TIP3   OH244100   6.696   3.149  14.109 -0.2381 -0.4718 -0.1165
 7562TIP3    H144101   6.744   3.214  14.056  1.0498 -0.6696  0.7503
 7562TIP3    H244102   6.610   3.189  14.123  0.5898  1.1722  0.5762
 7563TIP3   OH244103   3.402   0.667   4.705  0.0262  0.2937 -0.2251
 7563TIP3    H144104   3.394   0.582   4.662  0.7690 -1.2382  2.3682
 7563TIP3    H244105   3.496   0.680   4.715 -0.1078  0.7019  0.6484
 7564TIP3   OH244106   3.087   0.106  16.082  0.9332 -0.3695  0.2381
 7564TIP3    H144107   3.036   0.081  16.005 -1.1033 -1.6741  1.9102
 7564TIP3    H244108   3.120   0.194  16.061 -1.3968  0.2573 -1.2703
 7565TIP3   OH244109   2.105   5.531   3.084  0.3683 -0.0689 -1.2473
 7565TIP3    H144110   2.163   5.497   3.016  1.2119 -1.1964 -0.0375
 7565TIP3    H244111   2.132   5.483   3.163 -2.1464 -0.5690 -0.6134
 7566TIP3   OH244112   2.713   0.042  14.767 -0.0212  0.4922 -0.3555
 7566TIP3    H144113   2.779   0.111  14.755  1.0132 -0.8172 -2.8771
 7566TIP3    H244114   2.764  -0.037  14.787 -0.9508 -0.2013 -0.6659
 7567TIP3   OH244115   5.892   4.433   2.431  0.1340 -0.3567  0.0843
 7567TIP3    H144116   5.842   4.436   2.350  0.5196 -1.3131 -0.2054
 7567TIP3    H244117   5.829   4.453   2.500 -0.0697  1.0971 -0.4852
 7568TIP3   OH244118   2.933   1.891  17.124  0.3718  0.0864  0.0559
 7568TIP3    H144119   3.008   1.843  17.090  0.5572  0.7090 -0.4324
 7568TIP3    H244120   2.864   1.879  17.059  0.0979 -0.3263  0.4121
 7569TIP3   OH244121   0.541   0.075   5.397 -0.0554  0.2040 -0.3973
 7569TIP3    H144122   0.516   0.020   5.323 -0.7742 -0.1159  0.0716
 7569TIP3    H244123   0.631   0.048   5.418  0.0596  0.1205 -0.9861
 7570TIP3   OH244124   0.355   6.319   0.690 -0.0962  0.2896  0.1724
 7570TIP3    H144125   0.367   6.329   0.596  1.3903 -0.1514  0.2777
 7570TIP3    H244126   0.316   6.233   0.701  0.9085 -0.2002  0.0045
 7571TIP3   OH244127   0.740   3.607   1.398  0.2442 -0.4230  0.1871
 7571TIP3    H144128   0.810   3.648   1.449  0.4675 -0.8111  0.1961
 7571TIP3    H244129   0.683   3.679   1.373 -0.2746 -0.2986  1.6116
 7572TIP3   OH244130   4.739   1.208  11.101 -0.4344 -0.2206  0.4819
 7572TIP3    H144131   4.655   1.245  11.129 -1.0026 -1.1758  0.1248
 7572TIP3    H244132   4.783   1.186  11.182 -0.0914  1.1816  0.6981
 7573TIP3   OH244133   2.949   3.011  11.695 -0.0888  0.1398  0.1153
 7573TIP3    H144134   2.879   3.051  11.747 -0.1450  0.1424  0.0382
 7573TIP3    H244135   2.970   3.077  11.629 -0.6367 -0.2140 -0.4262
 7574TIP3   OH244136   1.001   5.553  11.331  0.6981  0.0467  0.0591
 7574TIP3    H144137   1.044   5.474  11.297 -0.1641  0.0691 -1.2009
 7574TIP3    H244138   0.978   5.603  11.252  0.1696  0.9847  0.7845
 7575TIP3   OH244139   3.245   3.138   5.036 -0.0827 -0.3416  0.2071
 7575TIP3    H144140   3.155   3.154   5.010  0.3109  0.6102 -0.6353
 7575TIP3    H244141   3.268   3.054   4.996  0.4321  0.9636 -2.3999
 7576TIP3   OH244142   5.373   3.418  13.307  0.6567 -0.8061  0.4283
 7576TIP3    H144143   5.307   3.467  13.356 -0.2487 -0.7173 -0.8103
 7576TIP3    H244144   5.434   3.385  13.373  2.7076  3.8529  1.2710
 7577TIP3   OH244145   6.334   0.776  14.650  0.0947  0.0809 -0.0902
 7577TIP3    H144146   6.285   0.799  14.572  1.0651  1.7954 -0.2445
 7577TIP3    H244147   6.311   0.843  14.714  0.5320 -0.3705  0.5575
 7578TIP3   OH244148   2.041   2.750   2.202  0.2082  0.2923 -0.0576
 7578TIP3    H144149   2.130   2.767   2.232  0.2777 -0.4022  0.1518
 7578TIP3    H244150   1.990   2.740   2.282 -0.1995  1.3369 -0.1712
 7579TIP3   OH244151   0.242   4.121   0.502  0.0957 -0.5667 -0.1766
 7579TIP3    H144152   0.236   4.199   0.558  1.9759 -1.0415  0.7895
 7579TIP3    H244153   0.306   4.144   0.435 -0.5982 -0.7216 -0.9038
 7580TIP3   OH244154   0.975   5.586   6.107 -0.1917  0.1433 -0.1151
 7580TIP3    H144155   0.882   5.574   6.124 -0.1975  1.4877  0.9378
 7580TIP3    H244156   1.018   5.530   6.172 -0.2474 -0.1833 -0.3546
 7581TIP3   OH244157   4.560   3.355  12.022  0.3206  0.3805 -0.3839
 7581TIP3    H144158   4.580   3.290  11.955 -0.8275 -0.4771  0.0623
 7581TIP3    H244159   4.592   3.317  12.103 -0.9980  0.0198 -0.0121
 7582TIP3   OH244160   3.554   0.347   3.943 -0.0761 -0.2357  0.0088
 7582TIP3    H144161   3.474   0.348   3.890 -0.9954 -0.6991  1.3280
 7582TIP3    H244162   3.528   0.387   4.026  1.5972  1.4896 -0.2146
 7583TIP3   OH244163   1.797   0.249  13.091  0.6581  0.0443 -0.0725
 7583TIP3    H144164   1.852   0.217  13.162 -1.4538 -1.2614  1.1004
 7583TIP3    H244165   1.709   0.252  13.128 -0.0028  3.0028 -1.5440
 7584TIP3   OH244166   3.624   2.635  12.869 -0.0281 -0.4117 -0.2914
 7584TIP3    H144167   3.539   2.633  12.825 -0.9106 -0.3750  1.3138
 7584TIP3    H244168   3.627   2.720  12.913  1.2224 -0.0703 -0.9834
 7585TIP3   OH244169   1.139   3.316  16.512  0.2856 -0.5742  0.2713
 7585TIP3    H144170   1.151   3.261  16.434  0.0989 -1.4252  0.8346
 7585TIP3    H244171   1.141   3.255  16.585 -0.9110  0.0402  0.8496
 7586TIP3   OH244172   3.509   3.379  12.639  0.4234 -0.1447 -0.7607
 7586TIP3    H144173   3.493   3.327  12.718  2.0294 -0.1290 -0.3844
 7586TIP3    H244174   3.502   3.317  12.567 -1.6711 -0.0361 -0.6892
 7587TIP3   OH244175   6.055   1.432   4.829  0.0326  0.1930 -0.1615
 7587TIP3    H144176   6.000   1.394   4.760 -1.4070  2.4106 -0.3709
 7587TIP3    H244177   6.092   1.357   4.875 -0.2722 -1.3727 -2.3112
 7588TIP3   OH244178   3.310   1.238  16.006  0.2986  0.1126 -0.3306
 7588TIP3    H144179   3.295   1.329  16.030  0.9516 -0.1083  1.0329
 7588TIP3    H244180   3.227   1.194  16.024  0.0878  0.3725 -0.6601
 7589TIP3   OH244181   1.951   2.823  15.215  0.1844  0.1679  0.6905
 7589TIP3    H144182   1.890   2.817  15.288  0.4006  2.7978  1.1814
 7589TIP3    H244183   2.035   2.793  15.251 -0.0192  0.0531  1.0725
 7590TIP3   OH244184   1.176   2.584  12.032  0.0018 -0.2818  0.2414
 7590TIP3    H144185   1.190   2.521  11.961 -2.2085 -1.2569  0.5641
 7590TIP3    H244186   1.081   2.601  12.030  0.1650  1.0562  1.8280
 7591TIP3   OH244187   3.301   0.897   3.902 -0.5652  0.4999  0.4281
 7591TIP3    H144188   3.227   0.843   3.874  0.2402 -0.0957 -0.6316
 7591TIP3    H244189   3.357   0.837   3.951  0.5852  0.1889 -1.1789
 7592TIP3   OH244190   1.949   1.920  11.586 -0.2468  0.4564 -0.3803
 7592TIP3    H144191   1.959   1.861  11.512 -0.2672  0.1625 -0.1503
 7592TIP3    H244192   1.907   1.998  11.549  0.6727  0.7307 -0.8777
 7593TIP3   OH244193   2.451   4.844   0.530 -0.2578  0.0741  0.2647
 7593TIP3    H144194   2.486   4.923   0.487 -0.2566 -0.4042 -0.6355
 7593TIP3    H244195   2.360   4.841   0.503 -0.4079  0.0671  0.7630
 7594TIP3   OH244196   5.492   0.670  13.181 -0.0594  0.2758 -0.0917
 7594TIP3    H144197   5.525   0.749  13.138 -0.5366 -0.3103 -1.5647
 7594TIP3    H244198   5.570   0.628  13.216  0.4372  0.3856 -1.0384
 7595TIP3   OH244199   2.303   0.232   1.496 -1.3038 -0.3190 -0.4472
 7595TIP3    H144200   2.375   0.206   1.553  0.1581 -0.3587 -2.2108
 7595TIP3    H244201   2.320   0.324   1.477 -3.0357  0.3309  0.9114
 7596TIP3   OH244202   4.383   3.734  12.443  0.0527  0.0821 -0.2083
 7596TIP3    H144203   4.320   3.663  12.432 -0.2885  0.5860 -1.7303
 7596TIP3    H244204   4.463   3.691  12.474 -1.2570 -0.4521  2.8887
 7597TIP3   OH244205   1.908   1.135  12.017  0.1860 -0.1140  0.2921
 7597TIP3    H144206   1.951   1.051  11.999 -0.2865 -0.7369  1.8792
 7597TIP3    H244207   1.860   1.155  11.937  1.6407 -0.5018 -0.7231
 7598TIP3   OH244208   2.717   0.569  14.032 -0.3218  0.0429 -0.2310
 7598TIP3    H144209   2.811   0.556  14.032 -0.4595 -1.7818 -3.3132
 7598TIP3    H244210   2.681   0.488  14.067 -0.7659 -0.8229 -2.5375
 7599TIP3   OH244211   2.741   0.762   5.466  0.2601  0.3143  0.5174
 7599TIP3    H144212   2.730   0.857   5.464 -1.2874  0.1674  0.1624
 7599TIP3    H244213   2.717   0.734   5.378  0.9462 -0.3877  0.5495
 7600TIP3   OH244214   2.171   1.040   4.051 -0.4457  0.4146 -0.5229
 7600TIP3    H144215   2.139   0.958   4.013  0.5158 -0.6923  0.9451
 7600TIP3    H244216   2.113   1.107   4.016 -0.4947 -0.7097 -2.7508
 7601TIP3   OH244217   5.235   4.467  11.234 -0.0010 -0.3889 -0.4531
 7601TIP3    H144218   5.243   4.373  11.245  0.7552 -0.1944  0.9483
 7601TIP3    H244219   5.294   4.489  11.162  1.7312 -0.7071  0.8127
 7602TIP3   OH244220   0.464   3.839  15.357  0.3401  0.6586 -0.4001
 7602TIP3    H144221   0.498   3.823  15.269  2.3276  0.0750  0.4132
 7602TIP3    H244222   0.494   3.764  15.408 -0.4839  1.1606  0.8543
 7603TIP3   OH244223   3.822   3.902  16.557 -0.3003 -0.5786 -0.2024
 7603TIP3    H144224   3.853   3.973  16.613 -3.4216  0.2639  0.6450
 7603TIP3    H244225   3.866   3.824  16.592 -1.6688 -0.0143  3.1794
 7604TIP3   OH244226   5.546   5.096   5.378 -0.4203 -0.4065  0.6676
 7604TIP3    H144227   5.522   5.188   5.392  1.5603  0.3073 -0.2550
 7604TIP3    H244228   5.615   5.079   5.442  0.8738 -0.5007 -0.7035
 7605TIP3   OH244229   4.421   4.087   1.052  0.0912  0.2555  0.2546
 7605TIP3    H144230   4.449   4.029   0.981 -1.4577  0.2563 -0.4131
 7605TIP3    H244231   4.425   4.032   1.131 -0.4826 -0.5042 -0.2275
 7606TIP3   OH244232   4.889   0.155   0.090 -0.5878  0.2443  0.0040
 7606TIP3    H144233   4.856   0.131   0.177  0.1326  1.9982  0.8098
 7606TIP3    H244234   4.982   0.134   0.093 -0.7840 -0.7765 -0.7754
 7607TIP3   OH244235   1.942   3.931   1.742  0.0782  0.9524  0.2900
 7607TIP3    H144236   1.861   3.981   1.735 -1.0012 -0.7289  0.1552
 7607TIP3    H244237   1.935   3.884   1.825  0.9728  0.8781  0.3385
 7608TIP3   OH244238   1.805   1.297   2.344  0.3825 -0.1615  0.0826
 7608TIP3    H144239   1.867   1.342   2.401 -1.3895  2.2111  0.2508
 7608TIP3    H244240   1.771   1.365   2.287 -2.6680 -1.1843  0.5400
 7609TIP3   OH244241   6.539   4.368  15.480 -0.3627 -0.2173  0.0781
 7609TIP3    H144242   6.600   4.299  15.509  0.5056  0.0501 -1.0500
 7609TIP3    H244243   6.502   4.335  15.398  1.5407  1.4199 -1.5461
 7610TIP3   OH244244   2.630   4.127  15.960  0.0263  0.5179 -0.3030
 7610TIP3    H144245   2.578   4.049  15.939  1.8125 -1.1599  1.1554
 7610TIP3    H244246   2.717   4.108  15.926  1.0697  0.8896  1.9990
 7611TIP3   OH244247   0.974   4.813  11.489  0.1485  0.1455  0.3387
 7611TIP3    H144248   0.969   4.907  11.469 -2.4548  0.2361  1.0827
 7611TIP3    H244249   0.963   4.770  11.404  2.8363  0.4049 -0.2504
 7612TIP3   OH244250   5.842   1.602   5.936  0.4345 -0.1358  0.2571
 7612TIP3    H144251   5.832   1.509   5.952 -1.8445  0.1942  1.1258
 7612TIP3    H244252   5.912   1.630   5.994 -1.6313 -0.6091  3.1618
 7613TIP3   OH244253   6.299   0.729  12.367  0.2963 -0.1283 -0.2231
 7613TIP3    H144254   6.289   0.735  12.272 -2.2512  2.3927  0.0690
 7613TIP3    H244255   6.388   0.698  12.380  0.7486 -0.4665 -3.4330
 7614TIP3   OH244256   0.730   5.261  16.667  0.2830  0.0968 -0.0412
 7614TIP3    H144257   0.657   5.253  16.606  0.2878 -0.7940  0.0478
 7614TIP3    H244258   0.806   5.232  16.617  0.5583  0.8911 -0.0928
 7615TIP3   OH244259   3.304   5.269   4.879 -0.2310 -0.1624 -0.2105
 7615TIP3    H144260   3.218   5.303   4.853 -0.0169 -0.5531 -1.4885
 7615TIP3    H244261   3.285   5.211   4.953 -1.1235 -0.5297 -0.7093
 7616TIP3   OH244262   3.651   2.022  12.448  0.6396  0.0251 -0.2110
 7616TIP3    H144263   3.572   1.968  12.443  0.8834 -0.3671  0.1575
 7616TIP3    H244264   3.685   2.023  12.358  0.4074 -0.0867 -0.3024
 7617TIP3   OH244265   1.321   0.293  14.069 -0.5068 -0.2808  0.2137
 7617TIP3    H144266   1.285   0.349  14.000 -2.4160 -1.1273  0.4349
 7617TIP3    H244267   1.352   0.215  14.023  1.1467  0.4717  0.0168
 7618TIP3   OH244268   4.910   6.277  17.147  0.2850  0.1323  0.4034
 7618TIP3    H144269   4.912   6.372  17.158 -1.5844  0.2658 -0.0274
 7618TIP3    H244270   4.968   6.260  17.073 -0.6993  1.1711 -0.6705
 7619TIP3   OH244271   2.579   3.755   0.903  0.0818 -0.3497 -0.1192
 7619TIP3    H144272   2.618   3.823   0.959  0.1285  0.1660 -0.7605
 7619TIP3    H244273   2.537   3.695   0.964 -2.0735  1.5407  0.3956
 7620TIP3   OH244274   1.499   3.767   3.408  0.4896  0.0355 -0.4111
 7620TIP3    H144275   1.423   3.713   3.386 -0.9101  1.8079 -0.1841
 7620TIP3    H244276   1.490   3.785   3.501  0.4457  1.3052 -0.6403
 7621TIP3   OH244277   6.446   5.424   2.257  0.3113 -0.1533 -0.1004
 7621TIP3    H144278   6.393   5.347   2.279  1.3539 -0.8428  0.0591
 7621TIP3    H244279   6.456   5.419   2.162 -0.3015  0.2569 -0.1970
 7622TIP3   OH244280   5.427   5.139  11.342 -0.0072  0.2327  0.0893
 7622TIP3    H144281   5.487   5.199  11.386  0.4934 -0.5443  0.4766
 7622TIP3    H244282   5.353   5.131  11.402 -0.1474  0.5860 -0.0358
 7623TIP3   OH244283   3.162   3.631   5.738  0.3451  0.1270 -0.1616
 7623TIP3    H144284   3.104   3.556   5.749 -0.4775  0.5150 -1.5865
 7623TIP3    H244285   3.250   3.593   5.733 -0.0521 -0.7441 -0.8094
 7624TIP3   OH244286   5.390   4.542   4.986 -0.4816  0.6543  0.5914
 7624TIP3    H144287   5.383   4.609   4.919 -2.5107  2.6179  2.5957
 7624TIP3    H244288   5.308   4.493   4.981  0.6422 -1.2497 -0.3170
 7625TIP3   OH244289   0.151   4.750  15.261 -0.3735  0.4445  0.5390
 7625TIP3    H144290   0.209   4.739  15.187 -1.2914  1.4440 -0.3617
 7625TIP3    H244291   0.190   4.820  15.313  0.1936 -0.1611  0.9502
 7626TIP3   OH244292   5.051   6.375  11.148 -0.0328 -0.3312 -0.1445
 7626TIP3    H144293   5.037   6.302  11.208  1.7694 -0.5588  0.0555
 7626TIP3    H244294   5.146   6.384  11.144 -0.2061  2.5005  0.4293
 7627TIP3   OH244295   3.779   6.104  12.563  0.5484  0.0161 -0.1338
 7627TIP3    H144296   3.730   6.021  12.560  0.0321  0.3160 -0.1126
 7627TIP3    H244297   3.784   6.124  12.657 -0.6006  0.7487 -0.2185
 7628TIP3   OH244298   5.588   6.183  15.928  0.2861 -0.0761 -0.2669
 7628TIP3    H144299   5.583   6.265  15.880  3.3929  1.1498  1.2094
 7628TIP3    H244300   5.593   6.209  16.020  0.3747 -1.9653  0.3094
 7629TIP3   OH244301   5.819   4.201  13.833 -0.5519  0.6067  0.3885
 7629TIP3    H144302   5.870   4.269  13.876 -0.5312  0.9368 -0.1507
 7629TIP3    H244303   5.883   4.141  13.796 -0.4911  1.5141 -1.0953
 7630TIP3   OH244304   5.199   1.559  14.731 -0.4061  0.0364 -0.3360
 7630TIP3    H144305   5.267   1.590  14.672 -0.3443  0.5726  0.0200
 7630TIP3    H244306   5.242   1.491  14.784  0.6903  2.2989  1.8554
 7631TIP3   OH244307   6.349   5.038   5.197  0.3904 -0.4718  0.3939
 7631TIP3    H144308   6.268   5.004   5.160  1.1727 -1.3835 -0.5111
 7631TIP3    H244309   6.322   5.074   5.282 -0.8507 -1.3081  0.3887
 7632TIP3   OH244310   3.515   5.766  16.600  0.3462 -0.8773  0.6558
 7632TIP3    H144311   3.448   5.825  16.636  2.6979  1.7946  0.9759
 7632TIP3    H244312   3.507   5.775  16.505 -0.1482 -1.0639  0.6776
 7633TIP3   OH244313   2.009   4.004  12.070  0.5744  0.4799  0.4249
 7633TIP3    H144314   2.091   4.047  12.047 -0.1988  1.2153 -1.0662
 7633TIP3    H244315   1.944   4.043  12.012 -0.7339 -0.5058  1.1713
 7634TIP3   OH244316   3.174   2.617   2.930 -0.5504 -0.1586 -0.2106
 7634TIP3    H144317   3.154   2.575   2.845 -1.3191 -1.3075  0.5072
 7634TIP3    H244318   3.152   2.550   2.995  1.0374  0.3240  0.8689
 7635TIP3   OH244319   5.478   0.240  10.901  0.0499 -0.5627 -0.2035
 7635TIP3    H144320   5.482   0.164  10.958  0.6247  0.2652  0.9167
 7635TIP3    H244321   5.570   0.262  10.883 -0.0276  0.7471  0.7759
 7636TIP3   OH244322   3.360   6.466   4.729 -0.6361 -0.0572  0.2861
 7636TIP3    H144323   3.400   6.469   4.816 -0.1643 -1.0883  0.1179
 7636TIP3    H244324   3.434   6.471   4.668 -0.8454 -0.6988 -0.0360
 7637TIP3   OH244325   0.401   1.162  12.965 -0.6920 -0.3664  0.1639
 7637TIP3    H144326   0.468   1.166  12.896 -1.4063  0.6415 -0.5004
 7637TIP3    H244327   0.324   1.204  12.926 -1.4203 -0.6673  1.2441
 7638TIP3   OH244328   4.738   3.412   3.341 -0.2501 -0.6658  0.1299
 7638TIP3    H144329   4.653   3.438   3.378 -0.3420 -0.0331 -0.5091
 7638TIP3    H244330   4.741   3.318   3.354 -0.8800 -0.6416  0.5223
 7639TIP3   OH244331   2.521   0.849  15.986  0.0736 -0.3352 -0.1897
 7639TIP3    H144332   2.432   0.865  15.954 -0.0836  0.4560  0.5837
 7639TIP3    H244333   2.513   0.772  16.042  0.0986 -0.9380 -1.0060
 7640TIP3   OH244334   3.110   3.272   2.502 -0.1162 -0.4549 -0.3664
 7640TIP3    H144335   3.124   3.185   2.464 -1.9758 -0.9444 -0.0422
 7640TIP3    H244336   3.082   3.326   2.428 -1.4431 -0.8114 -0.1532
 7641TIP3   OH244337   2.683   0.956   0.959 -1.0821  0.7755 -0.1343
 7641TIP3    H144338   2.741   1.027   0.932 -0.5777  0.2684 -0.4227
 7641TIP3    H244339   2.600   0.975   0.916 -0.8969  1.1045 -0.3501
 7642TIP3   OH244340   3.426   2.007  16.719 -0.5359 -0.2761 -0.0819
 7642TIP3    H144341   3.378   1.986  16.799  0.6645  0.7224  0.9379
 7642TIP3    H244342   3.401   2.097  16.699 -1.3177 -0.7183 -1.2232
 7643TIP3   OH244343   6.683   4.962   4.377 -0.1233 -0.0403  0.2159
 7643TIP3    H144344   6.711   4.871   4.390 -0.4024  0.0259  1.3683
 7643TIP3    H244345   6.589   4.955   4.357 -0.2167  0.0192  0.6379
 7644TIP3   OH244346   1.869   0.806  11.949 -0.3276  0.7582  1.0708
 7644TIP3    H144347   1.808   0.805  12.022 -0.4851  0.3284  0.9367
 7644TIP3    H244348   1.828   0.750  11.883 -0.3970  1.5010  0.4799
 7645TIP3   OH244349   1.265   3.349   4.876  0.5735 -1.0365  0.3954
 7645TIP3    H144350   1.295   3.332   4.965  0.2718 -0.9657  0.5137
 7645TIP3    H244351   1.340   3.388   4.832  1.0294 -1.9642  0.3408
 7646TIP3   OH244352   4.177   2.183  17.056  0.3552 -0.3700 -0.2595
 7646TIP3    H144353   4.145   2.267  17.024  0.3208 -0.7039 -1.1213
 7646TIP3    H244354   4.195   2.198  17.149  0.6835  0.6841 -0.4803
 7647TIP3   OH244355   6.201   5.608  16.728 -0.1539  0.5062 -1.0581
 7647TIP3    H144356   6.207   5.639  16.818  0.6652  0.2701 -1.0259
 7647TIP3    H244357   6.138   5.667  16.686  0.3628  1.3678 -0.6472
 7648TIP3   OH244358   3.606   1.891  14.883 -0.6387  0.1244 -0.3275
 7648TIP3    H144359   3.693   1.887  14.923 -1.0269  1.0417  0.6368
 7648TIP3    H244360   3.588   1.984  14.873 -1.7802 -0.0372  0.0766
 7649TIP3   OH244361   1.688   2.364   6.612 -0.9695 -0.0007 -0.1756
 7649TIP3    H144362   1.720   2.296   6.553  0.7097 -0.8205  1.5300
 7649TIP3    H244363   1.740   2.441   6.590 -0.7749 -0.1287 -0.1676
 7650TIP3   OH244364   0.064   6.704  15.883  0.0406  0.2992 -0.0967
 7650TIP3    H144365   0.109   6.744  15.808 -2.1631  1.0983 -1.0664
 7650TIP3    H244366   0.024   6.625  15.847 -0.8772  0.5896  0.2657
 7651TIP3   OH244367   2.471   3.209  11.738  0.0743  0.2616 -0.3123
 7651TIP3    H144368   2.459   3.182  11.647  1.1065  0.6306 -0.5789
 7651TIP3    H244369   2.398   3.170  11.785  0.3742 -1.2387 -1.0372
 7652TIP3   OH244370   1.301   4.756   2.136  0.0449  0.2649  0.7972
 7652TIP3    H144371   1.280   4.692   2.204  0.2556  0.4459  1.0359
 7652TIP3    H244372   1.347   4.706   2.069 -0.2969  0.0557  0.7160
 7653TIP3   OH244373   2.451   1.837  13.875  0.4355  0.3909  0.3797
 7653TIP3    H144374   2.455   1.743  13.858  1.5370  0.5281 -0.2253
 7653TIP3    H244375   2.415   1.844  13.963  0.7182 -0.6160  0.5886
 7654TIP3   OH244376   0.826   0.987   4.672 -0.7190  0.0393 -0.2563
 7654TIP3    H144377   0.811   0.957   4.761 -1.4255  0.3572 -0.2574
 7654TIP3    H244378   0.911   0.950   4.647 -1.3994 -1.6743 -0.1475
 7655TIP3   OH244379   6.155   5.715   5.790  0.2866  0.5837 -0.0509
 7655TIP3    H144380   6.237   5.678   5.757  0.5171  2.1834 -1.4202
 7655TIP3    H244381   6.170   5.810   5.789 -1.8298  0.9708 -1.0640
 7656TIP3   OH244382   3.907   0.522   0.197 -0.5469 -1.0043 -0.4871
 7656TIP3    H144383   3.831   0.570   0.230 -0.7297 -0.5671 -1.5244
 7656TIP3    H244384   3.945   0.579   0.130  1.0558 -0.9437  0.4152
 7657TIP3   OH244385   5.516   5.183   4.072  0.1891  0.1988 -0.0375
 7657TIP3    H144386   5.530   5.269   4.110  0.0021 -0.1304  0.7965
 7657TIP3    H244387   5.426   5.186   4.038 -0.1715  0.0145  0.8765
 7658TIP3   OH244388   0.367   0.442  13.214  0.0428 -0.1605  0.4724
 7658TIP3    H144389   0.348   0.402  13.129  0.8557  0.6081 -0.0852
 7658TIP3    H244390   0.286   0.431  13.264 -0.9384  0.5918 -0.8777
 7659TIP3   OH244391   0.861   3.694  16.664  0.4104 -0.5913 -0.1695
 7659TIP3    H144392   0.874   3.738  16.748 -0.2602 -0.1806 -0.2763
 7659TIP3    H244393   0.867   3.764  16.599  0.8409 -0.8954 -0.4607
 7660TIP3   OH244394   4.332   1.491  16.851  0.4605 -0.1077 -0.3942
 7660TIP3    H144395   4.409   1.531  16.892 -1.0122  0.2036  2.2357
 7660TIP3    H244396   4.333   1.400  16.881 -0.1457 -0.1318 -0.4375
 7661TIP3   OH244397   3.005   5.496  10.804 -0.1083 -0.3049  0.6211
 7661TIP3    H144398   3.031   5.554  10.733 -0.3612  1.3661  1.8364
 7661TIP3    H244399   2.983   5.414  10.761  0.0655  0.5524 -1.1878
 7662TIP3   OH244400   4.947   1.848   0.895  0.1566 -0.0277 -0.3571
 7662TIP3    H144401   5.028   1.799   0.885 -0.4313 -1.1967  0.3462
 7662TIP3    H244402   4.898   1.799   0.961 -0.4771  1.5071  0.3502
 7663TIP3   OH244403   1.557   4.272  12.746  0.0490  0.4679 -0.4356
 7663TIP3    H144404   1.465   4.247  12.738 -0.0952  0.7863  0.1799
 7663TIP3    H244405   1.555   4.361  12.781  0.5943  0.2614  0.1348
 7664TIP3   OH244406   6.221   1.327   6.831  0.1980 -0.3127 -0.7481
 7664TIP3    H144407   6.213   1.422   6.843 -0.9540 -0.1742 -2.3144
 7664TIP3    H244408   6.166   1.308   6.755  0.4314 -2.2444 -0.4733
 7665TIP3   OH244409   2.369   5.330   4.291 -0.2004  0.2085  1.0903
 7665TIP3    H144410   2.411   5.376   4.218 -1.1721  2.2062  1.7045
 7665TIP3    H244411   2.362   5.239   4.261 -0.3114  0.8880 -1.1924
 7666TIP3   OH244412   4.383   5.672  15.389 -0.2740 -0.3956 -0.0671
 7666TIP3    H144413   4.439   5.721  15.328 -0.0929  0.4000  0.7292
 7666TIP3    H244414   4.322   5.737  15.423  0.2337 -0.6316  1.3204
 7667TIP3   OH244415   6.289   4.038  13.357 -0.3188  0.5487 -0.3707
 7667TIP3    H144416   6.229   4.104  13.324 -0.4438  1.2086  1.0729
 7667TIP3    H244417   6.323   3.994  13.279 -1.0663  1.5769 -1.3020
 7668TIP3   OH244418   0.529   2.820  14.662  0.9276 -0.0822 -0.4133
 7668TIP3    H144419   0.583   2.890  14.624  1.4799  0.3888  1.1863
 7668TIP3    H244420   0.584   2.742  14.656  1.8549  0.4032  1.2444
 7669TIP3   OH244421   3.125   4.138  15.799  0.2097 -0.3342  0.4693
 7669TIP3    H144422   3.153   4.127  15.708 -0.9832 -1.2157  0.1795
 7669TIP3    H244423   3.142   4.053  15.839  1.3197  0.2399  1.2613
 7670TIP3   OH244424   1.680   2.804  14.840 -0.0150  0.0630  0.0577
 7670TIP3    H144425   1.756   2.753  14.869 -0.1078 -0.5290 -0.6933
 7670TIP3    H244426   1.715   2.860  14.770 -0.4483 -0.9446 -1.0059
 7671TIP3   OH244427   1.537   4.576   3.071 -0.2341 -0.7361  0.1943
 7671TIP3    H144428   1.565   4.590   3.162 -0.9806 -0.9372  0.4646
 7671TIP3    H244429   1.450   4.537   3.079 -0.1629 -1.0658 -0.6110
 7672TIP3   OH244430   2.252   1.396  15.152 -0.5553 -0.3444 -0.4151
 7672TIP3    H144431   2.264   1.348  15.070 -2.3931 -1.8378  0.1022
 7672TIP3    H244432   2.240   1.328  15.218  1.3178  0.8108  1.2336
 7673TIP3   OH244433   3.004   1.550   2.786  0.4168 -0.1485  0.2759
 7673TIP3    H144434   3.040   1.464   2.805 -1.0023 -0.2624  2.8905
 7673TIP3    H244435   3.048   1.609   2.848  0.0717  0.6842 -0.2522
 7674TIP3   OH244436   5.868   0.596   0.704 -0.1768 -0.2079  0.5718
 7674TIP3    H144437   5.916   0.560   0.630 -1.8993  0.3544 -0.9018
 7674TIP3    H244438   5.923   0.667   0.736 -0.2580  0.8599 -1.4943
 7675TIP3   OH244439   5.196   4.362  13.118  0.1474 -0.1894  0.1298
 7675TIP3    H144440   5.176   4.317  13.036  0.8606  0.0450 -0.1857
 7675TIP3    H244441   5.252   4.301  13.166 -0.3754 -0.3809  0.5105
 7676TIP3   OH244442   0.126   5.913   6.332 -0.2723  0.0889 -0.0964
 7676TIP3    H144443   0.198   5.971   6.358 -0.9044  0.6334  0.4716
 7676TIP3    H244444   0.160   5.865   6.256  0.6020  0.5067  0.0213
 7677TIP3   OH244445   0.888   1.871  13.771  0.2994 -0.3241  1.0975
 7677TIP3    H144446   0.823   1.913  13.715 -0.6101 -2.7281  0.2159
 7677TIP3    H244447   0.866   1.900  13.860 -1.1542 -0.0391  0.6684
 7678TIP3   OH244448   6.469   4.739   0.351  0.4639 -0.4470  0.8309
 7678TIP3    H144449   6.420   4.807   0.396 -0.2838 -1.0529  0.9478
 7678TIP3    H244450   6.409   4.707   0.283  2.6503  2.8279 -3.1210
 7679TIP3   OH244451   4.046   6.397  11.659 -0.1752 -0.3127 -1.0969
 7679TIP3    H144452   3.964   6.348  11.656  0.5548 -1.7114  0.4348
 7679TIP3    H244453   4.035   6.460  11.730  0.0559 -0.4812 -0.9089
 7680TIP3   OH244454   2.859   2.535  14.346 -0.2314  0.3907 -0.2426
 7680TIP3    H144455   2.926   2.542  14.278  0.9315 -4.5314 -0.0046
 7680TIP3    H244456   2.777   2.536  14.298  0.3186  1.1091 -1.2082
 7681TIP3   OH244457   4.016   0.087   0.389 -0.0245  0.0096 -0.2874
 7681TIP3    H144458   4.101   0.104   0.429  1.1263  0.1436 -2.6003
 7681TIP3    H244459   3.955   0.145   0.434  1.0781 -0.0824  1.4087
 7682TIP3   OH244460   0.928   5.135  13.380 -0.4236  0.2947  0.6755
 7682TIP3    H144461   0.887   5.152  13.295 -1.2209  0.1783  1.0303
 7682TIP3    H244462   0.899   5.208  13.436  0.3826  0.5671  0.7631
 7683TIP3   OH244463   1.496   2.407   3.136  0.6941 -0.3380 -0.5814
 7683TIP3    H144464   1.592   2.413   3.138  0.6275  2.0039 -1.2991
 7683TIP3    H244465   1.468   2.439   3.222  0.5557 -1.1102 -0.3374
 7684TIP3   OH244466   2.011   1.848   4.036 -0.2019 -0.1520 -0.3385
 7684TIP3    H144467   2.045   1.822   4.122 -0.4041 -0.5476 -0.3721
 7684TIP3    H244468   2.026   1.942   4.031 -1.0205  0.0395  0.5174
 7685TIP3   OH244469   4.197   0.480   6.602  0.1519 -0.3056 -0.7451
 7685TIP3    H144470   4.249   0.470   6.522 -0.3285 -0.7973 -0.9999
 7685TIP3    H244471   4.162   0.392   6.619  0.4652 -0.2685  0.1564
 7686TIP3   OH244472   1.955   1.786  17.260 -0.1364 -0.2973 -0.2169
 7686TIP3    H144473   2.023   1.846  17.291 -1.6232  1.5567 -0.4167
 7686TIP3    H244474   1.903   1.837  17.198 -0.8947 -2.0953 -1.1505
 7687TIP3   OH244475   1.394   1.933  12.969  0.0942  0.6876 -0.0039
 7687TIP3    H144476   1.340   1.855  12.979  1.6991 -0.7976 -2.1497
 7687TIP3    H244477   1.458   1.928  13.040 -1.2369  1.3931  1.3105
 7688TIP3   OH244478   2.909   2.913  10.729 -0.0633  0.3258 -0.4771
 7688TIP3    H144479   2.954   2.926  10.812 -0.2998 -0.3173 -0.2454
 7688TIP3    H244480   2.970   2.948  10.663  0.7192 -0.3905 -0.1556
 7689TIP3   OH244481   0.078   6.164   0.930  0.1160  0.0745 -0.1444
 7689TIP3    H144482   0.098   6.166   0.837 -0.0923  0.8768 -0.1820
 7689TIP3    H244483  -0.003   6.113   0.937 -2.1209  3.1933 -0.8901
 7690TIP3   OH244484   5.054   3.028   1.632  0.0705 -0.5684  0.0607
 7690TIP3    H144485   5.128   3.009   1.690  0.8013  1.4043 -0.1379
 7690TIP3    H244486   5.065   2.967   1.559  0.7222 -1.2215  0.6826
 7691TIP3   OH244487   2.269   4.332  15.709  0.0303 -0.3408  0.1306
 7691TIP3    H144488   2.268   4.237  15.717 -0.7369 -0.4961 -1.5125
 7691TIP3    H244489   2.358   4.353  15.681 -0.1506 -0.7147 -0.7551
 7692TIP3   OH244490   2.003   4.958   1.551  0.1576  0.3314 -0.0101
 7692TIP3    H144491   2.095   4.984   1.540  0.1269  1.1571  1.3851
 7692TIP3    H244492   1.991   4.886   1.490  1.5358  0.6821 -0.7430
 7693TIP3   OH244493   4.470   1.190   0.313 -0.1474 -0.0707  0.0339
 7693TIP3    H144494   4.563   1.208   0.316 -0.2790  0.5335  2.0156
 7693TIP3    H244495   4.455   1.129   0.386 -1.7151  2.3247  1.8828
 7694TIP3   OH244496   5.766   5.732   5.081  0.3242  0.0358 -0.0548
 7694TIP3    H144497   5.809   5.784   5.149  1.1687 -0.8536  0.1164
 7694TIP3    H244498   5.679   5.771   5.072  0.3740  0.4734  1.1922
 7695TIP3   OH244499   2.162   2.525   5.057  0.2232  0.1135  0.3258
 7695TIP3    H144500   2.231   2.582   5.093  0.1219  1.4123 -1.3732
 7695TIP3    H244501   2.102   2.586   5.014 -1.8765 -1.0134  1.5116
 7696TIP3   OH244502   4.840   0.861   5.493 -0.6435  0.9125 -0.4699
 7696TIP3    H144503   4.760   0.880   5.542 -0.3429 -1.2566  0.9971
 7696TIP3    H244504   4.911   0.887   5.552 -0.2580  0.8503 -0.9012
 7697TIP3   OH244505   4.596   5.138   2.719 -0.1266 -0.8766  0.0050
 7697TIP3    H144506   4.658   5.209   2.735 -1.7406  0.4872  0.5472
 7697TIP3    H244507   4.547   5.166   2.642 -0.0090 -1.9997 -0.4967
 7698TIP3   OH244508   6.655   3.623  14.335  0.4015  0.3354  0.3649
 7698TIP3    H144509   6.683   3.688  14.270  0.3313  0.9106  0.8949
 7698TIP3    H244510   6.736   3.581  14.363  0.7651  1.7935  1.6819
 7699TIP3   OH244511   0.277   3.070   4.732 -0.7542 -0.1690  0.3564
 7699TIP3    H144512   0.306   2.985   4.766 -0.5755 -0.2096  0.1093
 7699TIP3    H244513   0.337   3.088   4.660 -1.1651 -0.1208  0.0188
 7700TIP3   OH244514   1.941   6.010   5.591  0.1160 -0.3369  0.3260
 7700TIP3    H144515   2.029   6.008   5.554  0.7215 -1.1833  1.7295
 7700TIP3    H244516   1.947   6.076   5.660 -0.4147 -0.2553  0.2957
 7701TIP3   OH244517   3.610   3.843   5.809  0.0224 -0.3354 -0.4707
 7701TIP3    H144518   3.566   3.848   5.894 -0.2497  0.4095 -0.6443
 7701TIP3    H244519   3.572   3.915   5.758  0.3642 -0.6163 -1.1365
 7702TIP3   OH244520   6.152   3.450  16.990  0.0148  0.2327  0.1302
 7702TIP3    H144521   6.080   3.438  16.929 -0.6350  1.4053  0.6281
 7702TIP3    H244522   6.123   3.520  17.048 -1.0171 -3.1745  4.2257
 7703TIP3   OH244523   1.867   1.440   4.060 -0.1105  0.3671 -0.5701
 7703TIP3    H144524   1.823   1.355   4.048  2.6566 -1.3403  0.3326
 7703TIP3    H244525   1.923   1.449   3.984 -1.7872  2.4520 -1.6517
 7704TIP3   OH244526   2.674   0.210  15.160 -0.3077  0.1783 -0.1851
 7704TIP3    H144527   2.596   0.187  15.110  0.7390 -1.5776 -1.1128
 7704TIP3    H244528   2.720   0.273  15.104 -0.2532 -0.0599 -0.4129
 7705TIP3   OH244529   2.980   3.553  14.976 -0.0350  0.5393  0.2635
 7705TIP3    H144530   2.989   3.629  15.034 -0.4134  1.0095 -0.2862
 7705TIP3    H244531   3.010   3.479  15.029 -1.4931  0.7707  1.4798
 7706TIP3   OH244532   3.125   2.075  11.205 -0.0679  0.1139  0.3467
 7706TIP3    H144533   3.189   2.058  11.136  0.5665 -0.2507  1.0046
 7706TIP3    H244534   3.134   2.001  11.265 -2.4959 -1.0168 -0.5304
 7707TIP3   OH244535   6.736   4.380   3.311 -0.1472 -0.1683 -0.3288
 7707TIP3    H144536   6.717   4.430   3.391 -1.1516 -2.2244  0.8127
 7707TIP3    H244537   6.669   4.407   3.249 -0.1700  0.4852 -0.0355
 7708TIP3   OH244538   6.564   2.736  16.179 -0.4522  0.0439 -0.2744
 7708TIP3    H144539   6.565   2.732  16.084 -1.2233  0.6185 -0.3214
 7708TIP3    H244540   6.544   2.827  16.199 -0.8778 -0.1910  0.4271
 7709TIP3   OH244541   0.532   2.043  14.849 -0.0371  0.3629 -0.7220
 7709TIP3    H144542   0.600   2.066  14.785  0.7188 -1.0528 -0.4784
 7709TIP3    H244543   0.472   2.117  14.848  0.5574  0.8706 -2.2604
 7710TIP3   OH244544   3.040   0.655  11.729  0.0330 -0.6497  0.5250
 7710TIP3    H144545   3.111   0.640  11.666 -0.8061  1.0991 -0.9390
 7710TIP3    H244546   3.075   0.722  11.788 -0.5075  0.5969 -0.5096
 7711TIP3   OH244547   0.900   6.469  14.901 -0.2733 -0.1997  1.0730
 7711TIP3    H144548   0.869   6.548  14.858 -1.5308 -0.1097  2.0767
 7711TIP3    H244549   0.994   6.466  14.882 -0.3075  1.2406  0.5793
 7712TIP3   OH244550   5.730   0.403  16.784  0.0021  0.7234 -0.3400
 7712TIP3    H144551   5.799   0.417  16.849 -2.2787  0.2603  2.3658
 7712TIP3    H244552   5.718   0.489  16.744  2.2724  0.7538 -1.0968
 7713TIP3   OH244553   4.373   5.905  11.267 -0.0094  0.3677  0.1509
 7713TIP3    H144554   4.332   5.840  11.210  3.4836 -2.8047  0.8720
 7713TIP3    H244555   4.418   5.964  11.207 -0.0021 -0.2821 -0.4998
 7714TIP3   OH244556   2.019   0.539   2.600  0.6299 -0.2279  0.3676
 7714TIP3    H144557   1.932   0.548   2.561  0.1381 -1.6378  1.0524
 7714TIP3    H244558   2.020   0.603   2.671 -0.9336 -2.0135  2.1159
 7715TIP3   OH244559   2.444   3.634   1.155 -0.5363 -0.1329 -0.1293
 7715TIP3    H144560   2.460   3.541   1.139 -0.2714  0.1027 -1.2778
 7715TIP3    H244561   2.380   3.659   1.089  0.1198  0.7240 -0.4510
 7716TIP3   OH244562   6.344   1.765  14.131 -0.0341  0.4687  0.4539
 7716TIP3    H144563   6.367   1.831  14.066  1.0433 -0.5168 -0.1917
 7716TIP3    H244564   6.426   1.720  14.150 -0.7734 -0.8055  0.7457
 7717TIP3   OH244565   4.618   1.572  16.808 -0.1867  0.0326 -0.3863
 7717TIP3    H144566   4.621   1.604  16.717 -0.7978  0.3408 -0.2983
 7717TIP3    H244567   4.613   1.651  16.861 -0.6881 -0.1795 -0.1180
 7718TIP3   OH244568   4.276   3.504   3.450  0.5234 -0.0628 -0.1466
 7718TIP3    H144569   4.328   3.439   3.405  0.4887 -0.2286  0.0498
 7718TIP3    H244570   4.221   3.453   3.510 -0.4554  0.0391 -0.9372
 7719TIP3   OH244571   4.319   4.092  12.823  0.1794  0.1523  0.3060
 7719TIP3    H144572   4.260   4.107  12.897  1.5916  0.5417  1.3867
 7719TIP3    H244573   4.278   4.021  12.773 -2.4121  1.9509 -0.3270
 7720TIP3   OH244574   3.466   1.091   4.587 -0.0505  0.3537 -0.6613
 7720TIP3    H144575   3.555   1.123   4.602 -1.1017  3.4443 -0.4198
 7720TIP3    H244576   3.427   1.087   4.674 -0.0035 -1.7799 -0.6741
 7721TIP3   OH244577   3.550   3.751  11.665  0.1570 -0.3090 -0.1435
 7721TIP3    H144578   3.475   3.785  11.617  0.0581 -0.0610  0.1868
 7721TIP3    H244579   3.557   3.807  11.742  3.1606  2.3800 -2.1133
 7722TIP3   OH244580   2.799   6.349  11.212 -0.3889  0.3121  0.3545
 7722TIP3    H144581   2.726   6.410  11.199 -0.7764  0.0186  1.0610
 7722TIP3    H244582   2.757   6.264  11.221  0.1059  0.0260  0.0173
 7723TIP3   OH244583   5.446   3.055   1.454  0.3212 -0.1350  0.1918
 7723TIP3    H144584   5.399   3.137   1.464  0.8103  0.1312  0.3358
 7723TIP3    H244585   5.483   3.037   1.541  0.1320 -0.5612  0.1894
 7724TIP3   OH244586   2.760   3.147   2.732  0.5124 -0.1157  0.1366
 7724TIP3    H144587   2.770   3.160   2.637 -1.6106  1.7502  0.0936
 7724TIP3    H244588   2.708   3.067   2.739 -1.6682  1.1526 -0.4843
 7725TIP3   OH244589   5.612   0.725   5.980 -0.3975  0.5123 -0.2792
 7725TIP3    H144590   5.621   0.684   6.067 -3.1452  2.0846  0.8757
 7725TIP3    H244591   5.580   0.654   5.924  0.1348 -0.2081  0.2991
 7726TIP3   OH244592   3.681   5.601   3.711 -0.2675  0.4541 -0.3152
 7726TIP3    H144593   3.593   5.607   3.749 -0.2739  2.3564 -0.5240
 7726TIP3    H244594   3.728   5.675   3.749  0.9000  0.1304 -1.0815
 7727TIP3   OH244595   5.625   4.456  13.085  0.0893  0.0939  0.0945
 7727TIP3    H144596   5.685   4.496  13.148  1.4452  0.3327 -1.2709
 7727TIP3    H244597   5.682   4.425  13.014 -1.2971 -0.8685 -0.6487
 7728TIP3   OH244598   5.839   5.637  13.664  0.3913 -0.0964  0.3870
 7728TIP3    H144599   5.803   5.672  13.582 -0.6243  0.9422  1.2420
 7728TIP3    H244600   5.934   5.649  13.656  0.1300  2.7546  0.5250
 7729TIP3   OH244601   3.931   1.966  15.817 -0.1122  0.1082  0.5151
 7729TIP3    H144602   3.900   1.892  15.869  1.2915 -0.1846  0.9663
 7729TIP3    H244603   3.956   2.032  15.882 -3.1446  1.8472  0.1439
 7730TIP3   OH244604   2.390   0.986   0.562 -0.2394 -0.1580  0.1014
 7730TIP3    H144605   2.476   0.975   0.603  0.5978 -0.1405 -1.5690
 7730TIP3    H244606   2.408   0.989   0.468 -1.9360  1.2304 -0.2266
 7731TIP3   OH244607   0.041   3.147   4.482  0.0400  0.1191 -0.3201
 7731TIP3    H144608   0.132   3.155   4.454 -0.0038 -1.0876 -0.8606
 7731TIP3    H244609  -0.007   3.207   4.423  0.3243 -0.2269 -0.9123
 7732TIP3   OH244610   0.990   6.357  11.512 -0.3663 -0.1472 -0.3085
 7732TIP3    H144611   1.077   6.348  11.473  0.1662 -1.0255  1.0222
 7732TIP3    H244612   0.945   6.275  11.489  0.4541 -1.3393  2.0435
 7733TIP3   OH244613   5.369   2.987  17.105  0.1113  0.2938 -0.4109
 7733TIP3    H144614   5.378   2.933  17.184 -1.8012  1.2617  0.5360
 7733TIP3    H244615   5.415   3.068  17.126  2.6104 -0.6870 -1.6746
 7734TIP3   OH244616   3.826   6.740  14.612  0.0202 -0.0864  0.1076
 7734TIP3    H144617   3.912   6.706  14.591  0.1097 -0.4100  0.9610
 7734TIP3    H244618   3.765   6.677  14.574  0.1576  0.0014 -0.2623
 7735TIP3   OH244619   2.140   4.960  13.057 -0.2952  0.1379  0.0131
 7735TIP3    H144620   2.100   4.880  13.024 -2.5570  1.0802  0.3218
 7735TIP3    H244621   2.138   5.021  12.984 -1.6709  0.9520  0.6895
 7736TIP3   OH244622   4.245   2.600  17.056 -0.1644 -0.4121 -0.5827
 7736TIP3    H144623   4.250   2.694  17.073 -0.0556 -0.4507 -0.3987
 7736TIP3    H244624   4.238   2.560  17.143  0.5076 -0.6177 -0.6173
 7737TIP3   OH244625   5.865   3.608   2.483  0.5737  0.9870  0.6223
 7737TIP3    H144626   5.773   3.633   2.471  0.2035 -0.7617 -0.5868
 7737TIP3    H244627   5.865   3.550   2.558 -0.1781 -2.6370 -1.9132
 7738TIP3   OH244628   4.133   5.530  15.886  0.6589 -0.6852 -0.1995
 7738TIP3    H144629   4.206   5.484  15.845 -1.1428 -1.9674 -2.2022
 7738TIP3    H244630   4.089   5.464  15.939 -0.7377 -0.7669 -1.4074
 7739TIP3   OH244631   4.670   6.451   0.132  0.1315 -0.1028  0.3737
 7739TIP3    H144632   4.602   6.493   0.185  0.2034 -0.2210  0.5634
 7739TIP3    H244633   4.752   6.475   0.176  0.5125  2.6898 -1.6075
 7740TIP3   OH244634   6.352   6.762  13.479  0.0534  0.6923 -0.0808
 7740TIP3    H144635   6.426   6.818  13.503  1.0602 -0.3580 -0.6510
 7740TIP3    H244636   6.383   6.713  13.402 -0.8699 -0.4930  0.2762
 7741TIP3   OH244637   6.241   5.106   5.435 -0.5040 -0.0263  0.2646
 7741TIP3    H144638   6.148   5.131   5.436 -1.5885 -3.4729  1.4510
 7741TIP3    H244639   6.278   5.144   5.514 -0.8665  1.3556 -0.2034
 7742TIP3   OH244640   1.319   1.577  16.325  0.9320 -0.1343 -0.2597
 7742TIP3    H144641   1.396   1.628  16.300  1.0390 -0.9516 -1.7441
 7742TIP3    H244642   1.352   1.511  16.385  1.0748  0.5461  0.4242
 7743TIP3   OH244643   2.648   3.094   4.652  0.1922 -0.0123  0.3026
 7743TIP3    H144644   2.621   3.008   4.622 -0.3625  0.5538 -0.9003
 7743TIP3    H244645   2.568   3.136   4.684 -0.1635  1.0913 -1.8239
 7744TIP3   OH244646   5.901   1.416   2.141 -0.3941 -0.3507  0.2511
 7744TIP3    H144647   5.905   1.321   2.132 -1.7541 -0.4469  0.3716
 7744TIP3    H244648   5.876   1.431   2.233  2.6157  0.2555  1.0814
 7745TIP3   OH244649   1.811   0.434   5.391 -0.1315 -0.2336 -0.2480
 7745TIP3    H144650   1.870   0.461   5.321  2.4373  0.6212  2.0757
 7745TIP3    H244651   1.852   0.467   5.471 -3.2946 -0.4849  1.6454
 7746TIP3   OH244652   2.235   3.702   4.134  0.0024  0.4339 -0.0494
 7746TIP3    H144653   2.199   3.790   4.147 -1.0558  0.1744 -1.0268
 7746TIP3    H244654   2.297   3.712   4.062 -1.2306  0.1421 -1.1995
 7747TIP3   OH244655   5.920   5.137  14.287 -0.6109 -0.1392  0.2641
 7747TIP3    H144656   5.947   5.150  14.196  0.1876 -0.2353  0.4799
 7747TIP3    H244657   5.827   5.116  14.281 -0.6897  0.3631 -0.4916
 7748TIP3   OH244658   4.317   0.659   1.079  0.0450 -0.1601 -0.3998
 7748TIP3    H144659   4.356   0.689   1.161  0.6550  2.3139 -1.5042
 7748TIP3    H244660   4.262   0.732   1.050 -1.0770 -1.4204 -1.6521
 7749TIP3   OH244661   2.592   5.480  11.909  0.0517 -1.3894 -0.1576
 7749TIP3    H144662   2.638   5.413  11.960 -0.1636 -1.0662  0.4690
 7749TIP3    H244663   2.530   5.519  11.971  0.6838 -0.1028 -0.3077
 7750TIP3   OH244664   6.473   6.030   3.968  0.1356 -0.5870  0.0361
 7750TIP3    H144665   6.413   6.053   4.039 -0.2433  1.9356 -0.9786
 7750TIP3    H244666   6.519   6.111   3.949 -0.1483 -1.0025 -2.9198
 7751TIP3   OH244667   0.924   3.502   0.065 -0.7011  0.2532  0.4062
 7751TIP3    H144668   0.941   3.556  -0.012  0.2009  0.7084  0.9094
 7751TIP3    H244669   0.829   3.497   0.070 -0.7764  0.0149 -0.8725
 7752TIP3   OH244670   4.852   0.257  11.478  0.3621  0.0875 -0.4925
 7752TIP3    H144671   4.867   0.164  11.493 -0.6137 -0.1520 -0.8992
 7752TIP3    H244672   4.890   0.274  11.392 -3.3973 -1.0542 -2.6346
 7753TIP3   OH244673   1.141   5.427  13.522 -0.2908  0.5000 -0.2801
 7753TIP3    H144674   1.099   5.493  13.576 -0.5097  1.0673 -1.1256
 7753TIP3    H244675   1.078   5.409  13.452  0.6652  1.0363 -1.3147
 7754TIP3   OH244676   3.378   4.978   3.236 -0.5731 -0.4908 -0.1764
 7754TIP3    H144677   3.374   4.889   3.202  1.5980  0.1118 -2.2219
 7754TIP3    H244678   3.434   5.026   3.175 -0.9162  2.0802  1.3424
 7755TIP3   OH244679   5.827   1.184   3.148 -0.0869  0.7605 -0.2925
 7755TIP3    H144680   5.800   1.220   3.232  2.0652  1.6073  0.1067
 7755TIP3    H244681   5.900   1.125   3.169 -0.1573  0.2176 -1.4643
 7756TIP3   OH244682   3.911   3.633   5.683  0.1376 -0.2115  0.2432
 7756TIP3    H144683   3.882   3.724   5.681 -2.5116 -0.9551  0.0111
 7756TIP3    H244684   3.967   3.626   5.760 -0.8553  1.2986  1.1497
 7757TIP3   OH244685   5.063   0.656   5.357  0.0226  0.3800  0.6697
 7757TIP3    H144686   5.111   0.737   5.371  1.0360 -0.1461  0.3339
 7757TIP3    H244687   5.082   0.603   5.434 -0.0806  0.1980  0.5718
 7758TIP3   OH244688   0.920   2.855  15.665 -0.7528 -0.1682  0.3801
 7758TIP3    H144689   0.828   2.881  15.659 -1.1849 -1.8083 -0.8481
 7758TIP3    H244690   0.918   2.768  15.706  0.3188  0.0611  0.9591
 7759TIP3   OH244691   3.053   0.122   5.769 -0.1809 -0.1419  0.0055
 7759TIP3    H144692   3.133   0.114   5.716  0.1429  0.0361  0.4561
 7759TIP3    H244693   3.060   0.210   5.808 -0.6775 -0.0657 -0.0797
 7760TIP3   OH244694   6.608   3.449  14.986  0.1729 -0.1149 -0.3126
 7760TIP3    H144695   6.669   3.456  14.912  0.5928 -0.5452 -0.0136
 7760TIP3    H244696   6.630   3.365  15.026  0.1543  0.2577  0.4877
 7761TIP3   OH244697   4.611   4.758   5.878 -0.1475  0.3822 -0.0940
 7761TIP3    H144698   4.534   4.709   5.904  0.1186  0.7997  1.5812
 7761TIP3    H244699   4.643   4.799   5.959  0.8793  1.5530 -1.0360
 7762TIP3   OH244700   1.408   1.890  13.258 -0.4474  0.8037 -0.3526
 7762TIP3    H144701   1.459   1.826  13.209  2.0486  0.8378  1.9838
 7762TIP3    H244702   1.375   1.841  13.334 -2.8131  1.1468 -1.0756
 7763TIP3   OH244703   1.418   2.799   4.865  0.2030  0.2439 -0.2424
 7763TIP3    H144704   1.511   2.813   4.851  0.2042  0.2023 -0.2759
 7763TIP3    H244705   1.390   2.746   4.791  0.4220 -0.8482  0.4349
 7764TIP3   OH244706   3.576   6.311  17.048  0.2747 -0.1150  0.7939
 7764TIP3    H144707   3.520   6.381  17.014  0.6615 -0.3478 -0.3875
 7764TIP3    H244708   3.663   6.351  17.051  0.4442 -0.4448  0.3839
 7765TIP3   OH244709   4.168   3.302   0.310  0.5021  0.2117 -0.6087
 7765TIP3    H144710   4.135   3.218   0.277  0.7244  0.6040 -1.8939
 7765TIP3    H244711   4.213   3.341   0.235  0.4077  1.4815 -0.0301
 7766TIP3   OH244712   3.897   3.662  16.895  0.8260  0.1634 -0.1304
 7766TIP3    H144713   3.902   3.633  16.986  1.8560  2.3613  0.5983
 7766TIP3    H244714   3.845   3.743  16.899 -2.6910 -1.7409 -2.1466
 7767TIP3   OH244715   0.416   3.658   0.057  0.3292 -0.1807 -0.0761
 7767TIP3    H144716   0.380   3.573   0.031 -1.3370  0.3969  0.2325
 7767TIP3    H244717   0.370   3.680   0.138  0.8437  0.9436 -0.0686
 7768TIP3   OH244718   2.871   6.047  17.002 -0.8011  0.1497 -0.1997
 7768TIP3    H144719   2.860   5.959  17.038 -0.5674  0.8037  1.5720
 7768TIP3    H244720   2.865   6.036  16.907  1.5869 -2.1110 -0.1726
 7769TIP3   OH244721   2.205   0.868   4.620 -0.4363 -0.1169 -0.1938
 7769TIP3    H144722   2.246   0.855   4.706 -1.3086 -1.1332  0.0906
 7769TIP3    H244723   2.122   0.911   4.639  0.0238  1.0232 -0.6794
 7770TIP3   OH244724   4.250   3.466  15.804  0.8874 -0.2917  0.4146
 7770TIP3    H144725   4.326   3.461  15.746  0.8002 -2.8436  0.4014
 7770TIP3    H244726   4.175   3.465  15.745  0.7515  2.3855  0.4190
 7771TIP3   OH244727   6.137   6.280  16.284 -0.0743  0.1919  0.1383
 7771TIP3    H144728   6.228   6.302  16.263  0.5041 -1.7867  0.3889
 7771TIP3    H244729   6.113   6.213  16.219 -1.4479  0.8638 -0.0746
 7772TIP3   OH244730   5.975   1.814   6.398 -0.5363  0.6655 -0.5001
 7772TIP3    H144731   5.965   1.735   6.345  0.6127  1.1411 -1.4702
 7772TIP3    H244732   5.906   1.807   6.464 -0.7447 -0.9197 -0.8363
 7773TIP3   OH244733   1.124   0.807  14.710 -0.5080  0.4307 -0.1585
 7773TIP3    H144734   1.137   0.752  14.787 -0.0486 -0.5785 -0.9374
 7773TIP3    H244735   1.155   0.893  14.738  3.9119 -0.8154 -0.4650
 7774TIP3   OH244736   4.871   2.471  16.910 -0.4729 -0.4110 -0.2697
 7774TIP3    H144737   4.900   2.549  16.862  0.3635 -0.5007  0.0732
 7774TIP3    H244738   4.888   2.492  17.002  2.3658 -2.0098 -0.3324
 7775TIP3   OH244739   0.524   4.444   0.818  0.2122 -0.3558  0.2073
 7775TIP3    H144740   0.449   4.468   0.762  0.5214  0.1297 -0.0048
 7775TIP3    H244741   0.592   4.418   0.756  1.1422  1.8232  0.2456
 7776TIP3   OH244742   0.981   3.842  14.203 -0.1378 -0.4753 -0.5981
 7776TIP3    H144743   0.897   3.871  14.169 -0.5897  1.9263  2.1881
 7776TIP3    H244744   0.961   3.806  14.290  1.8435  2.4603  1.2433
 7777TIP3   OH244745   5.683   5.383   4.099  0.1513 -0.2033  0.4790
 7777TIP3    H144746   5.666   5.436   4.177  0.9083  2.0339 -0.7783
 7777TIP3    H244747   5.709   5.446   4.032  0.8809 -2.1711 -1.2183
 7778TIP3   OH244748   4.903   2.268   5.617  0.6864  0.0359 -0.3626
 7778TIP3    H144749   4.917   2.332   5.686 -0.8952 -0.8132  0.8018
 7778TIP3    H244750   4.813   2.238   5.629  1.4080 -2.5675 -0.7026
 7779TIP3   OH244751   3.479   6.096   5.525  0.0456 -0.7369 -0.1483
 7779TIP3    H144752   3.453   6.087   5.616 -2.5891  1.0493 -0.6079
 7779TIP3    H244753   3.408   6.056   5.475  0.4380  0.1127 -1.4333
 7780TIP3   OH244754   3.868   0.891  16.861 -0.3425  1.1105 -0.1710
 7780TIP3    H144755   3.909   0.930  16.938  1.5235 -1.4470  0.2675
 7780TIP3    H244756   3.940   0.876  16.799 -1.3349  0.5120 -1.2378
 7781TIP3   OH244757   5.328   0.284   3.556  0.7983  0.1423 -0.0633
 7781TIP3    H144758   5.256   0.328   3.512 -0.2672 -2.0504 -0.6173
 7781TIP3    H244759   5.385   0.356   3.585 -1.1600  1.9025 -0.3098
 7782TIP3   OH244760   3.810   2.278   4.720 -0.0902 -0.2975  0.2917
 7782TIP3    H144761   3.757   2.220   4.666  1.0929 -0.6022 -0.5801
 7782TIP3    H244762   3.748   2.315   4.783 -1.4099 -0.3103 -0.9413
 7783TIP3   OH244763   1.489   2.478  12.202  0.5982  0.5065 -0.3351
 7783TIP3    H144764   1.440   2.559  12.197  1.1769  1.0007  1.2870
 7783TIP3    H244765   1.557   2.494  12.268  0.0405 -1.6211  0.8724
 7784TIP3   OH244766   1.313   3.573   1.051  0.4648 -0.2723 -0.3036
 7784TIP3    H144767   1.389   3.593   1.106  0.6617  1.6353 -1.1909
 7784TIP3    H244768   1.276   3.659   1.030 -1.5503 -1.1370 -0.4587
 7785TIP3   OH244769   0.364   4.928  13.427 -0.2158 -0.8695 -0.8838
 7785TIP3    H144770   0.433   4.967  13.373  0.1115 -0.3786 -0.1322
 7785TIP3    H244771   0.400   4.844  13.457  0.5646 -0.0801  0.4887
 7786TIP3   OH244772   2.546   2.862   4.563 -0.3484  0.0973  0.3367
 7786TIP3    H144773   2.580   2.772   4.564 -0.3419  0.1001  1.4174
 7786TIP3    H244774   2.455   2.852   4.536 -0.4769 -0.2907  0.8887
 7787TIP3   OH244775   4.458   2.079  15.972 -0.1024 -0.0864 -0.3448
 7787TIP3    H144776   4.477   2.011  16.036 -1.2288  1.3611  1.6208
 7787TIP3    H244777   4.368   2.060  15.944  0.2602 -0.5016 -1.2832
 7788TIP3   OH244778   0.215   1.296   4.691 -0.2443  0.1191 -0.0953
 7788TIP3    H144779   0.240   1.222   4.746 -1.7200  0.2305  0.7488
 7788TIP3    H244780   0.253   1.275   4.605  0.1626 -1.1466  0.3709
 7789TIP3   OH244781   2.380   1.209   3.347 -0.8380 -0.3043  0.2365
 7789TIP3    H144782   2.337   1.151   3.409 -1.9734 -1.1814 -1.2917
 7789TIP3    H244783   2.360   1.297   3.379 -1.3469 -0.7296  1.1304
 7790TIP3   OH244784   6.174   1.514  11.407 -0.1437 -0.2145 -0.6143
 7790TIP3    H144785   6.108   1.456  11.444 -0.2874 -0.2351 -0.8984
 7790TIP3    H244786   6.256   1.465  11.412  0.0578  0.2260  0.7423
 7791TIP3   OH244787   3.643   0.122  16.845 -0.3238  0.3151 -0.2118
 7791TIP3    H144788   3.702   0.083  16.780 -1.7630 -1.7893 -0.3851
 7791TIP3    H244789   3.695   0.126  16.925 -0.3748 -3.3540  0.1758
 7792TIP3   OH244790   3.855   5.172   5.544 -0.0437 -0.1257  0.6562
 7792TIP3    H144791   3.803   5.092   5.555  0.3053 -0.2999  1.0443
 7792TIP3    H244792   3.792   5.237   5.514 -0.4606 -0.3678  0.9951
 7793TIP3   OH244793   1.134   2.419  10.536  0.0280  0.1209  0.4176
 7793TIP3    H144794   1.113   2.352  10.601  0.9681 -0.4488  0.1566
 7793TIP3    H244795   1.078   2.399  10.462 -0.1500  0.0055  0.5824
 7794TIP3   OH244796   0.087   5.783  12.019  0.1170  0.1907  0.1141
 7794TIP3    H144797   0.032   5.757  12.093  0.3569  0.5229  0.4141
 7794TIP3    H244798   0.131   5.703  11.992  0.1301  0.0948  0.4187
 7795TIP3   OH244799   5.424   4.623   1.976  0.6363 -0.4611 -0.2994
 7795TIP3    H144800   5.376   4.566   1.915 -0.5241  0.6598 -0.4755
 7795TIP3    H244801   5.387   4.710   1.961 -0.0695 -0.2279  2.3912
 7796TIP3   OH244802   1.623   5.551   0.649  1.0184 -0.6229  0.1678
 7796TIP3    H144803   1.577   5.629   0.678  1.1590 -0.5528  0.2012
 7796TIP3    H244804   1.563   5.479   0.667 -0.3944 -0.2673 -2.5763
 7797TIP3   OH244805   5.011   0.910   1.019 -0.8034  0.1070 -0.1786
 7797TIP3    H144806   5.040   0.866   1.099  0.7631  0.7013 -0.4059
 7797TIP3    H244807   4.999   1.001   1.045 -3.1126 -0.2013  0.0515
 7798TIP3   OH244808   0.913   4.534   5.303  0.0205  0.3796 -0.3855
 7798TIP3    H144809   0.950   4.555   5.389  0.3620  3.6758 -1.1993
 7798TIP3    H244810   0.892   4.441   5.308  4.0698 -0.6505  1.7437
 7799TIP3   OH244811   6.268   1.887   0.018  0.3309  0.6069 -0.2488
 7799TIP3    H144812   6.296   1.796   0.002  1.1183  0.5376  1.3104
 7799TIP3    H244813   6.344   1.940  -0.008 -0.0096  0.7939 -0.8575
 7800TIP3   OH244814   5.950   2.121  12.020 -0.2073 -0.0981 -0.1730
 7800TIP3    H144815   5.947   2.209  12.057  0.6053  0.3734 -1.1491
 7800TIP3    H244816   5.962   2.063  12.095 -2.8590  0.3914  0.7153
 7801TIP3   OH244817   0.927   4.594  13.097  0.1321 -0.1751  0.2629
 7801TIP3    H144818   0.961   4.642  13.172  0.4348  1.5146 -0.9109
 7801TIP3    H244819   0.896   4.511  13.134  0.0393  0.7010  2.2778
 7802TIP3   OH244820   1.922   3.427   5.431 -0.1481  0.0921  0.0366
 7802TIP3    H144821   1.859   3.451   5.364 -1.1947 -0.8650  0.6432
 7802TIP3    H244822   1.927   3.331   5.426 -1.5432 -0.1760  2.4018
 7803TIP3   OH244823   0.340   2.665   5.767 -0.3060  0.7140  0.0876
 7803TIP3    H144824   0.376   2.586   5.807 -3.4018 -1.4527 -1.0160
 7803TIP3    H244825   0.406   2.692   5.703 -0.0959 -2.3912 -1.1490
 7804TIP3   OH244826   6.441   3.057   3.373  0.0074 -0.1696 -0.2893
 7804TIP3    H144827   6.488   2.976   3.352  0.1281  0.3226 -2.1356
 7804TIP3    H244828   6.361   3.027   3.416  1.4495 -1.0668  1.9440
 7805TIP3   OH244829   6.483   2.132   0.413  0.2190 -0.0190  0.0873
 7805TIP3    H144830   6.555   2.196   0.413  0.1250  0.1498 -1.5433
 7805TIP3    H244831   6.488   2.090   0.498  1.4140  0.9284  0.5220
 7806TIP3   OH244832   4.374   2.516  12.696 -0.4867  0.2779 -0.7877
 7806TIP3    H144833   4.457   2.539  12.654  0.6486  0.2662  1.2974
 7806TIP3    H244834   4.393   2.435  12.743 -1.4860  0.5761  0.1790
 7807TIP3   OH244835   0.141   2.467   1.529  0.2857 -0.0137 -0.2840
 7807TIP3    H144836   0.204   2.532   1.557 -1.5261  1.6388  0.1882
 7807TIP3    H244837   0.191   2.407   1.474  2.6704  0.0273  1.6609
 7808TIP3   OH244838   3.135   5.760  17.143  0.2864 -0.4560  0.7796
 7808TIP3    H144839   3.191   5.687  17.172  0.3887 -0.6925 -0.0063
 7808TIP3    H244840   3.173   5.837  17.187  1.4127 -0.5708  0.0460
 7809TIP3   OH244841   5.545   4.593  15.314 -0.4808  0.2069  0.3772
 7809TIP3    H144842   5.616   4.543  15.354 -0.9602 -0.9637 -0.1886
 7809TIP3    H244843   5.522   4.659  15.379  0.9342  0.4436  0.6725
 7810TIP3   OH244844   0.248   1.422  11.228 -0.0849  0.7552  0.2896
 7810TIP3    H144845   0.258   1.379  11.313 -1.9865  0.5449  0.4541
 7810TIP3    H244846   0.329   1.472  11.217  1.5345 -1.6036  0.7846
 7811TIP3   OH244847   0.341   1.305   5.724 -0.1413 -0.3603 -0.2173
 7811TIP3    H144848   0.292   1.376   5.764 -1.4162 -1.3965  0.1179
 7811TIP3    H244849   0.276   1.237   5.706  1.0489 -1.4885 -0.4421
 7812TIP3   OH244850   6.685   6.655   3.151 -0.5097  0.3505 -0.2633
 7812TIP3    H144851   6.774   6.621   3.146 -0.2733  0.9974 -0.5800
 7812TIP3    H244852   6.629   6.578   3.140 -0.0082 -0.2457  1.1402
 7813TIP3   OH244853   5.945   1.943  12.224 -0.0568  0.1456  0.2000
 7813TIP3    H144854   5.936   1.855  12.262 -1.3135  0.4433  0.6239
 7813TIP3    H244855   5.984   1.995  12.294  0.4604 -0.0022  0.0309
 7814TIP3   OH244856   4.849   5.962  15.551  0.0937  0.2574  0.0394
 7814TIP3    H144857   4.849   5.962  15.455 -2.0232 -0.6885 -0.0207
 7814TIP3    H244858   4.757   5.962  15.575  0.5767  1.1416  2.1172
 7815TIP3   OH244859   6.423   6.331  12.126 -0.4129  0.5224 -0.0707
 7815TIP3    H144860   6.400   6.244  12.095  1.6310 -0.3814  0.7408
 7815TIP3    H244861   6.497   6.358  12.071  0.8401  0.4631  1.4893
 7816TIP3   OH244862   2.655   3.069  12.777 -0.5326 -0.3190  0.1399
 7816TIP3    H144863   2.588   3.002  12.759  0.6236 -2.2629  2.5303
 7816TIP3    H244864   2.611   3.133  12.832 -0.6674 -1.1621  1.0328
 7817TIP3   OH244865   5.559   6.026   1.182  1.0263 -0.0375  0.5331
 7817TIP3    H144866   5.538   6.094   1.120  1.7023 -0.3457 -0.0516
 7817TIP3    H244867   5.571   5.947   1.129 -0.6717 -0.8504  1.2785
 7818TIP3   OH244868   4.804   0.729   0.648 -0.2973 -0.0412 -0.7930
 7818TIP3    H144869   4.871   0.756   0.585  1.5302 -2.0106  0.1473
 7818TIP3    H244870   4.854   0.701   0.725 -2.2799 -0.6744  0.3441
 7819TIP3   OH244871   5.658   3.615  15.298 -0.0824 -0.1919  0.4037
 7819TIP3    H144872   5.659   3.520  15.286  0.2788 -0.2749  1.0815
 7819TIP3    H244873   5.569   3.641  15.274 -0.2294 -0.7174  0.3681
 7820TIP3   OH244874   4.273   5.331   5.842 -0.0699 -0.8784  0.4159
 7820TIP3    H144875   4.243   5.421   5.830  1.5914 -0.3886 -0.4568
 7820TIP3    H244876   4.210   5.277   5.793 -2.3268 -0.4783  2.7087
 7821TIP3   OH244877   0.809   3.312   3.427 -0.1215  0.4473 -0.1253
 7821TIP3    H144878   0.793   3.222   3.455  0.8521 -0.1510 -1.3446
 7821TIP3    H244879   0.893   3.307   3.380  0.2045  2.0946  0.2409
 7822TIP3   OH244880   3.121   4.453   0.169 -0.0116  0.1243 -0.1240
 7822TIP3    H144881   3.083   4.487   0.087 -0.5112 -0.1191  0.0013
 7822TIP3    H244882   3.069   4.494   0.238 -0.5799 -0.8198  0.0316
 7823TIP3   OH244883   0.757   5.964  13.189 -0.3088  0.4775 -0.0849
 7823TIP3    H144884   0.667   5.983  13.215 -0.4575  0.2985 -0.4600
 7823TIP3    H244885   0.803   5.945  13.271 -1.0198 -1.1415 -0.0228
 7824TIP3   OH244886   4.304   1.929   5.748 -0.9689  0.1723  0.1966
 7824TIP3    H144887   4.232   1.908   5.807 -0.9626  0.5988  0.3655
 7824TIP3    H244888   4.339   2.012   5.782 -0.7730  0.2680 -0.2280
 7825TIP3   OH244889   0.775   2.836  14.837  0.0197 -0.2711 -0.5662
 7825TIP3    H144890   0.871   2.837  14.833 -0.0110 -0.2051 -3.2618
 7825TIP3    H244891   0.751   2.744  14.823 -0.3785 -0.9561  3.4407
 7826TIP3   OH244892   1.576   6.134  15.145 -0.0803 -0.3634 -0.4851
 7826TIP3    H144893   1.571   6.209  15.086  1.3322 -1.1940 -1.7337
 7826TIP3    H244894   1.640   6.160  15.211  0.1350 -0.3206 -0.7082
 7827TIP3   OH244895   6.495   4.768  16.366 -0.1272  0.3028  0.1581
 7827TIP3    H144896   6.527   4.717  16.292  0.1515  1.5379 -0.6101
 7827TIP3    H244897   6.482   4.856  16.331  1.6342  1.3874  1.9407
 7828TIP3   OH244898   3.429   6.447  14.371 -0.8021 -0.2353 -0.3747
 7828TIP3    H144899   3.387   6.365  14.343 -0.7655 -0.0705 -0.9392
 7828TIP3    H244900   3.369   6.485  14.434  0.8332 -2.4919  2.8084
 7829TIP3   OH244901   4.016   5.542   2.837 -0.2944  0.1029 -0.1069
 7829TIP3    H144902   4.093   5.581   2.794  0.6420 -1.1102  0.4051
 7829TIP3    H244903   3.972   5.617   2.878  0.7075  0.8108 -0.2674
 7830TIP3   OH244904   3.905   5.092  12.508  0.1683  0.7490  0.1554
 7830TIP3    H144905   3.903   5.008  12.463  0.5123  0.4110  0.7431
 7830TIP3    H244906   3.994   5.124  12.493 -0.1566  1.3093 -0.5937
 7831TIP3   OH244907   1.754   1.238   1.131 -0.2613 -0.2252  0.1149
 7831TIP3    H144908   1.709   1.321   1.146 -0.7572 -0.5702  0.5668
 7831TIP3    H244909   1.826   1.239   1.194 -1.4063 -0.9713  1.5055
 7832TIP3   OH244910   6.282   4.831   2.452 -0.2953  0.2215  0.4480
 7832TIP3    H144911   6.206   4.865   2.406 -0.2849 -2.0349 -1.3832
 7832TIP3    H244912   6.246   4.781   2.525 -0.5551 -0.4479 -0.1352
 7833TIP3   OH244913   0.137   3.720   5.442 -0.4875 -0.0346  0.1581
 7833TIP3    H144914   0.221   3.690   5.478  0.1148 -0.0548 -1.1654
 7833TIP3    H244915   0.131   3.812   5.467 -0.1202 -0.0638  0.3602
 7834TIP3   OH244916   1.302   0.871   3.540 -0.3279  0.6822 -0.6860
 7834TIP3    H144917   1.264   0.820   3.469  0.6555  0.1559 -0.8419
 7834TIP3    H244918   1.251   0.847   3.617  0.5946 -1.1399 -0.5950
 7835TIP3   OH244919   5.131   5.791   2.382  0.0607 -0.3103  0.4605
 7835TIP3    H144920   5.076   5.810   2.458  1.2696  0.3626  1.1903
 7835TIP3    H244921   5.164   5.703   2.397 -1.8758 -1.3157 -0.6780
 7836TIP3   OH244922   0.347   2.934   0.880 -0.4573  0.1531 -0.1628
 7836TIP3    H144923   0.259   2.958   0.907 -0.1508  0.5653  0.4947
 7836TIP3    H244924   0.379   3.011   0.833 -1.0332 -0.6023 -1.8600
 7837TIP3   OH244925   3.228   6.097  12.335  0.5492  0.0289 -0.2082
 7837TIP3    H144926   3.263   6.136  12.255 -0.9141 -0.9021 -1.3548
 7837TIP3    H244927   3.136   6.080  12.315  0.0660  0.0686  1.8062
 7838TIP3   OH244928   3.391   1.931   4.104 -0.0580  0.4343  0.3174
 7838TIP3    H144929   3.463   1.895   4.052 -0.7290 -0.8089  0.1979
 7838TIP3    H244930   3.431   2.002   4.154  1.2849 -0.2873  0.3414
 7839TIP3   OH244931   2.269   3.504   3.415 -0.6717 -0.3603 -0.0232
 7839TIP3    H144932   2.339   3.451   3.454 -0.2531 -0.2735 -0.6406
 7839TIP3    H244933   2.200   3.441   3.393 -1.1078 -0.3551  1.2445
 7840TIP3   OH244934   2.219   3.435   0.608 -0.3315  0.4930  0.3157
 7840TIP3    H144935   2.187   3.350   0.578  3.3538 -1.4722  1.2631
 7840TIP3    H244936   2.160   3.461   0.678 -2.6164 -0.2813 -1.2322
 7841TIP3   OH244937   3.354   3.171   1.324 -0.5596 -0.8045 -0.7578
 7841TIP3    H144938   3.327   3.261   1.344 -0.4705 -0.9238 -0.0829
 7841TIP3    H244939   3.448   3.178   1.308 -0.5161 -0.8060 -0.5093
 7842TIP3   OH244940   0.452   4.571   2.535 -0.3163  0.1864  0.5204
 7842TIP3    H144941   0.451   4.637   2.466 -1.0861 -0.3895 -0.0305
 7842TIP3    H244942   0.485   4.618   2.612  1.4778  0.6025 -0.4504
 7843TIP3   OH244943   1.736   2.688  12.703 -0.4800  0.0384  0.1254
 7843TIP3    H144944   1.682   2.759  12.668  0.7588  1.9287  1.8572
 7843TIP3    H244945   1.676   2.640  12.761 -0.8049  1.0640  0.6787
 7844TIP3   OH244946   4.640   0.454   0.152 -0.2434 -0.0462  0.2948
 7844TIP3    H144947   4.706   0.495   0.097  0.7169  0.4001  1.7141
 7844TIP3    H244948   4.654   0.492   0.239 -0.7286 -1.7634  1.1828
 7845TIP3   OH244949   3.588   4.759  11.073  0.2217 -0.2688  0.3884
 7845TIP3    H144950   3.606   4.830  11.012  1.3862  0.5735  1.6524
 7845TIP3    H244951   3.535   4.697  11.023 -0.0907  1.0728 -1.0017
 7846TIP3   OH244952   3.874   0.740   6.569 -0.4802  0.2337 -0.4108
 7846TIP3    H144953   3.962   0.717   6.601  0.1787 -0.1862 -2.3590
 7846TIP3    H244954   3.818   0.734   6.647  1.1687  0.3263  0.8480
 7847TIP3   OH244955   2.883   0.885   3.865  0.3102  0.3188  0.3698
 7847TIP3    H144956   2.856   0.948   3.799 -0.4526  0.4820  0.8374
 7847TIP3    H244957   2.885   0.934   3.947 -0.3566 -0.2748  0.7500
 7848TIP3   OH244958   0.780   5.384  15.978  0.3482 -0.1353  0.2300
 7848TIP3    H144959   0.796   5.478  15.978  0.9931 -0.2330  1.4374
 7848TIP3    H244960   0.858   5.346  16.017  0.4791 -1.2583 -1.0694
 7849TIP3   OH244961   1.769   3.880  15.292 -0.4965  0.1651 -0.3535
 7849TIP3    H144962   1.789   3.911  15.380 -0.5516 -0.4753 -0.1074
 7849TIP3    H244963   1.847   3.832  15.265 -0.0258  1.3299 -1.1186
 7850TIP3   OH244964   6.070   5.802  11.520 -0.3384 -0.1046  0.4665
 7850TIP3    H144965   6.085   5.781  11.612  2.0334  0.4303  0.2512
 7850TIP3    H244966   6.020   5.884  11.521  0.3312  0.3049  1.2918
 7851TIP3   OH244967   2.963   4.708  13.523  0.0524  0.1806 -0.5987
 7851TIP3    H144968   3.053   4.680  13.509 -0.4559 -1.9922 -0.0311
 7851TIP3    H244969   2.939   4.755  13.443  1.6037  0.5883 -0.8408
 7852TIP3   OH244970   3.538   0.553   4.419  0.6876  0.0773 -0.2510
 7852TIP3    H144971   3.492   0.475   4.388  1.3983  0.3034 -1.9621
 7852TIP3    H244972   3.615   0.519   4.466 -0.3277 -0.2614  1.2579
 7853TIP3   OH244973   1.504   1.040  15.583  0.0094  0.2860 -0.2986
 7853TIP3    H144974   1.497   1.136  15.582 -1.9775  0.1634 -0.3119
 7853TIP3    H244975   1.510   1.018  15.676 -2.0606  0.3085 -0.1167
 7854TIP3   OH244976   4.474   0.361  11.198 -0.3866 -0.4089  0.1000
 7854TIP3    H144977   4.520   0.370  11.281  0.7073 -2.7748 -0.1701
 7854TIP3    H244978   4.496   0.441  11.150  3.0112 -1.1047  0.2345
 7855TIP3   OH244979   6.473   3.111   1.539  0.5493  0.2131  0.1761
 7855TIP3    H144980   6.496   3.172   1.609  1.1523  0.1346  0.0570
 7855TIP3    H244981   6.531   3.037   1.552 -0.6552 -0.6643  0.7281
 7856TIP3   OH244982   5.645   3.545   2.092 -0.1120  0.7839 -0.0809
 7856TIP3    H144983   5.686   3.480   2.150  2.4025  1.8935 -0.5122
 7856TIP3    H244984   5.664   3.629   2.133 -1.5562  1.4137 -0.6150
 7857TIP3   OH244985   3.186   2.347  12.832 -0.4513 -0.0609  0.4467
 7857TIP3    H144986   3.095   2.335  12.857 -0.9604 -1.6308 -1.8382
 7857TIP3    H244987   3.186   2.342  12.737  2.1696 -1.4246  0.4172
 7858TIP3   OH244988   2.320   3.387   0.982 -0.0994 -0.1040  0.3178
 7858TIP3    H144989   2.412   3.364   0.971 -0.4102 -0.7048 -1.1297
 7858TIP3    H244990   2.274   3.340   0.913 -1.3556  1.1057  0.2857
 7859TIP3   OH244991   4.017   4.774  11.534  0.3122  0.0367  0.1889
 7859TIP3    H144992   4.067   4.764  11.615 -0.0369 -0.9554  0.2987
 7859TIP3    H244993   4.082   4.771  11.465  0.4425 -0.9826  0.3454
 7860TIP3   OH244994   5.868   4.980   1.748 -0.3764 -0.3171  0.4485
 7860TIP3    H144995   5.864   5.074   1.733 -1.0756 -0.1825  1.3972
 7860TIP3    H244996   5.901   4.944   1.666  1.4800  0.9024  0.5910
 7861TIP3   OH244997   3.390   6.398  13.256  0.2456  0.2169  0.1585
 7861TIP3    H144998   3.371   6.306  13.276 -2.1976  0.9074  1.4092
 7861TIP3    H244999   3.414   6.398  13.163  0.6987 -1.7189  0.2348
 7862TIP3   OH245000   6.221   5.459   1.065  0.7917 -0.1416  0.1814
 7862TIP3    H145001   6.224   5.555   1.071  1.1160 -0.2079  1.5080
 7862TIP3    H245002   6.275   5.430   1.139  2.0105 -1.3509 -1.1201
 7863TIP3   OH245003   4.974   5.915  16.637 -0.0849 -0.2286 -0.1044
 7863TIP3    H145004   4.891   5.960  16.652  0.0488 -0.9922  4.2084
 7863TIP3    H245005   4.950   5.822  16.630  0.1788 -0.1669 -2.7616
 7864TIP3   OH245006   1.922   1.700   3.360  0.2234 -0.4933 -0.3675
 7864TIP3    H145007   2.008   1.669   3.333 -1.0717 -1.9740 -3.1378
 7864TIP3    H245008   1.893   1.756   3.288 -0.7523  0.8499  1.0069
 7865TIP3   OH245009   4.404   1.469  13.089  0.4380  0.4652  0.0025
 7865TIP3    H145010   4.323   1.433  13.124  1.0530  0.2659  1.2910
 7865TIP3    H245011   4.461   1.478  13.166  1.3785  1.2842 -0.7651
 7866TIP3   OH245012   3.967   5.348  16.508  0.4232  0.2904 -0.2065
 7866TIP3    H145013   4.041   5.301  16.546 -1.1567 -2.1915 -0.0258
 7866TIP3    H245014   3.991   5.361  16.417 -0.1966 -3.5603 -1.0652
 7867TIP3   OH245015   1.095   4.658  16.499 -0.6512 -0.8857  0.0291
 7867TIP3    H145016   1.170   4.662  16.440 -0.4248 -0.5212  0.3423
 7867TIP3    H245017   1.069   4.565  16.498 -0.0470 -1.0556  0.1103
 7868TIP3   OH245018   0.455   0.821  11.254 -0.3633  0.4071  0.4384
 7868TIP3    H145019   0.475   0.914  11.264  0.6227  0.1568  0.9217
 7868TIP3    H245020   0.435   0.811  11.160  1.2102  0.8212  0.0264
 7869TIP3   OH245021   4.110   2.123  10.536  0.6860  0.0965  0.6338
 7869TIP3    H145022   4.204   2.136  10.527  0.7147  1.2925  2.2320
 7869TIP3    H245023   4.077   2.206  10.573 -1.1389  0.0479 -0.7281
 7870TIP3   OH245024   6.662   2.135   5.311  0.2548 -0.1688 -0.1208
 7870TIP3    H145025   6.610   2.131   5.391 -1.9317  3.4850 -1.1572
 7870TIP3    H245026   6.606   2.099   5.243  1.3229 -1.3373 -0.4387
 7871TIP3   OH245027   4.069   0.202   5.703 -0.2725  0.4748 -0.2161
 7871TIP3    H145028   4.069   0.207   5.799 -0.3834  1.6551 -0.2614
 7871TIP3    H245029   4.158   0.175   5.680 -0.6078 -1.1281  0.2533
 7872TIP3   OH245030   1.846   2.730   5.908  0.1551 -0.5313 -0.1710
 7872TIP3    H145031   1.879   2.646   5.939 -0.6687 -0.6710  0.3550
 7872TIP3    H245032   1.914   2.793   5.932  0.4131 -0.9321  0.1559
 7873TIP3   OH245033   5.844   0.374  15.682 -0.2228 -0.3019  0.0608
 7873TIP3    H145034   5.895   0.293  15.681 -1.0590 -0.8704  1.3554
 7873TIP3    H245035   5.889   0.429  15.746 -0.2812 -0.1639 -0.0177
 7874TIP3   OH245036   3.486   6.474   4.259  0.2674 -0.3579  0.1519
 7874TIP3    H145037   3.401   6.506   4.230 -0.8575 -2.6043  0.7965
 7874TIP3    H245038   3.536   6.462   4.178 -0.5773 -0.5058 -0.3570
 7875TIP3   OH245039   4.468   0.003   0.305 -0.0635 -0.1344 -0.5870
 7875TIP3    H145040   4.529  -0.015   0.377 -0.8283  0.4601  0.2334
 7875TIP3    H245041   4.524   0.030   0.233  0.7135 -0.5722 -0.1656
 7876TIP3   OH245042   0.553   2.749   4.032  0.1877 -0.5161 -0.2856
 7876TIP3    H145043   0.504   2.734   4.113  0.6167 -1.3472 -0.1595
 7876TIP3    H245044   0.551   2.664   3.988 -0.4145  0.0473 -1.3658
 7877TIP3   OH245045   4.022   4.014   6.185  0.8947  0.2222  0.4426
 7877TIP3    H145046   4.112   4.048   6.188  0.1768  2.3952 -0.5284
 7877TIP3    H245047   3.995   4.011   6.276  1.9044 -0.3530  0.7444
 7878TIP3   OH245048   0.216   1.524  16.700  0.1238 -0.5404 -0.0962
 7878TIP3    H145049   0.216   1.572  16.617 -0.0133  0.6332  0.5582
 7878TIP3    H245050   0.150   1.456  16.688 -1.9224  1.3099 -0.0490
 7879TIP3   OH245051   1.910   2.746  16.086 -0.6575  0.1885  0.3620
 7879TIP3    H145052   1.977   2.752  16.154  0.2434  0.4619 -0.5151
 7879TIP3    H245053   1.829   2.771  16.129 -0.3481 -0.8974  1.6534
 7880TIP3   OH245054   2.516   5.450   4.092 -0.3226 -0.5035 -0.3141
 7880TIP3    H145055   2.479   5.525   4.046 -0.1289 -0.4486 -0.3852
 7880TIP3    H245056   2.606   5.477   4.112 -0.8604  0.0677  1.4441
 7881TIP3   OH245057   4.282   5.414   1.061 -0.0397  0.2491 -0.3405
 7881TIP3    H145058   4.341   5.339   1.058 -0.0660  0.1873  0.3800
 7881TIP3    H245059   4.339   5.491   1.063  0.0235  0.1909  0.3192
 7882TIP3   OH245060   4.945   3.623   1.577  0.1973 -0.1292 -0.2458
 7882TIP3    H145061   4.979   3.576   1.501  1.7987 -0.7004  0.7856
 7882TIP3    H245062   4.899   3.556   1.628  0.8269 -0.1959  0.2547
 7883TIP3   OH245063   3.262   5.518  12.574  0.4041  0.1745 -0.3476
 7883TIP3    H145064   3.192   5.462  12.608 -1.2055  1.4783 -1.3243
 7883TIP3    H245065   3.342   5.482  12.611 -0.5959 -2.4021 -0.4681
 7884TIP3   OH245066   6.103   4.415  12.973 -0.1539 -0.3865  0.2258
 7884TIP3    H145067   6.094   4.492  13.029  1.1585  0.9526 -1.3343
 7884TIP3    H245068   6.164   4.358  13.022 -0.3822 -0.0306  0.9447
 7885TIP3   OH245069   3.677   6.171  11.889 -0.1181  0.0414 -0.8929
 7885TIP3    H145070   3.730   6.235  11.937 -2.4790  1.1668  0.3850
 7885TIP3    H245071   3.661   6.101  11.951  0.1373 -0.4517 -1.3781
 7886TIP3   OH245072   2.354   2.771   4.295 -0.9920 -0.0735  0.0034
 7886TIP3    H145073   2.318   2.851   4.334 -1.1798  0.2843 -0.8904
 7886TIP3    H245074   2.286   2.705   4.306 -0.4067 -0.4534  1.7743
 7887TIP3   OH245075   1.390   5.975   5.519 -0.4645 -0.8863 -0.5520
 7887TIP3    H145076   1.373   5.885   5.548 -0.5411 -0.5099  0.6185
 7887TIP3    H245077   1.467   6.002   5.568 -3.2355  1.3708  3.0614
 7888TIP3   OH245078   2.548   2.867  14.104  0.1802 -0.8570 -0.4069
 7888TIP3    H145079   2.456   2.849  14.082 -0.6576 -0.8735  2.6746
 7888TIP3    H245080   2.548   2.957  14.136  1.2921 -0.7861 -0.5694
 7889TIP3   OH245081   6.717   1.132   4.882 -0.1223  0.2515 -0.3374
 7889TIP3    H145082   6.740   1.099   4.795 -2.4329 -2.3378 -0.1160
 7889TIP3    H245083   6.691   1.223   4.867  1.5258  0.5211 -1.9385
 7890TIP3   OH245084   6.421   4.704   3.976 -0.4080  0.1284  0.0546
 7890TIP3    H145085   6.388   4.788   3.942 -1.2683  0.0001  0.5438
 7890TIP3    H245086   6.471   4.667   3.904 -0.3942  0.8588 -0.3225
 7891TIP3   OH245087   2.346   2.615   1.198  0.0534  0.4281  0.3398
 7891TIP3    H145088   2.366   2.681   1.131 -0.5222  0.4849  0.2194
 7891TIP3    H245089   2.386   2.535   1.164 -1.6671  0.0540 -0.9323
 7892TIP3   OH245090   5.252   6.099   2.525 -0.2262  0.1087 -0.2314
 7892TIP3    H145091   5.305   6.177   2.543 -0.4339 -0.1263  1.4792
 7892TIP3    H245092   5.298   6.056   2.453  0.4968  1.2286 -0.4730
 7893TIP3   OH245093   3.801   4.089  15.664  0.3229  0.3321  0.0376
 7893TIP3    H145094   3.875   4.049  15.710 -0.4670 -1.1376  0.0484
 7893TIP3    H245095   3.724   4.042  15.694 -0.5353  1.2106 -0.7014
 7894TIP3   OH245096   3.532   2.689  17.039  0.3486 -0.2078 -0.0260
 7894TIP3    H145097   3.473   2.616  17.059  1.1777 -0.6210  0.9981
 7894TIP3    H245098   3.602   2.682  17.104  1.6460  0.1374 -1.3251
 7895TIP3   OH245099   3.335   2.192  12.379  0.7200 -0.1090 -0.2479
 7895TIP3    H145100   3.252   2.185  12.333  0.5750 -2.4510  0.2277
 7895TIP3    H245101   3.400   2.206  12.309  0.1292 -0.0090 -0.7833
 7896TIP3   OH245102   6.596   4.992   4.646 -0.2489  0.1652  0.1350
 7896TIP3    H145103   6.509   5.031   4.645 -0.4408 -0.2565 -1.0409
 7896TIP3    H245104   6.643   5.036   4.574  0.3247 -0.0118  0.3945
 7897TIP3   OH245105   5.495   5.617   4.085 -0.0259  0.5315 -0.1703
 7897TIP3    H145106   5.415   5.627   4.137  0.6664 -0.7093  1.1748
 7897TIP3    H245107   5.466   5.570   4.007 -0.3058 -1.7677  1.2454
 7898TIP3   OH245108   6.487   4.131   3.105 -0.0856 -0.7778 -0.1635
 7898TIP3    H145109   6.550   4.140   3.034  1.0899  0.1642  0.9464
 7898TIP3    H245110   6.540   4.133   3.185 -1.5107 -0.0317  0.8202
 7899TIP3   OH245111   2.015   0.190  13.612 -0.5771  0.2114 -0.2087
 7899TIP3    H145112   1.962   0.111  13.624  1.3572 -1.0494  0.6892
 7899TIP3    H245113   2.002   0.240  13.693  1.4000 -1.3197  1.1717
 7900TIP3   OH245114   6.129   5.365  11.666 -0.0839  0.0828 -0.3175
 7900TIP3    H145115   6.183   5.286  11.669  0.0673  0.1092 -1.6969
 7900TIP3    H245116   6.141   5.399  11.578 -3.5912 -0.7924 -1.3169
 7901TIP3   OH245117   4.332   4.674   2.128 -0.1609 -0.5009  0.4394
 7901TIP3    H145118   4.275   4.643   2.199 -0.2069  0.1080  0.6781
 7901TIP3    H245119   4.419   4.680   2.167 -0.3412  0.6601  0.7062
 7902TIP3   OH245120   0.142   2.117   6.604 -0.3177 -0.0450 -0.0176
 7902TIP3    H145121   0.121   2.027   6.581  1.5628 -0.5837  0.2133
 7902TIP3    H245122   0.102   2.129   6.690  0.4886 -1.1245  0.5422
 7903TIP3   OH245123   3.556   3.922   4.774 -0.3245  0.2326  0.4041
 7903TIP3    H145124   3.490   3.959   4.832 -0.1739 -1.0840  1.4969
 7903TIP3    H245125   3.566   3.832   4.805  0.9253 -0.0293 -0.6746
 7904TIP3   OH245126   0.794   1.902  14.021  0.8117 -0.0953  0.1680
 7904TIP3    H145127   0.808   1.963  14.094 -3.7309  0.4239  0.8802
 7904TIP3    H245128   0.721   1.848  14.049  0.2800 -1.3314 -3.2006
 7905TIP3   OH245129   2.026   1.645   5.847  0.1819 -0.3432  0.4167
 7905TIP3    H145130   1.932   1.625   5.848  0.1490 -0.1540  1.6228
 7905TIP3    H245131   2.049   1.661   5.938  1.2315  0.3806  0.0453
 7906TIP3   OH245132   5.331   4.236   1.610 -0.2646  0.4541  0.3540
 7906TIP3    H145133   5.373   4.156   1.578  0.3931  1.3238 -1.0717
 7906TIP3    H245134   5.308   4.217   1.701  1.6775 -0.6668  0.6573
 7907TIP3   OH245135   5.703   5.161   4.804 -0.8016  0.4322  0.4584
 7907TIP3    H145136   5.681   5.138   4.895 -0.4681  0.2521  0.4961
 7907TIP3    H245137   5.783   5.111   4.786  0.1193  1.8088  0.6379
 7908TIP3   OH245138   3.537   1.352   4.354  0.6907  0.2863  0.4923
 7908TIP3    H145139   3.585   1.353   4.271  1.0117  0.3034  0.6749
 7908TIP3    H245140   3.501   1.264   4.361 -0.7177  0.7503 -0.4393
 7909TIP3   OH245141   6.583   5.837   3.770 -0.2034  0.3103 -0.8255
 7909TIP3    H145142   6.668   5.867   3.735  0.2599 -0.3453 -0.2903
 7909TIP3    H245143   6.552   5.910   3.823  0.0359  0.5528 -1.0165
 7910TIP3   OH245144   0.015   0.877   5.870  0.4578 -0.0964  0.1636
 7910TIP3    H145145  -0.010   0.808   5.930  0.3337 -0.3218 -0.1430
 7910TIP3    H245146   0.076   0.932   5.919 -2.9513  2.3452  2.1095
 7911TIP3   OH245147   1.016   1.468  12.609  0.4284  0.3101 -0.0565
 7911TIP3    H145148   1.077   1.516  12.553  1.0966 -1.3509 -0.8399
 7911TIP3    H245149   1.056   1.382  12.618 -1.7077 -0.7927 -0.4568
 7912TIP3   OH245150   0.663   2.854   1.301 -0.4124  0.1346 -0.5014
 7912TIP3    H145151   0.629   2.928   1.352  0.7896  2.1525 -2.4381
 7912TIP3    H245152   0.591   2.830   1.242 -0.4163  0.5628 -0.6743
 7913TIP3   OH245153   3.784   2.220   5.681  0.0163  0.6224  0.3977
 7913TIP3    H145154   3.757   2.278   5.609 -2.1569 -1.0311 -0.2418
 7913TIP3    H245155   3.710   2.161   5.692  1.5873 -1.1669  1.9393
 7914TIP3   OH245156   5.686   0.406   6.428  0.4161 -0.2312  0.2983
 7914TIP3    H145157   5.619   0.353   6.472 -0.3816  2.1049  2.0843
 7914TIP3    H245158   5.684   0.490   6.473  2.7518  0.8240 -1.3525
 7915TIP3   OH245159   2.790   6.684   1.418  0.4104  0.2833 -0.5879
 7915TIP3    H145160   2.762   6.603   1.376 -0.1985  1.7286 -3.1043
 7915TIP3    H245161   2.883   6.670   1.437  0.2957 -1.0250 -0.9114
 7916TIP3   OH245162   2.093   5.101   3.388  0.1517  0.1554 -0.3215
 7916TIP3    H145163   2.073   5.183   3.343 -0.8903 -0.6014 -1.3005
 7916TIP3    H245164   2.181   5.113   3.423  0.2332  1.4769 -0.9348
 7917TIP3   OH245165   2.776   5.729   5.246 -0.1793 -0.6712 -0.0971
 7917TIP3    H145166   2.803   5.751   5.335  1.2536  1.9215 -1.0536
 7917TIP3    H245167   2.856   5.701   5.202 -0.3953  0.1982 -1.1116
 7918TIP3   OH245168   3.129   0.641   5.284 -0.1617  0.1270  0.5705
 7918TIP3    H145169   3.164   0.679   5.203  2.1234  1.3305  2.0099
 7918TIP3    H245170   3.183   0.564   5.300 -1.7371 -1.1296  0.1216
 7919TIP3   OH245171   5.154   1.593   0.878 -0.3472 -0.0691  0.2098
 7919TIP3    H145172   5.228   1.552   0.832  1.5696  1.8009  1.4670
 7919TIP3    H245173   5.149   1.546   0.961  0.8710  1.1311  1.0111
 7920TIP3   OH245174   2.080   6.329   0.543 -0.6393 -0.6744 -0.3385
 7920TIP3    H145175   2.025   6.282   0.480 -0.3098 -2.1486  0.4366
 7920TIP3    H245176   2.041   6.416   0.549 -1.2892 -0.8320 -1.7948
 7921TIP3   OH245177   4.693   5.974   5.165 -0.8177 -0.4356  0.3352
 7921TIP3    H145178   4.643   6.055   5.176 -0.3587 -0.1380  0.2849
 7921TIP3    H245179   4.755   5.974   5.238  2.1913  1.5067 -1.9398
 7922TIP3   OH245180   3.691   6.441  16.176  0.1448  0.0501  0.2815
 7922TIP3    H145181   3.787   6.448  16.184  0.2581  0.2193 -1.0434
 7922TIP3    H245182   3.658   6.491  16.251  1.0978  1.9665 -0.4875
 7923TIP3   OH245183   2.413   6.557  13.028 -0.3090  0.1152  0.5248
 7923TIP3    H145184   2.484   6.497  13.048 -1.9618 -2.1358  0.0445
 7923TIP3    H245185   2.337   6.520  13.074 -1.9140  0.4813 -1.6812
 7924TIP3   OH245186   3.474   3.193  12.846  0.1700 -0.2057 -0.3887
 7924TIP3    H145187   3.438   3.117  12.800 -0.8999  0.5584 -0.8533
 7924TIP3    H245188   3.412   3.209  12.917  0.1129  0.5419 -0.6007
 7925TIP3   OH245189   6.439   5.262  10.973  0.0105  0.0263 -0.7282
 7925TIP3    H145190   6.464   5.348  11.006 -2.0964  0.8899 -1.2221
 7925TIP3    H245191   6.464   5.264  10.880  0.7168 -0.2345 -0.5520
 7926TIP3   OH245192   1.622   1.004   5.550 -0.3502  0.0737  0.0505
 7926TIP3    H145193   1.679   0.976   5.479 -0.7299 -0.5339 -0.0312
 7926TIP3    H245194   1.550   1.049   5.507 -1.3794 -1.6276 -0.1275
 7927TIP3   OH245195   4.642   2.644  12.540  1.0321 -0.1967 -0.0392
 7927TIP3    H145196   4.732   2.659  12.570  0.8209  0.2382  0.3965
 7927TIP3    H245197   4.607   2.732  12.523  1.1607 -0.4344 -1.6536
 7928TIP3   OH245198   2.065   3.395  14.556 -0.6010 -0.3547 -0.1396
 7928TIP3    H145199   2.035   3.443  14.478 -1.3044 -0.7747 -0.1362
 7928TIP3    H245200   2.031   3.446  14.629 -0.5125 -0.3206 -0.1236
 7929TIP3   OH245201   3.936   1.249   3.428 -0.3373  0.3886  0.0874
 7929TIP3    H145202   3.995   1.248   3.503  0.2643  0.2414 -0.3855
 7929TIP3    H245203   3.987   1.212   3.356  0.3132  3.6654 -1.2936
 7930TIP3   OH245204   0.723   4.866  11.868 -0.3352 -0.5679 -0.0218
 7930TIP3    H145205   0.814   4.878  11.896 -1.4841  4.7635  2.5607
 7930TIP3    H245206   0.689   4.798  11.927  1.3287 -0.8566  0.6728
 7931TIP3   OH245207   1.815   3.482   0.043 -0.5570 -0.1927  0.2326
 7931TIP3    H145208   1.852   3.548  -0.016 -0.3834 -0.5761 -0.0956
 7931TIP3    H245209   1.823   3.520   0.130  0.8921 -0.3890  0.2022
 7932TIP3   OH245210   1.430   1.332   2.341 -0.0789  0.2034 -0.4600
 7932TIP3    H145211   1.507   1.385   2.320 -0.6467  0.9006 -0.8222
 7932TIP3    H245212   1.388   1.378   2.413 -0.1686 -0.1729 -0.2686
 7933TIP3   OH245213   5.777   1.343   3.949  0.1010  0.1550  0.1486
 7933TIP3    H145214   5.804   1.392   4.026 -0.2863 -0.3816  0.6312
 7933TIP3    H245215   5.687   1.318   3.966  0.3682 -0.9514  0.0312
 7934TIP3   OH245216   4.611   5.995   2.297 -0.3238  0.9661  0.1089
 7934TIP3    H145217   4.693   5.999   2.248  0.1849  1.7167  1.0075
 7934TIP3    H245218   4.613   5.910   2.340 -0.4071  0.6364 -0.5238
 7935TIP3   OH245219   1.818   2.931  14.643  0.5970 -0.0188  0.6555
 7935TIP3    H145220   1.889   2.868  14.656  1.2792  0.2593 -1.4509
 7935TIP3    H245221   1.859   3.006  14.602 -1.1712 -0.6827 -2.6775
 7936TIP3   OH245222   3.623   6.603  17.206 -0.0679  0.1833  0.5337
 7936TIP3    H145223   3.656   6.647  17.128  0.3030 -1.0206 -0.0184
 7936TIP3    H245224   3.529   6.593  17.190 -0.0848  0.4218  0.4851
 7937TIP3   OH245225   2.571   6.585   3.746 -0.6007  0.3246  0.0959
 7937TIP3    H145226   2.478   6.593   3.767 -1.1953  0.4062 -2.2687
 7937TIP3    H245227   2.583   6.644   3.672  1.6721  1.3504  1.1881
 7938TIP3   OH245228   1.479   4.987   0.546 -0.0743 -0.0268 -0.5122
 7938TIP3    H145229   1.560   4.936   0.548 -0.1274 -0.1100  0.8812
 7938TIP3    H245230   1.499   5.063   0.491  0.2496 -1.1370 -1.9641
 7939TIP3   OH245231   6.422   1.010   0.432 -0.3710 -0.2034 -0.4397
 7939TIP3    H145232   6.508   0.968   0.430  0.9011  2.2518 -0.9571
 7939TIP3    H245233   6.438   1.096   0.471 -3.3814 -1.1409  3.5493
 7940TIP3   OH245234   3.550   5.663   6.222  0.1442  0.3076 -0.1643
 7940TIP3    H145235   3.643   5.639   6.222 -0.1003 -0.7417 -1.0023
 7940TIP3    H245236   3.510   5.604   6.285 -0.0435  0.3181 -0.2719
 7941TIP3   OH245237   5.523   4.533  15.036 -0.3222 -0.2873  0.7738
 7941TIP3    H145238   5.543   4.545  15.128  1.1044  1.3276  0.3148
 7941TIP3    H245239   5.591   4.583  14.990 -1.3452 -0.5389 -1.1256
 7942TIP3   OH245240   1.439   6.525   1.108  0.4012  0.2023 -0.4007
 7942TIP3    H145241   1.518   6.579   1.101  0.5587  0.1154  0.5989
 7942TIP3    H245242   1.367   6.588   1.106  0.6309  0.6427  2.3069
 7943TIP3   OH245243   6.492   6.357   5.838 -0.0712  0.2189  0.5186
 7943TIP3    H145244   6.560   6.290   5.853 -0.3494 -0.0277  0.6919
 7943TIP3    H245245   6.527   6.436   5.878 -0.4401 -0.2262  1.7735
 7944TIP3   OH245246   3.016   0.054   4.593 -0.0209  0.1823  0.4136
 7944TIP3    H145247   3.016   0.125   4.529 -1.9532  0.1207  0.2635
 7944TIP3    H245248   2.932   0.063   4.639  1.0283 -0.1641  2.5190
 7945TIP3   OH245249   3.525   5.666  15.668  0.3200  0.4041  0.1833
 7945TIP3    H145250   3.585   5.638  15.598  0.5335 -0.0256  0.5322
 7945TIP3    H245251   3.514   5.760  15.654  0.8799  0.4425 -0.0342
 7946TIP3   OH245252   5.320   5.887   0.052  0.0607  0.3689 -1.1883
 7946TIP3    H145253   5.256   5.936   0.000 -2.3171 -1.9481 -0.7132
 7946TIP3    H245254   5.270   5.855   0.127  1.9316 -1.1151 -0.4822
 7947TIP3   OH245255   4.600   2.320  11.998 -0.0185 -0.2917 -0.1597
 7947TIP3    H145256   4.627   2.411  11.987 -0.6614 -0.1505 -0.6900
 7947TIP3    H245257   4.624   2.298  12.088  1.3478 -0.0227 -0.4406
 7948TIP3   OH245258   5.571   6.192  16.842 -0.4113 -0.0513  0.1717
 7948TIP3    H145259   5.513   6.255  16.885  2.2338  1.2206  2.1521
 7948TIP3    H245260   5.591   6.232  16.758  0.1048  1.1150  0.8241
 7949TIP3   OH245261   5.668   2.086   0.619 -0.0953 -0.0789  0.0478
 7949TIP3    H145262   5.651   2.172   0.579  0.5179 -1.1367 -2.7251
 7949TIP3    H245263   5.607   2.027   0.574  0.6519 -1.3737  0.7046
 7950TIP3   OH245264   0.682   6.518  16.348 -0.4853  0.1951  0.3541
 7950TIP3    H145265   0.672   6.465  16.427  2.0507 -0.7823  0.0934
 7950TIP3    H245266   0.725   6.598  16.377  1.1840 -0.5039 -0.1053
 7951TIP3   OH245267   0.523   2.102   1.777 -0.8754 -0.5563  0.2934
 7951TIP3    H145268   0.437   2.100   1.735 -0.6159  0.0792 -0.2756
 7951TIP3    H245269   0.544   2.195   1.785  0.9504 -0.6728 -2.0475
 7952TIP3   OH245270   3.917   0.327  10.398 -0.4912 -0.5029  0.6577
 7952TIP3    H145271   3.861   0.329  10.321  1.0859 -0.6991 -0.5476
 7952TIP3    H245272   3.917   0.417  10.431  0.4291  0.0701 -0.8221
 7953TIP3   OH245273   2.355   5.726  11.837  0.4753 -0.2971 -0.2876
 7953TIP3    H145274   2.283   5.671  11.808 -1.0763  1.8905 -0.8490
 7953TIP3    H245275   2.348   5.805  11.783 -0.4176  2.4995  3.4638
 7954TIP3   OH245276   0.179   3.815  11.657 -0.2609  0.1612  0.2738
 7954TIP3    H145277   0.271   3.798  11.638 -0.7227  0.1708 -2.3803
 7954TIP3    H245278   0.172   3.808  11.752  2.1407 -1.4412  0.4136
 7955TIP3   OH245279   0.028   0.924  15.483  0.4247  0.9925  0.3168
 7955TIP3    H145280   0.050   0.996  15.424 -1.4029  1.1780 -0.1985
 7955TIP3    H245281   0.100   0.862  15.472  1.7056  2.4170  0.2822
 7956TIP3   OH245282   2.672   5.562  15.724  0.3114 -0.1839 -0.1649
 7956TIP3    H145283   2.641   5.644  15.761 -1.4038  0.0783 -2.0136
 7956TIP3    H245284   2.697   5.509  15.800 -1.3874  0.9362  1.2527
 7957TIP3   OH245285   4.746   4.762  15.790 -0.5226  0.3359 -0.2954
 7957TIP3    H145286   4.814   4.765  15.856 -2.3292 -0.7801  1.7567
 7957TIP3    H245287   4.754   4.844  15.742  0.6711  1.3450  1.5253
 7958TIP3   OH245288   6.127   5.742   2.022 -0.4817 -0.3127 -0.7792
 7958TIP3    H145289   6.162   5.656   2.046 -1.5267 -0.5688 -0.0905
 7958TIP3    H245290   6.142   5.797   2.099  1.1047  0.4410 -1.5805
 7959TIP3   OH245291   4.499   3.685   3.572  0.0282 -0.3272  0.2282
 7959TIP3    H145292   4.413   3.727   3.582  0.5726  0.7533  0.4718
 7959TIP3    H245293   4.478   3.594   3.548 -1.1831 -0.2434  0.8809
 7960TIP3   OH245294   2.458   3.487  13.796  0.2673 -0.4898  0.1452
 7960TIP3    H145295   2.397   3.418  13.768 -1.4311  0.3226  1.6381
 7960TIP3    H245296   2.542   3.443  13.801 -0.3352 -1.9020 -1.0834
 7961TIP3   OH245297   5.669   0.770   5.554  0.1548  0.6510  0.4742
 7961TIP3    H145298   5.690   0.754   5.462 -1.0081 -2.4868  0.6175
 7961TIP3    H245299   5.594   0.830   5.551 -0.2229  0.1632 -0.6848
 7962TIP3   OH245300   3.702   0.490  13.414 -0.3995  0.1932 -0.3087
 7962TIP3    H145301   3.726   0.455  13.328  1.0931 -1.8051  0.8174
 7962TIP3    H245302   3.612   0.460  13.427 -0.1067 -0.8585 -0.5592
 7963TIP3   OH245303   5.239   2.090  13.394  0.8512  0.7482 -0.1546
 7963TIP3    H145304   5.186   2.169  13.383  0.0694  0.3343  0.5304
 7963TIP3    H245305   5.178   2.024  13.428  1.5073 -0.1313 -0.6294
 7964TIP3   OH245306   2.724   0.174  10.374 -0.2166  0.5438 -0.4471
 7964TIP3    H145307   2.636   0.211  10.371 -1.9561 -3.1319  0.3649
 7964TIP3    H245308   2.743   0.165  10.467  0.0216 -0.7336 -0.6002
 7965TIP3   OH245309   2.411   4.972  11.226  0.0269  0.1378  0.7923
 7965TIP3    H145310   2.331   4.994  11.274 -0.1468  2.3020 -0.3387
 7965TIP3    H245311   2.424   4.879  11.242 -1.7314  0.1071  2.4412
 7966TIP3   OH245312   3.094   4.080   4.644 -0.7912 -0.3350 -0.5113
 7966TIP3    H145313   3.098   3.993   4.684  0.5032 -0.9916 -1.9641
 7966TIP3    H245314   3.162   4.130   4.689  1.8599 -1.5738 -2.8344
 7967TIP3   OH245315   2.038   1.458   3.268 -0.1935 -0.1322  0.2778
 7967TIP3    H145316   2.070   1.374   3.300 -0.5920 -0.5521 -0.3909
 7967TIP3    H245317   2.114   1.516   3.272 -0.1114 -0.2999  1.4884
 7968TIP3   OH245318   0.121   5.590   0.536  0.4351  0.3058 -0.7588
 7968TIP3    H145319   0.030   5.580   0.564  1.3937 -1.1491  2.2569
 7968TIP3    H245320   0.167   5.620   0.614  2.7375 -0.1133 -1.8778
 7969TIP3   OH245321   1.741   0.681   0.259  0.8035 -0.1834 -0.1801
 7969TIP3    H145322   1.757   0.770   0.289  0.7905  0.6203 -2.4035
 7969TIP3    H245323   1.757   0.627   0.337 -0.8824  1.8459  1.7086
 7970TIP3   OH245324   1.606   3.537   2.043  0.4651  0.2675  0.0814
 7970TIP3    H145325   1.694   3.566   2.065  0.2984  1.0060 -0.1981
 7970TIP3    H245326   1.557   3.618   2.026 -0.4786 -0.0769  1.0174
 7971TIP3   OH245327   2.286   5.107  13.608 -0.0405 -0.9282  0.6000
 7971TIP3    H145328   2.351   5.158  13.657 -0.8323  0.4771  0.2550
 7971TIP3    H245329   2.246   5.170  13.549 -1.8690 -1.7032  0.9501
 7972TIP3   OH245330   2.240   4.877  15.240 -0.0198 -0.0075  0.3771
 7972TIP3    H145331   2.262   4.958  15.194 -0.4419 -0.0495  0.0958
 7972TIP3    H245332   2.145   4.879  15.248 -0.0000 -0.2935  0.7119
 7973TIP3   OH245333   4.615   5.755  12.010  0.6315  0.0190 -0.3477
 7973TIP3    H145334   4.598   5.757  11.916  1.3726  1.2992 -0.4769
 7973TIP3    H245335   4.537   5.713  12.047  0.3046 -0.4574 -1.5150
 7974TIP3   OH245336   5.036   1.115  13.667  0.5890  0.5031 -0.1305
 7974TIP3    H145337   5.114   1.152  13.626  1.0622 -1.2444 -0.8949
 7974TIP3    H245338   5.070   1.050  13.728 -0.2746 -0.4826 -0.6806
 7975TIP3   OH245339   3.475   6.265   0.385 -0.5702 -0.0605  0.2042
 7975TIP3    H145340   3.389   6.287   0.420 -1.0038 -1.2987 -0.0550
 7975TIP3    H245341   3.523   6.348   0.386 -2.3985  1.1120 -1.5130
 7976TIP3   OH245342   4.505   2.918   1.230  0.3516  0.0241 -0.1739
 7976TIP3    H145343   4.563   2.846   1.257 -0.6564 -0.9358 -0.5001
 7976TIP3    H245344   4.503   2.913   1.134  0.2657  0.4879 -0.1991
 7977TIP3   OH245345   2.298   0.050  17.230 -0.0668 -1.0384  0.1445
 7977TIP3    H145346   2.317   0.122  17.290 -0.3937 -2.3913  1.9823
 7977TIP3    H245347   2.204   0.035  17.241 -0.5101 -0.2177 -2.0610
 7978TIP3   OH245348   3.251   4.449  13.260  0.2438  0.0465  0.5612
 7978TIP3    H145349   3.166   4.405  13.253  0.0122  0.7187 -1.2797
 7978TIP3    H245350   3.314   4.377  13.271 -0.4399 -0.5204  0.8993
 7979TIP3   OH245351   2.352   3.946  17.184  0.0025 -0.1496  0.4200
 7979TIP3    H145352   2.318   4.035  17.192 -2.0213 -1.0376  3.7034
 7979TIP3    H245353   2.293   3.903  17.123  0.2528  0.4386 -0.2419
 7980TIP3   OH245354   0.603   2.060  12.220 -0.0163 -0.2498 -0.6254
 7980TIP3    H145355   0.651   2.036  12.299  0.4589 -1.3872 -1.2324
 7980TIP3    H245356   0.558   1.980  12.194  1.5203 -0.5291 -2.6655
 7981TIP3   OH245357   4.444   0.854   1.242 -0.2082 -0.0505  0.1041
 7981TIP3    H145358   4.374   0.908   1.279 -0.0339  0.2680 -0.0305
 7981TIP3    H245359   4.523   0.883   1.288 -0.4263 -1.7437  1.6911
 7982TIP3   OH245360   0.583   2.498   2.603 -0.4738 -0.0497 -0.0126
 7982TIP3    H145361   0.562   2.420   2.655 -0.3100  0.5085  0.9282
 7982TIP3    H245362   0.647   2.545   2.656 -1.1414  1.1014 -0.1903
 7983TIP3   OH245363   6.069   2.935   5.725 -0.1596  0.2989 -0.5395
 7983TIP3    H145364   6.092   2.878   5.799  1.1983  0.2699 -0.9534
 7983TIP3    H245365   6.028   2.876   5.661 -1.8549  0.4247  0.3844
 7984TIP3   OH245366   4.571   2.647   2.945 -0.0884 -0.0678  0.2371
 7984TIP3    H145367   4.525   2.615   2.867 -1.6589  0.9867  0.6851
 7984TIP3    H245368   4.512   2.628   3.017  0.2794  1.0972  0.8718
 7985TIP3   OH245369   1.820   6.192   6.092 -0.1328  0.0387 -0.4614
 7985TIP3    H145370   1.804   6.286   6.100  0.7188  0.2968 -1.5219
 7985TIP3    H245371   1.914   6.185   6.072 -0.4535 -0.9420 -1.7597
 7986TIP3   OH245372   1.291   6.639  12.521  0.4566  0.2563  0.7857
 7986TIP3    H145373   1.313   6.732  12.531  1.9535 -0.2327  2.6580
 7986TIP3    H245374   1.356   6.605  12.460 -0.8100  0.6281 -0.8335
 7987TIP3   OH245375   5.900   0.669  14.296  0.0173 -0.4282  0.6849
 7987TIP3    H145376   5.819   0.719  14.306  0.9719  1.5491 -0.7090
 7987TIP3    H245377   5.966   0.721  14.343  0.9498 -0.6569 -0.3440
 7988TIP3   OH245378   6.376   2.273  15.182 -0.3809  0.5622  0.1081
 7988TIP3    H145379   6.440   2.296  15.249  0.2173  0.8842 -0.5662
 7988TIP3    H245380   6.413   2.197  15.139 -1.0411 -0.0018  0.5049
 7989TIP3   OH245381   6.567   2.943  11.525  0.7019 -0.6301  0.3079
 7989TIP3    H145382   6.644   2.895  11.495  0.8965  0.1023 -0.3942
 7989TIP3    H245383   6.498   2.920  11.462  0.3375 -1.2747  0.9267
 7990TIP3   OH245384   2.413   1.352   5.110  0.4358  0.0068 -0.8983
 7990TIP3    H145385   2.508   1.348   5.098  0.3491 -1.2640 -1.3377
 7990TIP3    H245386   2.390   1.266   5.145 -0.2689  1.1626  1.6890
 7991TIP3   OH245387   0.016   0.406   2.815 -0.4488  0.0556  0.1260
 7991TIP3    H145388   0.032   0.484   2.867 -1.6032  1.1909 -1.1361
 7991TIP3    H245389   0.082   0.343   2.845  1.8296  2.1502 -0.1513
 7992TIP3   OH245390   3.005   5.227   6.022 -0.5949  0.0031  0.3690
 7992TIP3    H145391   2.953   5.232   6.102  0.9498 -0.1441  1.4273
 7992TIP3    H245392   2.996   5.136   5.993 -0.9067 -0.0233  0.5473
 7993TIP3   OH245393   5.991   3.168   5.329 -0.3792 -0.2917  0.2630
 7993TIP3    H145394   6.017   3.170   5.422  0.1801  0.7569  0.0925
 7993TIP3    H245395   5.927   3.238   5.320 -0.9822 -0.8612 -0.0034
 7994TIP3   OH245396   3.775   2.221   3.045  0.4653  0.1947 -0.6265
 7994TIP3    H145397   3.820   2.304   3.062  0.4117 -0.0755  0.9963
 7994TIP3    H245398   3.835   2.173   2.988  0.7547  1.1230 -1.1239
 7995TIP3   OH245399   1.538   5.658   1.070  0.0134 -0.1836  0.0699
 7995TIP3    H145400   1.608   5.608   1.026 -1.5301 -1.9619 -0.5033
 7995TIP3    H245401   1.482   5.688   0.998 -1.5779 -1.6126  0.6521
 7996TIP3   OH245402   3.880   4.648   3.356  0.5760 -0.6720 -0.1988
 7996TIP3    H145403   3.854   4.603   3.276 -1.1710 -0.7780  0.3833
 7996TIP3    H245404   3.818   4.721   3.363  1.4300  0.0037  0.4631
 7997TIP3   OH245405   4.643   3.918  13.599  0.0737 -0.1682 -0.4682
 7997TIP3    H145406   4.612   3.836  13.561  0.1502 -1.3218  1.7805
 7997TIP3    H245407   4.722   3.939  13.550  0.9942 -2.3656 -0.0738
 7998TIP3   OH245408   5.399   1.381   2.330  0.1051  0.1447 -0.4631
 7998TIP3    H145409   5.394   1.475   2.352  1.6839  0.3131 -0.7250
 7998TIP3    H245410   5.408   1.379   2.235 -3.7884 -0.4803 -0.9776
 7999TIP3   OH245411   0.909   0.511   5.831 -0.4696 -0.5336 -0.3522
 7999TIP3    H145412   0.983   0.544   5.882 -1.1568 -0.2335  0.4809
 7999TIP3    H245413   0.848   0.476   5.896 -1.9471  1.0169 -0.8243
 8000TIP3   OH245414   4.538   3.697   1.116  0.0781  0.4496 -0.0691
 8000TIP3    H145415   4.445   3.695   1.139 -0.3963 -0.5125 -1.9189
 8000TIP3    H245416   4.578   3.630   1.171 -0.7257 -0.6269 -0.7517
 8001TIP3   OH245417   2.288   4.233   4.786 -0.7096 -0.2603 -0.4308
 8001TIP3    H145418   2.273   4.206   4.877 -1.2864  0.6358 -0.2476
 8001TIP3    H245419   2.203   4.267   4.757 -0.1197  0.9517 -0.7765
 8002TIP3   OH245420   6.738   5.014  12.562  0.1062  0.0782  0.6052
 8002TIP3    H145421   6.660   4.993  12.613  0.4303 -0.4009  0.9166
 8002TIP3    H245422   6.720   4.980  12.474  1.1139 -2.7797  1.3912
 8003TIP3   OH245423   2.612   6.400   4.218 -0.0869  0.0249  0.5144
 8003TIP3    H145424   2.592   6.355   4.136 -0.8049 -0.4329  0.9264
 8003TIP3    H245425   2.608   6.493   4.197  0.4190 -0.0953 -0.1214
 8004TIP3   OH245426   1.139   4.827   2.375 -0.3996  0.0717 -0.0980
 8004TIP3    H145427   1.194   4.904   2.390 -0.9812  0.2492  1.2692
 8004TIP3    H245428   1.148   4.809   2.282  1.6490  0.3394 -0.0007
 8005TIP3   OH245429   3.888   3.901  12.439 -0.0321 -0.5640 -0.4289
 8005TIP3    H145430   3.955   3.859  12.385 -0.2257 -0.5736 -0.6662
 8005TIP3    H245431   3.837   3.829  12.474  0.6485 -0.6000  0.5094
 8006TIP3   OH245432   1.747   0.479  14.346 -0.1142 -0.3015 -0.5985
 8006TIP3    H145433   1.671   0.528  14.376  0.4724  1.5049 -1.9099
 8006TIP3    H245434   1.803   0.471  14.423 -0.6829  0.1775 -0.1280
 8007TIP3   OH245435   0.881   4.512   1.874  0.4495  0.3789  0.1131
 8007TIP3    H145436   0.912   4.422   1.861  1.1546  0.4539  1.1536
 8007TIP3    H245437   0.951   4.567   1.840  0.3506  0.5415  0.1689
 8008TIP3   OH245438   1.650   5.707   6.046 -0.5415  0.3650  0.0666
 8008TIP3    H145439   1.728   5.741   6.090 -0.7251  0.7892  0.0632
 8008TIP3    H245440   1.584   5.775   6.056 -0.6266  0.4084 -0.7525
 8009TIP3   OH245441   3.071   1.103  11.833 -0.3888  0.7130 -0.6318
 8009TIP3    H145442   3.057   1.012  11.860  1.9218  0.6453  0.5816
 8009TIP3    H245443   2.994   1.149  11.866 -1.5355 -0.7526 -1.1514
 8010TIP3   OH245444   1.586   2.386   0.806 -0.3746  0.0873  0.1983
 8010TIP3    H145445   1.633   2.383   0.889 -1.7375 -1.7061  0.9826
 8010TIP3    H245446   1.625   2.459   0.759  0.5116  1.0958  2.3659
 8011TIP3   OH245447   4.188   6.101   0.034 -0.7254  0.1646 -0.5182
 8011TIP3    H145448   4.204   6.091   0.128  1.7010  2.5825 -0.5334
 8011TIP3    H245449   4.193   6.013  -0.002  2.2099 -0.4810  1.1721
 8012TIP3   OH245450   5.362   3.191  15.486  0.0367  0.2220 -0.0013
 8012TIP3    H145451   5.288   3.249  15.470  0.8910  1.7261  1.1663
 8012TIP3    H245452   5.390   3.164  15.399 -0.8105  1.0344 -0.5536
 8013TIP3   OH245453   4.864   6.427  13.542  0.1922 -0.5637 -0.2422
 8013TIP3    H145454   4.883   6.448  13.634 -1.7310  0.0064  0.0562
 8013TIP3    H245455   4.821   6.342  13.545 -2.8959  0.8866 -0.2087
 8014TIP3   OH245456   2.664   5.170   4.285  0.2414 -0.0101 -0.3132
 8014TIP3    H145457   2.725   5.191   4.355 -1.1346  1.8557  0.4061
 8014TIP3    H245458   2.704   5.207   4.206 -0.2183  1.8124  0.2681
 8015TIP3   OH245459   0.103   2.425  15.123  0.3858 -0.2032 -0.2356
 8015TIP3    H145460   0.068   2.336  15.119 -0.1926  0.0582 -2.7067
 8015TIP3    H245461   0.028   2.478  15.150  0.6073 -0.3942  0.7789
 8016TIP3   OH245462   2.925   4.347  14.990  0.1596 -0.0585 -0.5931
 8016TIP3    H145463   2.940   4.421  15.049  0.1835  0.2845 -1.0254
 8016TIP3    H245464   2.835   4.359  14.959 -0.4448 -1.1305  0.6121
 8017TIP3   OH245465   3.319   4.764  14.444  0.3125 -0.3423  0.5772
 8017TIP3    H145466   3.274   4.825  14.503 -1.9616 -0.3845 -1.0057
 8017TIP3    H245467   3.275   4.680  14.458 -1.0954 -0.1042 -1.9322
 8018TIP3   OH245468   4.463   2.213  11.351 -0.0519  0.3578  0.0386
 8018TIP3    H145469   4.422   2.150  11.291 -0.5280  1.5017 -0.8682
 8018TIP3    H245470   4.390   2.251  11.399  0.0587  1.3625 -0.5583
 8019TIP3   OH245471   5.167   1.271   1.499  0.3352  0.4970 -0.3392
 8019TIP3    H145472   5.195   1.289   1.589  0.6768  0.1574 -0.3780
 8019TIP3    H245473   5.246   1.243   1.454  0.4806  2.0428 -1.1304
 8020TIP3   OH245474   0.944   4.538  16.936 -0.3583 -0.5593  0.1527
 8020TIP3    H145475   0.916   4.574  16.851  1.0412 -1.9345 -0.9545
 8020TIP3    H245476   1.029   4.580  16.952 -0.7363 -0.1021  1.0396
 8021TIP3   OH245477   5.824   1.841   3.769 -0.0768 -0.9026  0.0187
 8021TIP3    H145478   5.845   1.928   3.736 -0.4486 -0.7780  0.0971
 8021TIP3    H245479   5.728   1.839   3.770 -0.0945 -0.7444  1.4488
 8022TIP3   OH245480   4.791   0.352  12.894 -0.1485  0.2470  0.2090
 8022TIP3    H145481   4.877   0.393  12.888 -1.1793  2.4240 -0.9288
 8022TIP3    H245482   4.807   0.267  12.934  2.4590  0.7612  0.3947
 8023TIP3   OH245483   5.305   2.810  12.915  0.3297 -0.1451  0.8768
 8023TIP3    H145484   5.223   2.805  12.965 -0.8070 -0.8050 -0.9312
 8023TIP3    H245485   5.335   2.900  12.927 -1.2185  0.4174  0.7974
 8024TIP3   OH245486   6.715   6.468   5.289 -0.4099 -0.2566  0.4998
 8024TIP3    H145487   6.745   6.497   5.376  1.1396 -0.8284  0.1871
 8024TIP3    H245488   6.734   6.543   5.232  2.0365 -1.1812  0.0028
 8025TIP3   OH245489   0.881   4.315  13.994 -0.1094 -0.1923 -0.1102
 8025TIP3    H145490   0.954   4.367  14.027 -0.6015  0.6596 -0.3277
 8025TIP3    H245491   0.919   4.261  13.925  0.3026  0.2799 -0.2529
 8026TIP3   OH245492   0.557   6.549   3.895 -0.3461 -0.1036 -0.5721
 8026TIP3    H145493   0.524   6.548   3.805 -0.9381  2.0809 -0.4299
 8026TIP3    H245494   0.480   6.529   3.948 -0.4943  0.7698 -0.4520
 8027TIP3   OH245495   4.705   1.738   5.047  0.1636  0.2062 -0.3975
 8027TIP3    H145496   4.700   1.833   5.058  0.3873  0.2829 -0.9102
 8027TIP3    H245497   4.796   1.722   5.022  0.4491 -0.2798  0.8824
 8028TIP3   OH245498   3.650   2.498  14.602  0.2069  0.4801  0.0760
 8028TIP3    H145499   3.682   2.408  14.600  2.1401  0.9320  3.4131
 8028TIP3    H245500   3.575   2.495  14.662 -0.1268  0.9965 -0.3055
 8029TIP3   OH245501   2.283   1.744   0.176  0.0852 -0.5312  0.3931
 8029TIP3    H145502   2.338   1.769   0.102 -2.3543 -0.6152 -1.6096
 8029TIP3    H245503   2.214   1.811   0.179 -2.0708 -2.5799 -0.0104
 8030TIP3   OH245504   5.091   6.329   4.149  0.1163  0.2107 -0.3226
 8030TIP3    H145505   5.088   6.243   4.109  1.6023  0.3891 -0.8889
 8030TIP3    H245506   5.060   6.315   4.239  1.4062 -1.1432 -0.0573
 8031TIP3   OH245507   4.442   5.455  14.822 -0.4833  0.5228  0.3098
 8031TIP3    H145508   4.377   5.443  14.753 -0.7451 -3.1028  1.0112
 8031TIP3    H245509   4.526   5.450  14.776 -0.6441 -2.1566  0.1227
 8032TIP3   OH245510   6.693   2.672   5.114 -0.5578 -0.0159 -0.2022
 8032TIP3    H145511   6.769   2.722   5.085 -0.0369 -1.0843 -0.7530
 8032TIP3    H245512   6.724   2.626   5.192 -1.1165  0.7160  0.4629
 8033TIP3   OH245513   4.467   1.626   4.850  0.1778 -0.2783 -0.2851
 8033TIP3    H145514   4.412   1.703   4.858 -0.1860 -0.3268 -1.9424
 8033TIP3    H245515   4.536   1.638   4.915 -0.1835  1.1680 -0.1489
 8034TIP3   OH245516   6.443   4.788   6.822  0.0526 -0.5527  0.4626
 8034TIP3    H145517   6.537   4.783   6.805  0.0055 -1.4253  0.4477
 8034TIP3    H245518   6.426   4.882   6.836  0.7196 -0.2478 -0.6542
 8035TIP3   OH245519   4.481   2.126  11.767  0.1350  0.3753  0.4432
 8035TIP3    H145520   4.420   2.131  11.840  0.3282  0.6497  0.5850
 8035TIP3    H245521   4.538   2.052  11.788 -1.3191 -1.1258 -0.5930
 8036TIP3   OH245522   0.149   4.296   0.891  0.1455 -0.1728 -0.3670
 8036TIP3    H145523   0.083   4.228   0.880 -0.3549  0.2562 -0.0567
 8036TIP3    H245524   0.185   4.309   0.803 -0.6965  0.0962 -0.6882
 8037TIP3   OH245525   3.996   0.283  15.611  0.2135 -0.1853  0.3893
 8037TIP3    H145526   3.906   0.282  15.578  1.0683 -1.1163 -2.1139
 8037TIP3    H245527   3.986   0.274  15.706 -2.3002 -1.2040  0.1158
 8038TIP3   OH245528   1.628   2.138  16.208 -0.1897 -0.1363 -0.1313
 8038TIP3    H145529   1.625   2.230  16.234  0.1556 -0.7642  2.3538
 8038TIP3    H245530   1.537   2.109  16.214 -0.2304 -0.0880 -0.4751
 8039TIP3   OH245531   3.066   0.526   1.076  0.6900  0.2668 -0.3843
 8039TIP3    H145532   2.993   0.568   1.031  0.2947 -1.1760 -1.1607
 8039TIP3    H245533   3.091   0.453   1.018  0.6160 -1.2442  1.3849
 8040TIP3   OH245534   1.655   0.302  13.873 -1.0777 -0.8457 -0.4101
 8040TIP3    H145535   1.607   0.377  13.838  1.4955  1.2570  0.2585
 8040TIP3    H245536   1.663   0.320  13.967  3.4066  0.5393 -0.8547
 8041TIP3   OH245537   4.872   0.210   1.754 -0.5354  0.3368  0.4058
 8041TIP3    H145538   4.818   0.264   1.696  1.0449 -0.9665 -2.4935
 8041TIP3    H245539   4.863   0.121   1.719  0.3165 -0.5699  2.3594
 8042TIP3   OH245540   6.434   1.712   0.946 -0.5260 -0.3037 -0.5077
 8042TIP3    H145541   6.374   1.783   0.966 -1.7422 -1.6973  1.0885
 8042TIP3    H245542   6.501   1.718   1.014  0.4314  0.4249 -1.4868
 8043TIP3   OH245543   1.337   0.400  14.591  0.0619  0.3499 -0.2857
 8043TIP3    H145544   1.335   0.486  14.550  3.0628  1.3054  1.2358
 8043TIP3    H245545   1.397   0.349  14.536  0.0121 -0.0425  0.0237
 8044TIP3   OH245546   4.404   4.753   3.810  0.2591 -0.7171 -0.1915
 8044TIP3    H145547   4.484   4.779   3.765 -0.0560  0.5174 -0.0745
 8044TIP3    H245548   4.419   4.777   3.901 -0.7327  0.7292 -0.3943
 8045TIP3   OH245549   4.974   6.072   0.035  0.1791  0.5822  0.3514
 8045TIP3    H145550   4.928   6.147  -0.005  1.7784  0.7985 -1.2391
 8045TIP3    H245551   5.017   6.029  -0.039  0.5530 -1.0155  1.4575
 8046TIP3   OH245552   4.946   2.996  16.362  0.1175 -0.6253 -0.6182
 8046TIP3    H145553   4.867   2.977  16.312 -0.8448  0.7893  0.2900
 8046TIP3    H245554   4.979   2.911  16.390 -0.6545 -1.2728 -1.6289
 8047TIP3   OH245555   4.259   1.233  14.005 -0.6516 -0.2288 -1.4044
 8047TIP3    H145556   4.303   1.312  14.038 -0.0551 -0.2845 -2.0502
 8047TIP3    H245557   4.170   1.240  14.038 -0.3874  0.3092 -0.7715
 8048TIP3   OH245558   1.853   1.207   0.022  0.0896  0.3261 -0.5066
 8048TIP3    H145559   1.893   1.121   0.037 -0.8625 -0.0849 -0.2465
 8048TIP3    H245560   1.862   1.252   0.106  0.1461  0.2977 -0.4966
 8049TIP3   OH245561   0.723   2.179  13.891 -0.0601  0.1595 -0.5793
 8049TIP3    H145562   0.693   2.230  13.966 -0.6332 -1.4043  0.2816
 8049TIP3    H245563   0.747   2.094  13.927 -0.9303 -0.8353 -2.2346
 8050TIP3   OH245564   2.123   5.852   2.783  0.4116 -0.3057 -0.4463
 8050TIP3    H145565   2.047   5.798   2.768 -1.3939  2.3117 -1.4315
 8050TIP3    H245566   2.116   5.879   2.875 -0.4939  0.7416 -0.7966
 8051TIP3   OH245567   2.971   2.643  10.897  0.0049 -0.3605  0.0793
 8051TIP3    H145568   2.877   2.634  10.911  0.1779 -1.4910  0.6218
 8051TIP3    H245569   2.996   2.717  10.952 -0.7026  0.5477 -0.7776
 8052TIP3   OH245570   0.312   2.695  11.840 -0.2634 -0.5097  0.5573
 8052TIP3    H145571   0.232   2.697  11.788  0.1380 -0.2808 -0.0612
 8052TIP3    H245572   0.331   2.602  11.853 -0.6735 -0.5642  0.7897
 8053TIP3   OH245573   2.808   5.060   3.704 -0.2164 -0.2231  0.7037
 8053TIP3    H145574   2.781   5.053   3.795  2.9655 -0.5980  1.7498
 8053TIP3    H245575   2.837   4.972   3.680 -0.3843  0.0176 -0.4605
 8054TIP3   OH245576   6.148   4.684   2.665 -0.3953  0.0917  0.2526
 8054TIP3    H145577   6.149   4.588   2.666  1.2516  0.0944  0.5090
 8054TIP3    H245578   6.055   4.706   2.664 -0.8131 -1.5042  0.7429
 8055TIP3   OH245579   2.272   0.281  13.568 -0.1331 -0.3574  0.0318
 8055TIP3    H145580   2.240   0.365  13.600  1.2869 -0.2002  1.1339
 8055TIP3    H245581   2.196   0.223  13.573 -0.8168  0.5463  0.4226
 8056TIP3   OH245582   1.234   5.644  11.983 -0.3357  0.4190  0.6009
 8056TIP3    H145583   1.219   5.562  12.030 -2.0299  1.1654  1.4616
 8056TIP3    H245584   1.172   5.642  11.910  0.5256  0.3876 -0.1573
 8057TIP3   OH245585   3.311   4.281   4.790 -0.1590 -0.1102  0.2407
 8057TIP3    H145586   3.372   4.351   4.814  0.4227 -0.9171  1.2469
 8057TIP3    H245587   3.246   4.323   4.734  0.3280  1.1659  0.5963
 8058TIP3   OH245588   6.068   2.159   0.404 -0.2512 -0.0874  0.1635
 8058TIP3    H145589   6.126   2.185   0.333 -1.0705  0.1683 -0.4264
 8058TIP3    H245590   6.042   2.069   0.382  1.2834 -0.8758  1.3484
 8059TIP3   OH245591   1.791   6.722   5.597  0.6732 -0.0045  0.3440
 8059TIP3    H145592   1.883   6.722   5.570  1.0961 -1.4872  1.5908
 8059TIP3    H245593   1.762   6.812   5.586  1.8438  0.1970 -1.4606
 8060TIP3   OH245594   3.358   1.853   3.643  0.0644  0.2090 -0.0858
 8060TIP3    H145595   3.382   1.763   3.623 -0.2322 -0.0438  0.6681
 8060TIP3    H245596   3.265   1.850   3.665  0.2252  0.5644  0.6834
 8061TIP3   OH245597   2.593   0.608   1.528  0.0101 -0.0782  0.3086
 8061TIP3    H145598   2.687   0.616   1.511 -0.2276 -0.6011 -1.5163
 8061TIP3    H245599   2.569   0.690   1.571  0.9566  0.9329 -1.0245
 8062TIP3   OH245600   3.979   4.075   2.917  0.4991 -0.1947  0.1668
 8062TIP3    H145601   3.981   4.015   2.992  0.3611 -1.4054 -0.7783
 8062TIP3    H245602   3.980   4.162   2.957  0.9125 -0.8075  1.5682
 8063TIP3   OH245603   3.829   3.131  12.316 -0.0617  0.4521  0.9788
 8063TIP3    H145604   3.807   3.168  12.231  1.7923  1.3066  0.8105
 8063TIP3    H245605   3.806   3.038  12.310  0.7146  0.3438 -0.7237
 8064TIP3   OH245606   0.914   3.039   4.516  0.1964 -0.0120  0.2722
 8064TIP3    H145607   0.889   2.947   4.510 -0.3087  0.2275 -2.0864
 8064TIP3    H245608   1.005   3.038   4.546  0.6706 -1.3650 -1.1103
 8065TIP3   OH245609   3.438   3.791  15.275  0.1080  0.8286 -0.3216
 8065TIP3    H145610   3.393   3.792  15.360 -1.4464 -0.6056 -1.0676
 8065TIP3    H245611   3.499   3.718  15.282  1.2387  1.7897  0.1338
 8066TIP3   OH245612   0.534   3.500   6.160  0.3441 -0.0007 -0.0386
 8066TIP3    H145613   0.475   3.429   6.183  1.0332 -0.2076  1.2103
 8066TIP3    H245614   0.478   3.578   6.157 -0.2461 -0.4359 -0.4429
 8067TIP3   OH245615   4.500   4.128   4.579 -0.8100  0.1329  0.0043
 8067TIP3    H145616   4.507   4.131   4.484 -0.6499 -2.1328 -0.1065
 8067TIP3    H245617   4.587   4.104   4.609 -0.7501  1.2367  0.7921
 8068TIP3   OH245618   4.852   6.013   3.641  0.2283 -0.0445 -0.3605
 8068TIP3    H145619   4.885   6.003   3.552  0.9007  0.1808 -0.1426
 8068TIP3    H245620   4.757   6.010   3.632  0.2679  0.7244 -1.1844
 8069TIP3   OH245621   1.947   6.768   3.581 -0.2545  0.1995 -0.0120
 8069TIP3    H145622   1.995   6.717   3.515  0.5038 -1.4249  1.7137
 8069TIP3    H245623   1.969   6.859   3.561  0.4717 -0.2873 -1.6028
 8070TIP3   OH245624   3.522   5.300   3.293  0.4289  0.2631 -0.4147
 8070TIP3    H145625   3.572   5.272   3.216 -0.0468  1.3059 -1.1239
 8070TIP3    H245626   3.457   5.361   3.258  0.3431  0.9179  0.8521
 8071TIP3   OH245627   4.703   1.022  12.351  0.4225  0.0739  0.4710
 8071TIP3    H145628   4.759   0.982  12.284  0.1022 -2.6257  1.6817
 8071TIP3    H245629   4.625   1.051  12.304  1.1138  0.1814 -0.6333
 8072TIP3   OH245630   1.266   3.223  12.037  0.3674 -0.2988  0.7419
 8072TIP3    H145631   1.264   3.154  11.971  2.1443  1.4301 -1.2778
 8072TIP3    H245632   1.288   3.178  12.118  1.2466 -2.1607 -0.4500
 8073TIP3   OH245633   2.447   6.080   2.863  0.6176 -0.3983  0.4067
 8073TIP3    H145634   2.484   5.992   2.866  1.9306  0.0864 -0.6206
 8073TIP3    H245635   2.520   6.136   2.838 -0.5371  0.7757 -0.5014
 8074TIP3   OH245636   0.946   1.681   0.975 -0.8009  0.0432 -0.2494
 8074TIP3    H145637   1.028   1.689   1.023 -0.6501 -0.6571 -0.3721
 8074TIP3    H245638   0.914   1.594   0.998 -0.7497 -0.2824 -1.3699
 8075TIP3   OH245639   4.210   5.404  15.284 -0.0988 -0.1746 -0.2130
 8075TIP3    H145640   4.167   5.327  15.321  0.4888  0.1380  1.1897
 8075TIP3    H245641   4.194   5.398  15.190  1.3469 -2.9031 -0.3619
 8076TIP3   OH245642   5.209   5.637   4.546  0.1189  0.8238 -0.4490
 8076TIP3    H145643   5.296   5.675   4.547  0.0698  1.1449 -2.8504
 8076TIP3    H245644   5.160   5.686   4.612  1.9672 -0.0753  1.7129
 8077TIP3   OH245645   3.405   3.980   0.291  0.3032  0.4092  0.3944
 8077TIP3    H145646   3.472   4.042   0.319  0.4491  0.5821 -0.3396
 8077TIP3    H245647   3.397   3.992   0.197 -1.0591  0.6908  0.5141
 8078TIP3   OH245648   5.569   5.578   1.409 -0.1012  0.0368  0.2119
 8078TIP3    H145649   5.586   5.663   1.449 -0.9743  0.2810  0.0862
 8078TIP3    H245650   5.512   5.598   1.335 -1.2455 -0.7731  0.8551
 8079TIP3   OH245651   2.030   6.060   0.127 -0.3034 -0.4444  0.2143
 8079TIP3    H145652   2.031   6.057   0.223 -0.7498 -1.3594  0.2031
 8079TIP3    H245653   2.066   6.146   0.105  1.6632 -0.9816  1.1491
 8080TIP3   OH245654   4.178   1.592  16.652  0.0044 -0.1794  0.2706
 8080TIP3    H145655   4.201   1.589  16.745 -0.0626  0.9728  0.3461
 8080TIP3    H245656   4.261   1.609  16.608  0.0992 -1.1087  0.0758
 8081TIP3   OH245657   0.739   1.006   1.972  0.0351 -0.1319 -0.3154
 8081TIP3    H145658   0.789   1.021   2.052 -0.8092  0.2559  0.1481
 8081TIP3    H245659   0.672   1.074   1.973 -0.3496 -0.4952 -1.0574
 8082TIP3   OH245660   3.249   1.508   5.603 -0.1416 -0.1880  0.5237
 8082TIP3    H145661   3.248   1.569   5.529  0.4124 -1.7933 -0.8714
 8082TIP3    H245662   3.335   1.467   5.599  0.0350 -0.0761  2.3011
 8083TIP3   OH245663   6.461   2.450  17.032  0.1121  0.4952  0.1269
 8083TIP3    H145664   6.451   2.440  16.938  0.7586  1.4437 -0.0538
 8083TIP3    H245665   6.552   2.426  17.049 -0.2596 -0.6373  0.6666
 8084TIP3   OH245666   4.061   0.644  16.509 -0.0290 -0.1101  0.5260
 8084TIP3    H145667   4.014   0.613  16.586 -1.0975 -0.8544 -0.3695
 8084TIP3    H245668   4.002   0.708  16.469 -0.1322 -0.7580 -0.4058
 8085TIP3   OH245669   4.868   0.612  14.898 -0.0456 -0.8463  0.0653
 8085TIP3    H145670   4.912   0.695  14.878 -0.4345 -0.4665  0.7360
 8085TIP3    H245671   4.833   0.625  14.986 -0.9522 -1.3650 -0.2102
 8086TIP3   OH245672   0.996   1.122  15.966 -0.1843  0.0589 -0.0601
 8086TIP3    H145673   0.975   1.204  15.920  1.9368 -0.0728 -1.4362
 8086TIP3    H245674   1.075   1.143  16.016 -0.1946 -0.8886  0.3617
 8087TIP3   OH245675   2.807   5.050   0.612 -0.1073 -0.4097  0.0523
 8087TIP3    H145676   2.724   5.089   0.588 -0.2181 -0.5519  0.1982
 8087TIP3    H245677   2.872   5.118   0.596 -0.5238  0.6322  2.3074
 8088TIP3   OH245678   1.446   5.501   5.058  0.0187 -0.3014 -0.1974
 8088TIP3    H145679   1.494   5.423   5.030  1.1455  0.6077 -0.9093
 8088TIP3    H245680   1.505   5.545   5.119  0.3352  1.0523 -1.4075
 8089TIP3   OH245681   0.879   5.498  12.908  0.0975  0.3342 -0.1510
 8089TIP3    H145682   0.883   5.572  12.969 -0.6887  0.4314 -0.2169
 8089TIP3    H245683   0.798   5.452  12.930  1.0550 -1.1068  0.5540
 8090TIP3   OH245684   6.074   3.451   4.631  0.0998 -0.1788  0.1955
 8090TIP3    H145685   6.001   3.487   4.580  2.1299  2.3895 -1.1421
 8090TIP3    H245686   6.095   3.520   4.694  1.5119 -0.7657  0.4011
 8091TIP3   OH245687   3.799   1.088  15.533  0.9949  0.4487 -0.4954
 8091TIP3    H145688   3.827   1.056  15.618 -1.8871 -2.9046 -0.5827
 8091TIP3    H245689   3.870   1.064  15.474  1.6181 -0.1835  0.4786
 8092TIP3   OH245690   3.044   3.465  13.656 -0.8046 -0.5261 -0.2826
 8092TIP3    H145691   3.100   3.389  13.637  1.2315  0.4823  1.2353
 8092TIP3    H245692   2.966   3.428  13.696  1.0222 -1.8374  2.4112
 8093TIP3   OH245693   2.906   0.945   1.276 -0.0646 -0.2730  0.3975
 8093TIP3    H145694   2.814   0.931   1.299 -0.1666 -1.3558 -0.5682
 8093TIP3    H245695   2.952   0.940   1.360 -0.7124 -1.4901  0.7106
 8094TIP3   OH245696   0.369   3.477   2.609  0.2533 -0.3898 -0.0109
 8094TIP3    H145697   0.274   3.480   2.622 -0.0609  3.9604 -1.5680
 8094TIP3    H245698   0.382   3.408   2.544 -2.0878 -0.1629 -0.8064
 8095TIP3   OH245699   4.887   5.233   0.548 -0.5038 -0.1852 -0.2119
 8095TIP3    H145700   4.860   5.189   0.468 -2.1037 -1.6492  1.0623
 8095TIP3    H245701   4.820   5.210   0.613  1.1099  0.3042  1.7612
 8096TIP3   OH245702   3.184   3.188  16.613 -0.1531  0.6096 -0.5500
 8096TIP3    H145703   3.175   3.270  16.662 -0.3699 -0.4802  1.2968
 8096TIP3    H245704   3.243   3.210  16.541  0.8089  2.0783  0.6363
 8097TIP3   OH245705   2.910   4.510  16.424 -0.2716 -0.0821 -0.0683
 8097TIP3    H145706   2.856   4.547  16.354 -1.4530 -2.3925 -0.4806
 8097TIP3    H245707   2.863   4.531  16.504 -1.7646 -1.8948 -0.4122
 8098TIP3   OH245708   2.080   5.802   0.782 -0.0605 -0.1722 -0.1258
 8098TIP3    H145709   2.040   5.716   0.770 -0.0467 -0.3551  1.0090
 8098TIP3    H245710   2.012   5.864   0.757 -0.3629 -0.5079 -0.1432
 8099TIP3   OH245711   3.097   1.894   2.599 -0.0384 -0.1196  0.3756
 8099TIP3    H145712   3.166   1.855   2.652  0.8815 -0.6414 -1.1357
 8099TIP3    H245713   3.039   1.821   2.576 -0.4211  0.0980  0.6313
 8100TIP3   OH245714   0.122   2.237   5.257  0.4267  0.0022 -0.3978
 8100TIP3    H145715   0.183   2.211   5.326 -0.4386 -1.2724 -0.0776
 8100TIP3    H245716   0.039   2.194   5.280  0.3603 -1.3169 -2.7319
 8101TIP3   OH245717   3.453   0.014  11.597  0.6182 -0.8899  0.1158
 8101TIP3    H145718   3.474   0.052  11.512  0.9213  1.2949  1.0848
 8101TIP3    H245719   3.365  -0.022  11.587  1.0796 -1.6467 -1.4029
 8102TIP3   OH245720   4.405   4.462  13.091 -0.0592  0.0117 -0.4992
 8102TIP3    H145721   4.350   4.520  13.144  0.6604  0.8416 -0.6287
 8102TIP3    H245722   4.374   4.374  13.111 -0.0407  0.3315  1.0181
 8103TIP3   OH245723   5.136   4.175   4.253  0.0407  0.1114  0.0509
 8103TIP3    H145724   5.080   4.133   4.319  2.0061 -1.5798  0.7218
 8103TIP3    H245725   5.186   4.240   4.303 -2.2350  2.7668 -0.8029
 8104TIP3   OH245726   3.088   5.986  10.771  0.5623  0.0306  0.4526
 8104TIP3    H145727   3.079   5.964  10.678 -0.1373 -1.7151  0.8934
 8104TIP3    H245728   3.003   6.024  10.795 -0.6104 -2.7347  1.1241
 8105TIP3   OH245729   2.710   1.638  11.411  0.1500 -0.5389 -0.3330
 8105TIP3    H145730   2.706   1.733  11.425  0.4171 -0.5817  0.0689
 8105TIP3    H245731   2.798   1.623  11.377 -0.0484 -0.5925 -0.8262
 8106TIP3   OH245732   3.365   1.347   1.253  0.2293 -0.0380  0.1250
 8106TIP3    H145733   3.364   1.376   1.344 -0.5813  0.0909  0.0871
 8106TIP3    H245734   3.275   1.320   1.236  0.4003 -0.1673 -0.6062
 8107TIP3   OH245735   3.257   1.394  14.902  0.1612 -0.1310  0.3719
 8107TIP3    H145736   3.352   1.405  14.903  0.1559 -0.0158  1.8333
 8107TIP3    H245737   3.222   1.483  14.900  0.0756 -0.1779 -0.4616
 8108TIP3   OH245738   6.066   6.730   3.527 -0.0701 -0.5571 -0.1110
 8108TIP3    H145739   5.995   6.690   3.477  0.0718 -1.7699  0.6090
 8108TIP3    H245740   6.035   6.729   3.618  1.2874 -2.2115  0.3991
 8109TIP3   OH245741   5.461   4.612   6.304 -0.1832  0.4182  0.3896
 8109TIP3    H145742   5.452   4.566   6.387 -0.3724 -1.0011 -0.3934
 8109TIP3    H245743   5.554   4.607   6.283 -0.5846 -2.5647 -1.2586
 8110TIP3   OH245744   4.000   2.845   3.746 -0.9873  0.3138 -0.9092
 8110TIP3    H145745   3.947   2.765   3.752 -1.0694  0.4533  0.7219
 8110TIP3    H245746   3.937   2.914   3.723 -1.3982  0.3395  0.2284
 8111TIP3   OH245747   2.150   4.472  12.980  0.0295  0.5005  0.1996
 8111TIP3    H145748   2.073   4.430  12.942  0.1079 -0.2342  0.8276
 8111TIP3    H245749   2.212   4.480  12.908  0.2657 -1.0848  0.2007
 8112TIP3   OH245750   2.160   1.355   2.335  0.2517 -0.2656  0.7069
 8112TIP3    H145751   2.158   1.278   2.278 -1.1227 -1.2654  2.0062
 8112TIP3    H245752   2.233   1.338   2.395 -0.3640 -0.8463  1.3167
 8113TIP3   OH245753   0.746   0.438  11.076  0.0233 -0.5101 -0.5859
 8113TIP3    H145754   0.770   0.425  10.985 -0.7348 -0.1482 -0.8459
 8113TIP3    H245755   0.654   0.411  11.081  0.0438 -0.4799  0.0522
 8114TIP3   OH245756   5.953   6.303   0.323 -0.3723 -0.5720 -0.4015
 8114TIP3    H145757   5.938   6.294   0.229 -1.9868  4.1365 -0.8676
 8114TIP3    H245758   6.039   6.344   0.331  0.6430 -2.6976  0.4433
 8115TIP3   OH245759   3.618   0.985   3.306 -0.2863  0.1959  0.0659
 8115TIP3    H145760   3.714   0.983   3.312 -0.1622  1.4999 -0.9539
 8115TIP3    H245761   3.593   0.894   3.292  0.7752 -0.2187  0.7532
 8116TIP3   OH245762   5.535   3.598   3.486 -0.3311  0.2135 -0.1106
 8116TIP3    H145763   5.469   3.639   3.430 -0.3534 -0.8352 -0.8572
 8116TIP3    H245764   5.538   3.655   3.563 -1.0075  1.1231 -0.7318
 8117TIP3   OH245765   1.449   2.260   4.812 -0.1491 -0.5132 -0.8071
 8117TIP3    H145766   1.502   2.232   4.886  0.4402  0.7587 -0.7120
 8117TIP3    H245767   1.497   2.230   4.735  0.1976 -0.2287 -0.7017
 8118TIP3   OH245768   3.020   0.033   1.577  0.1593  0.4896 -0.0537
 8118TIP3    H145769   3.033  -0.041   1.636  0.7586 -0.2371 -1.0656
 8118TIP3    H245770   2.973   0.097   1.630  1.7157  0.3696  1.6160
 8119TIP3   OH245771   0.698   1.516   4.354  0.7993  0.6488  0.4739
 8119TIP3    H145772   0.752   1.591   4.380  1.8109  0.2090 -0.2683
 8119TIP3    H245773   0.700   1.517   4.258  0.1567  0.1407  0.4474
 8120TIP3   OH245774   6.317   1.352   5.082 -0.1194 -0.6882 -0.0396
 8120TIP3    H145775   6.403   1.383   5.111  0.1447 -1.0288 -0.4343
 8120TIP3    H245776   6.315   1.260   5.108 -0.0780 -0.8657 -0.6506
 8121TIP3   OH245777   3.697   4.401  15.092  0.3657 -0.8160 -0.0163
 8121TIP3    H145778   3.662   4.479  15.133 -0.6487 -1.2923  0.0686
 8121TIP3    H245779   3.792   4.415  15.088  0.4999 -0.7072  2.3632
 8122TIP3   OH245780   4.576   2.884   4.102  0.1433 -0.1007 -0.7726
 8122TIP3    H145781   4.671   2.882   4.101  0.1876 -3.4455 -0.1083
 8122TIP3    H245782   4.551   2.891   4.010  1.0705 -1.1328 -1.1224
 8123TIP3   OH245783   4.721   6.755   5.659 -0.0534 -0.7174  0.2933
 8123TIP3    H145784   4.757   6.741   5.747 -1.4014  0.1171  1.0142
 8123TIP3    H245785   4.725   6.850   5.646  1.0867 -0.9060 -1.0040
 8124TIP3   OH245786   0.877   1.136  15.657  0.6145 -0.0526  0.0205
 8124TIP3    H145787   0.811   1.122  15.589 -1.2817  1.1280  1.5076
 8124TIP3    H245788   0.944   1.069  15.640 -0.7993 -1.1088 -1.7373
 8125TIP3   OH245789   4.154   3.809   6.066 -0.3353  0.0184 -0.3478
 8125TIP3    H145790   4.183   3.893   6.102 -0.9673 -0.1809  0.6576
 8125TIP3    H245791   4.084   3.781   6.125  0.1371 -1.4045 -0.4423
 8126TIP3   OH245792   3.146   1.902   5.045 -0.9265 -0.2432 -0.5719
 8126TIP3    H145793   3.174   1.814   5.021 -0.7187 -0.0771 -0.9478
 8126TIP3    H245794   3.064   1.915   4.996 -1.1590 -0.3700 -0.2195
 8127TIP3   OH245795   4.150   2.720  14.617 -0.2525 -0.0705 -0.4030
 8127TIP3    H145796   4.173   2.641  14.568 -1.7057 -0.4398 -0.5598
 8127TIP3    H245797   4.077   2.692  14.672 -1.2847  1.3334 -1.0075
 8128TIP3   OH245798   4.557   0.817   0.974  0.1074  0.1787 -0.1948
 8128TIP3    H145799   4.619   0.745   0.959 -0.2937 -0.2130  0.0324
 8128TIP3    H245800   4.541   0.817   1.068  0.8410  1.1822 -0.0518
 8129TIP3   OH245801   6.420   3.876   4.792  0.3568  0.0442  0.3605
 8129TIP3    H145802   6.385   3.910   4.874 -0.3639 -0.4274  0.2485
 8129TIP3    H245803   6.363   3.912   4.725  0.1457 -0.6458  0.1706
 8130TIP3   OH245804   4.674   4.105   1.855  0.3296  0.3568  0.3182
 8130TIP3    H145805   4.640   4.192   1.835  0.3292  0.6069  1.3819
 8130TIP3    H245806   4.612   4.045   1.814  0.0587  0.8474  0.0061
 8131TIP3   OH245807   6.085   1.435   1.500  0.1132 -0.0309 -0.1032
 8131TIP3    H145808   6.113   1.504   1.440 -0.7038 -0.6100 -1.1938
 8131TIP3    H245809   6.138   1.449   1.579  0.3549  1.4834 -0.4983
 8132TIP3   OH245810   1.241   0.860   5.606 -0.3436 -0.1228 -0.1522
 8132TIP3    H145811   1.309   0.796   5.629 -1.7859 -1.8990 -0.5536
 8132TIP3    H245812   1.262   0.886   5.517  0.9784  1.0065  0.4461
 8133TIP3   OH245813   1.061   1.679  15.418 -0.5248 -0.1476  0.0218
 8133TIP3    H145814   1.153   1.702  15.435 -0.3771 -1.2417  0.8364
 8133TIP3    H245815   1.011   1.731  15.481 -0.2849 -1.0795  1.0196
 8134TIP3   OH245816   5.196   0.773  12.616 -0.2789  0.2596 -0.5082
 8134TIP3    H145817   5.157   0.860  12.609  0.5664  0.6091 -1.1127
 8134TIP3    H245818   5.266   0.783  12.681  1.9109  0.8892 -2.7878
 8135TIP3   OH245819   6.360   5.104   5.766  0.0388 -0.3620 -0.0348
 8135TIP3    H145820   6.291   5.114   5.831  0.4725 -1.7104  0.6664
 8135TIP3    H245821   6.416   5.181   5.779 -0.3796 -0.1516  0.5626
 8136TIP3   OH245822   5.028   3.788  10.781  0.1445 -0.4642 -0.1256
 8136TIP3    H145823   5.112   3.768  10.738 -0.4620 -0.2592 -1.4417
 8136TIP3    H245824   5.029   3.734  10.860  1.5268 -0.4536 -0.0987
 8137TIP3   OH245825   2.271   4.576   1.718  0.9131  0.0889 -0.1188
 8137TIP3    H145826   2.268   4.661   1.761  1.1232  0.6186 -1.1055
 8137TIP3    H245827   2.186   4.537   1.735 -0.2615  1.6796 -1.9370
 8138TIP3   OH245828   2.266   5.887  11.623  0.7123  0.0493  0.1810
 8138TIP3    H145829   2.181   5.904  11.582 -0.6099 -1.5576  2.0659
 8138TIP3    H245830   2.289   5.971  11.664 -1.3743 -0.1642  1.9643
 8139TIP3   OH245831   2.544   4.840  14.542  0.0167  0.6464 -0.7196
 8139TIP3    H145832   2.456   4.872  14.563 -0.7733 -1.8120  0.0487
 8139TIP3    H245833   2.530   4.770  14.478  1.3927  0.2187 -0.5965
 8140TIP3   OH245834   5.045   0.217   4.677 -0.3029 -0.7676  0.1722
 8140TIP3    H145835   4.977   0.247   4.737  1.2581 -0.4050  1.8406
 8140TIP3    H245836   5.078   0.136   4.716 -0.1811 -1.2816 -0.9473
 8141TIP3   OH245837   3.958   4.065   4.797  0.2650 -0.7849 -0.3694
 8141TIP3    H145838   3.880   4.056   4.742 -0.8019  1.2432  0.7147
 8141TIP3    H245839   3.956   4.155   4.828  2.3402 -1.0695  0.7717
 8142TIP3   OH245840   4.273   1.400   3.729  0.0601  0.0521 -0.5230
 8142TIP3    H145841   4.266   1.493   3.710  1.9655  0.0715 -1.2393
 8142TIP3    H245842   4.356   1.390   3.775 -0.1103 -1.3098 -0.4518
 8143TIP3   OH245843   6.161   6.747  12.600  0.3846  0.1031  0.8282
 8143TIP3    H145844   6.116   6.827  12.629 -1.6113  0.2706 -2.2523
 8143TIP3    H245845   6.173   6.759  12.506 -0.6928 -3.4937  0.0726
 8144TIP3   OH245846   5.841   0.713   3.472  0.5346 -0.5463 -0.4000
 8144TIP3    H145847   5.768   0.709   3.534  0.1509 -0.9328 -0.8755
 8144TIP3    H245848   5.832   0.799   3.431  2.5377  1.0601  2.1716
 8145TIP3   OH245849   6.253   4.946   4.854  0.0399  0.5221 -0.1100
 8145TIP3    H145850   6.238   4.949   4.759 -0.6919 -1.4048 -0.1057
 8145TIP3    H245851   6.346   4.965   4.864 -0.1745  2.2419 -1.0650
 8146TIP3   OH245852   6.358   2.050  15.945 -0.0025 -0.1556  0.2077
 8146TIP3    H145853   6.384   1.963  15.915  0.1116 -0.3727  0.9213
 8146TIP3    H245854   6.263   2.045  15.955  0.2041 -0.8296  2.1753
 8147TIP3   OH245855   2.779   6.062  13.648  0.3138  0.1366 -0.3570
 8147TIP3    H145856   2.707   6.123  13.666 -0.5651 -0.9519 -0.0931
 8147TIP3    H245857   2.752   6.017  13.568 -0.7259 -2.2841  1.2237
 8148TIP3   OH245858   2.844   6.394   3.420 -0.1144  0.0676  0.0948
 8148TIP3    H145859   2.833   6.309   3.463  1.6168 -0.0337  0.3935
 8148TIP3    H245860   2.757   6.416   3.388 -0.8541 -1.2153  1.1386
 8149TIP3   OH245861   5.562   1.286  10.942 -0.6212  0.2600  0.4606
 8149TIP3    H145862   5.654   1.311  10.937 -0.4335 -0.2770  1.1073
 8149TIP3    H245863   5.543   1.246  10.857 -0.9216  2.4790 -0.6091
 8150TIP3   OH245864   5.389   5.840   4.484  0.4512  0.4290  0.1365
 8150TIP3    H145865   5.477   5.876   4.499 -0.1499  1.2711  1.8206
 8150TIP3    H245866   5.347   5.903   4.426  0.0476  1.5324  1.5617
 8151TIP3   OH245867   5.347   1.862   4.819 -0.3299  0.2063 -0.5584
 8151TIP3    H145868   5.361   1.860   4.725  0.4560  1.1289 -0.4790
 8151TIP3    H245869   5.277   1.798   4.835 -0.2982 -0.1344 -1.7253
 8152TIP3   OH245870   3.670   2.415  13.106  0.4814  0.1373  0.2526
 8152TIP3    H145871   3.660   2.320  13.109  0.2273  0.1790  1.3090
 8152TIP3    H245872   3.598   2.444  13.050 -0.1201 -0.2244  0.8137
 8153TIP3   OH245873   2.813   0.590   4.732 -0.4416  0.3999  0.4619
 8153TIP3    H145874   2.897   0.611   4.773 -0.0856  0.4421 -0.2681
 8153TIP3    H245875   2.763   0.546   4.800  0.9933 -1.6053  0.2996
 8154TIP3   OH245876   2.400   1.570   0.679 -0.2246 -0.2095  0.4658
 8154TIP3    H145877   2.383   1.476   0.679 -2.7501  0.1625  0.7483
 8154TIP3    H245878   2.352   1.603   0.603 -1.1040  1.0739  1.5317
 8155TIP3   OH245879   5.021   4.472   2.057 -0.0165  0.4338 -0.5786
 8155TIP3    H145880   5.007   4.381   2.032  1.3500  0.8320 -3.1814
 8155TIP3    H245881   4.998   4.522   1.979  1.9095  2.0757 -0.1968
 8156TIP3   OH245882   0.872   1.320   5.302  0.4056  0.2351 -0.0013
 8156TIP3    H145883   0.901   1.407   5.274 -0.1534  0.2237 -0.6200
 8156TIP3    H245884   0.818   1.288   5.230 -2.0265  0.6659  1.5102
 8157TIP3   OH245885   5.176   0.530  14.791  0.7733 -0.5235  0.0816
 8157TIP3    H145886   5.210   0.445  14.764 -0.0029 -0.7285 -0.2941
 8157TIP3    H245887   5.199   0.538  14.883 -1.8355 -2.5625  1.0304
 8158TIP3   OH245888   5.669   1.838   6.513 -0.1158  0.2321  0.5361
 8158TIP3    H145889   5.603   1.775   6.543  0.1997  0.7374  2.4079
 8158TIP3    H245890   5.619   1.917   6.492 -0.3771 -0.2257 -0.5900
 8159TIP3   OH245891   6.240   1.424  14.523  0.3786  0.4583 -1.0486
 8159TIP3    H145892   6.171   1.453  14.583  1.2924 -0.2124  0.3912
 8159TIP3    H245893   6.303   1.496  14.522  0.7191  0.1698 -0.6163
 8160TIP3   OH245894   1.906   4.046   0.432  0.6113  0.4295  0.0091
 8160TIP3    H145895   1.895   4.134   0.467  1.5403  0.4420  0.2890
 8160TIP3    H245896   1.904   4.057   0.337  0.2165  0.6765  0.0434
 8161TIP3   OH245897   2.416   0.112   4.260  0.0112 -1.0949  0.5874
 8161TIP3    H145898   2.397   0.183   4.321 -0.3565 -1.1431  0.5275
 8161TIP3    H245899   2.436   0.157   4.178  0.5609 -1.0273  0.7527
 8162TIP3   OH245900   1.475   4.752   0.944 -0.3370  0.1854  0.5383
 8162TIP3    H145901   1.404   4.810   0.917  0.0387 -0.2930 -1.6612
 8162TIP3    H245902   1.443   4.663   0.926  0.2869 -0.1073  0.8183
 8163TIP3   OH245903   5.341   0.296   6.131  0.2110  0.3247  0.5649
 8163TIP3    H145904   5.260   0.323   6.088 -0.1430 -0.9394  0.4014
 8163TIP3    H245905   5.371   0.374   6.177  0.1734  1.5132 -1.3150
 8164TIP3   OH245906   6.166   6.252  15.385 -0.0370  0.4110 -0.4036
 8164TIP3    H145907   6.172   6.347  15.383  0.0746  0.4067 -0.3109
 8164TIP3    H245908   6.218   6.226  15.462 -0.9125  0.3468  0.1838
 8165TIP3   OH245909   6.329   2.763   3.161 -0.3975  0.3193  0.2606
 8165TIP3    H145910   6.299   2.826   3.227  0.3964 -0.2596  1.1861
 8165TIP3    H245911   6.386   2.703   3.208 -0.5439 -0.6665 -0.7693
 8166TIP3   OH245912   4.434   6.653  16.441 -0.2933 -0.2951 -0.5722
 8166TIP3    H145913   4.485   6.587  16.489  0.1797 -0.5207 -1.3617
 8166TIP3    H245914   4.484   6.667  16.360  0.9486  2.7916  0.5691
 8167TIP3   OH245915   1.395   0.664   2.633  0.0444  0.0028  0.4791
 8167TIP3    H145916   1.456   0.653   2.706  1.3560 -0.7117 -0.6787
 8167TIP3    H245917   1.321   0.607   2.655 -0.0641  0.5681  1.7113
 8168TIP3   OH245918   6.708   2.751  13.589 -0.1692 -0.5583  0.1766
 8168TIP3    H145919   6.697   2.666  13.548  0.2637 -0.3707 -0.3507
 8168TIP3    H245920   6.663   2.812  13.530  0.3049 -0.3083  0.0705
 8169TIP3   OH245921   4.322   4.833  11.083  0.0623 -0.3892 -0.3304
 8169TIP3    H145922   4.362   4.910  11.042  1.9369  0.3448  2.5861
 8169TIP3    H245923   4.394   4.771  11.095 -0.4336 -0.6991  1.4273
 8170TIP3   OH245924   1.474   6.260   1.177  0.0265  0.0051  0.8773
 8170TIP3    H145925   1.448   6.345   1.142  0.4788 -0.1793  0.0703
 8170TIP3    H245926   1.526   6.282   1.255  0.1532  0.4721  0.6690
 8171TIP3   OH245927   2.921   6.137   1.224  0.5076 -0.5373 -0.0040
 8171TIP3    H145928   3.006   6.124   1.182 -0.2688 -2.5109 -1.0672
 8171TIP3    H245929   2.941   6.188   1.302  2.6228 -0.6909 -0.3843
 8172TIP3   OH245930   6.261   0.109  16.535  0.2949  0.4253  0.7456
 8172TIP3    H145931   6.332   0.052  16.507  0.9417  1.5708 -0.0382
 8172TIP3    H245932   6.303   0.194  16.552 -0.9243  1.2475 -0.1410
 8173TIP3   OH245933   2.265   2.304   5.233 -0.3708 -0.1267 -0.1593
 8173TIP3    H145934   2.331   2.300   5.303 -0.7135  0.7802  0.2216
 8173TIP3    H245935   2.309   2.350   5.161 -0.5691  0.4506  0.0836
 8174TIP3   OH245936   0.140   1.263   6.283  0.0393 -0.7130 -0.2983
 8174TIP3    H145937   0.197   1.329   6.245 -1.1847  0.3952 -0.2696
 8174TIP3    H245938   0.085   1.311   6.345 -1.8718 -1.4626 -1.3278
 8175TIP3   OH245939   5.947   1.584   0.561  0.4199 -0.1697 -0.0286
 8175TIP3    H145940   5.943   1.494   0.527 -0.9696 -0.5361  1.0039
 8175TIP3    H245941   6.008   1.579   0.634 -0.3699 -0.5222  0.6304
 8176TIP3   OH245942   2.441   2.007   1.776 -0.2678 -0.4928 -0.1442
 8176TIP3    H145943   2.492   1.931   1.804  1.8245  0.1499 -1.8942
 8176TIP3    H245944   2.494   2.083   1.800 -1.6516  0.3817  0.2970
 8177TIP3   OH245945   4.927   1.069  15.688 -0.4344 -0.1384 -0.2349
 8177TIP3    H145946   4.843   1.045  15.650 -1.5161 -0.4224  2.1169
 8177TIP3    H245947   4.958   0.990  15.731 -0.5951  0.7613  1.6508
 8178TIP3   OH245948   2.295   1.930   2.729 -0.0775 -0.4042  0.1157
 8178TIP3    H145949   2.301   2.014   2.684 -1.4589  0.8402  2.0622
 8178TIP3    H245950   2.230   1.881   2.679  1.4051 -0.7437 -1.5732
 8179TIP3   OH245951   1.204   4.944   4.763 -0.0618 -0.7014  0.0577
 8179TIP3    H145952   1.232   4.872   4.819 -0.7246 -0.5029  0.6424
 8179TIP3    H245953   1.267   4.942   4.690 -0.4124 -2.2305 -0.2461
 8180TIP3   OH245954   2.218   4.940  16.813 -0.3077  0.4115  0.7471
 8180TIP3    H145955   2.170   4.861  16.839 -0.0960  0.4026  1.1037
 8180TIP3    H245956   2.307   4.926  16.843  0.5857 -0.6899 -2.1350
 8181TIP3   OH245957   4.644   1.463   1.478 -0.1306  0.2946  0.6428
 8181TIP3    H145958   4.723   1.472   1.425 -1.0514  3.3880 -0.4603
 8181TIP3    H245959   4.573   1.458   1.415 -0.9868 -0.1611  1.6139
 8182TIP3   OH245960   1.772   2.101   0.566 -0.0756 -0.0921 -0.8352
 8182TIP3    H145961   1.825   2.144   0.634  0.8517 -1.6335 -0.5332
 8182TIP3    H245962   1.682   2.125   0.587  0.2917  0.3901  0.2778
 8183TIP3   OH245963   5.435   6.048   0.379 -0.4711  0.2203 -0.1543
 8183TIP3    H145964   5.348   6.042   0.339 -1.0737 -0.2173  1.1748
 8183TIP3    H245965   5.492   5.999   0.319 -1.0802  0.6713 -1.1408
 8184TIP3   OH245966   1.820   2.525  12.965 -0.1239 -0.1447  0.1843
 8184TIP3    H145967   1.817   2.532  13.060 -0.3309  1.5417  0.0838
 8184TIP3    H245968   1.909   2.551  12.942  0.3763 -1.9059 -0.0275
 8185TIP3   OH245969   3.674   4.913   5.265  0.0434 -0.4219 -0.5946
 8185TIP3    H145970   3.680   4.847   5.334 -0.5786  0.0206 -0.1078
 8185TIP3    H245971   3.612   4.875   5.202 -1.1360  0.1160  0.1942
 8186TIP3   OH245972   5.912   0.521   5.460 -0.1682  0.1901 -0.5061
 8186TIP3    H145973   5.956   0.606   5.454  0.7822 -0.1225  1.3496
 8186TIP3    H245974   5.824   0.537   5.427  0.4770  1.4944 -1.7038
 8187TIP3   OH245975   5.799   5.068  15.685 -0.6976  0.1981 -0.5132
 8187TIP3    H145976   5.855   5.088  15.761 -2.4874  0.3174  0.8459
 8187TIP3    H245977   5.756   5.151  15.664  0.5748  0.4331 -2.4082
 8188TIP3   OH245978   0.712   2.441   1.025  0.2984  0.2553  0.0403
 8188TIP3    H145979   0.642   2.376   1.016  0.1359  0.2455  1.1697
 8188TIP3    H245980   0.768   2.428   0.948  0.5164 -1.5192  0.4585
 8189TIP3   OH245981   6.567   6.439   0.151 -0.0928 -0.2736  0.4170
 8189TIP3    H145982   6.572   6.347   0.126  2.4503  0.6282 -3.3105
 8189TIP3    H245983   6.647   6.455   0.201 -0.8251 -0.1441  1.5915
 8190TIP3   OH245984   0.316   6.273  11.667  0.2703 -0.3296 -0.0319
 8190TIP3    H145985   0.369   6.270  11.746 -1.0480 -0.4869  0.8744
 8190TIP3    H245986   0.300   6.366  11.652 -0.3126 -0.3391  0.4829
 8191TIP3   OH245987   0.865   4.752  12.897  0.3221  0.4871 -0.0792
 8191TIP3    H145988   0.900   4.683  12.954  1.5592  1.0173 -0.1719
 8191TIP3    H245989   0.781   4.775  12.937 -0.3308 -1.3404 -0.2828
 8192TIP3   OH245990   1.241   6.615   4.952  0.3731  0.5931 -0.8177
 8192TIP3    H145991   1.273   6.705   4.948  2.6181  0.0161  1.3429
 8192TIP3    H245992   1.182   6.614   5.026  0.4931  0.2517 -0.7260
 8193TIP3   OH245993   6.731   4.223  13.149  0.3312 -0.2269  0.2659
 8193TIP3    H145994   6.672   4.263  13.213  1.1545  1.4605  0.0152
 8193TIP3    H245995   6.817   4.226  13.190  1.0596  1.8093 -1.2473
 8194TIP3   OH245996   1.020   3.994   1.585  0.2227  0.2300 -0.1378
 8194TIP3    H145997   1.111   3.977   1.609 -0.1249  0.9045  1.8565
 8194TIP3    H245998   1.025   4.032   1.497  1.9091  0.6351  0.1049
 8195TIP3   OH245999   4.533   6.730   6.308 -0.2130 -0.4447 -0.2586
 8195TIP3    H146000   4.563   6.821   6.319  0.6401 -0.8192  0.6519
 8195TIP3    H246001   4.494   6.707   6.392  1.5381 -1.6066  0.2917
 8196TIP3   OH246002   5.300   4.910   5.539 -0.2410  0.4966 -0.0001
 8196TIP3    H146003   5.341   4.937   5.621  1.0765 -0.3819 -0.3395
 8196TIP3    H246004   5.373   4.881   5.484 -1.1931  0.1810 -1.1382
 8197TIP3   OH246005   0.418   2.283   3.149  0.2928  0.0929 -0.7175
 8197TIP3    H146006   0.505   2.250   3.125  1.2316  1.9355 -0.0055
 8197TIP3    H246007   0.362   2.257   3.077  1.5077 -0.7990 -1.3825
 8198TIP3   OH246008   2.341   4.761  11.407  0.4798  0.2060 -0.4563
 8198TIP3    H146009   2.297   4.693  11.459 -2.1677  1.2582 -1.1612
 8198TIP3    H246010   2.389   4.813  11.471  0.8149 -1.0654  0.3600
 8199TIP3   OH246011   2.020   3.501  16.706  0.3963 -0.0343  0.3457
 8199TIP3    H146012   2.020   3.421  16.655  0.6041 -0.1374  0.5106
 8199TIP3    H246013   2.112   3.520  16.722  0.3126 -0.3399  1.2143
 8200TIP3   OH246014   6.501   6.352   1.560  0.0283 -0.1293  0.6506
 8200TIP3    H146015   6.426   6.410   1.570 -0.9244 -1.3937  1.2066
 8200TIP3    H246016   6.482   6.278   1.618  1.4478 -0.7341  0.3913
 8201TIP3   OH246017   1.344   2.771   1.235  0.0312  0.1246 -0.2519
 8201TIP3    H146018   1.366   2.864   1.242 -1.6223  0.4580  1.0994
 8201TIP3    H246019   1.375   2.733   1.317  0.6272 -0.5228 -0.7654
 8202TIP3   OH246020   4.903   5.972   5.819  0.2975 -1.5947  0.3386
 8202TIP3    H146021   4.842   6.029   5.771  0.5174 -2.4854 -1.0708
 8202TIP3    H246022   4.940   5.915   5.751  3.6635 -0.2770  0.8756
 8203TIP3   OH246023   6.388   5.890  16.933 -0.1647 -0.3091  0.3624
 8203TIP3    H146024   6.366   5.880  17.025  0.0276 -1.6239  0.2977
 8203TIP3    H246025   6.312   5.932  16.893 -0.4735 -0.2391  1.0214
 8204TIP3   OH246026   2.348   5.762  16.939 -0.6100 -0.2157  0.3390
 8204TIP3    H146027   2.324   5.703  17.011  1.1851 -0.2417  0.9683
 8204TIP3    H246028   2.401   5.830  16.980 -0.4118  0.3501 -0.8114
 8205TIP3   OH246029   1.464   6.406   2.675  0.4533  0.9787  0.2067
 8205TIP3    H146030   1.437   6.326   2.719  3.1894 -1.1002 -1.5663
 8205TIP3    H246031   1.397   6.420   2.607 -0.0649  0.2284  0.5509
 8206TIP3   OH246032   5.158   5.930  16.823  0.5260  0.7019  0.2525
 8206TIP3    H146033   5.095   5.942  16.752  1.6754  1.9551 -0.6054
 8206TIP3    H246034   5.240   5.907  16.779  0.6177 -1.3900  1.3732
 8207TIP3   OH246035   0.090   0.949   4.045  0.0994 -0.0401 -0.4073
 8207TIP3    H146036   0.068   0.955   3.952  2.5407 -0.0933 -1.0648
 8207TIP3    H246037   0.048   1.024   4.085 -0.3148  0.4515 -1.7255
 8208TIP3   OH246038   2.288   3.089  13.112  0.3635  0.6170 -0.4959
 8208TIP3    H146039   2.284   3.073  13.017 -1.5229 -1.5060 -0.1487
 8208TIP3    H246040   2.280   3.184  13.121 -1.8918  0.7012 -2.4174
 8209TIP3   OH246041   0.800   4.522   1.130  0.3451  0.1306 -0.5293
 8209TIP3    H146042   0.779   4.599   1.077 -1.1124  0.6097  0.6877
 8209TIP3    H246043   0.732   4.458   1.109  0.5724 -0.1980 -0.2834
 8210TIP3   OH246044   5.329   6.291  10.945 -0.0605 -0.5743  0.9155
 8210TIP3    H146045   5.326   6.342  11.026 -1.7246  1.1775 -0.1617
 8210TIP3    H246046   5.317   6.356  10.875  0.5706 -2.1204 -0.7105
 8211TIP3   OH246047   2.403   3.753  11.321 -0.5487 -0.0417  0.1422
 8211TIP3    H146048   2.388   3.660  11.337  2.0413 -0.5821 -0.1813
 8211TIP3    H246049   2.435   3.758  11.232 -0.1049  1.0984  0.3435
 8212TIP3   OH246050   1.007   5.289  13.778 -0.1352  0.0499 -0.0276
 8212TIP3    H146051   1.044   5.347  13.712 -1.4214  1.6179  0.5585
 8212TIP3    H246052   0.915   5.281  13.754 -0.9977  1.8407  2.2634
 8213TIP3   OH246053   2.485   5.359  15.897  0.1753  0.1362 -0.5978
 8213TIP3    H146054   2.508   5.350  15.805 -0.0318  0.8161 -0.7227
 8213TIP3    H246055   2.554   5.313  15.944  1.0038  0.9036 -1.0381
 8214TIP3   OH246056   0.357   3.581   1.244  0.8342 -0.0382  0.2854
 8214TIP3    H146057   0.434   3.590   1.188  0.6235 -0.4499 -0.0757
 8214TIP3    H246058   0.356   3.489   1.270 -0.8810 -0.6617 -1.7028
 8215TIP3   OH246059   0.144   0.313  11.490 -0.1442  0.2288 -0.8474
 8215TIP3    H146060   0.077   0.355  11.437 -0.6772  0.5574  0.0583
 8215TIP3    H246061   0.179   0.384  11.545 -1.1524 -0.4888  0.7983
 8216TIP3   OH246062   3.272   6.537   1.489 -0.0354  0.7076  0.6706
 8216TIP3    H146063   3.232   6.596   1.425 -0.1301  1.1520  1.1344
 8216TIP3    H246064   3.211   6.539   1.564  0.1258  0.2752  0.8149
 8217TIP3   OH246065   3.925   4.268  16.495 -0.1210  0.0695  0.0077
 8217TIP3    H146066   3.891   4.252  16.583  0.7769 -0.9436  0.1889
 8217TIP3    H246067   3.846   4.272  16.440 -0.7285  1.3508  0.9274
 8218TIP3   OH246068   6.482   1.503   0.045 -0.0900 -0.2831  0.2736
 8218TIP3    H146069   6.394   1.528   0.073  0.1550  0.2771  0.5712
 8218TIP3    H246070   6.535   1.508   0.124 -0.1859 -2.6927  0.5606
 8219TIP3   OH246071   5.773   0.709  15.288  0.2899  0.5106  0.2042
 8219TIP3    H146072   5.807   0.625  15.317 -0.6780  0.3317  0.8627
 8219TIP3    H246073   5.711   0.735  15.356 -1.9224  0.1849 -1.5925
 8220TIP3   OH246074   3.360   2.943  13.870  0.6618 -0.2421  0.7177
 8220TIP3    H146075   3.277   2.896  13.872 -0.3574  1.4566  0.0901
 8220TIP3    H246076   3.366   2.986  13.956 -0.4597  1.7840 -0.1481
 8221TIP3   OH246077   1.747   0.760  13.041 -0.4732 -0.2182 -0.4959
 8221TIP3    H146078   1.768   0.689  13.102  0.7136  0.7729  0.3267
 8221TIP3    H246079   1.815   0.755  12.974 -0.1238  0.3883 -0.1966
 8222TIP3   OH246080   3.024   4.808  12.299 -0.2493 -0.1462  0.6320
 8222TIP3    H146081   3.025   4.904  12.294 -0.9287 -0.1564  0.0824
 8222TIP3    H246082   3.010   4.780  12.208  1.1881 -0.8047  0.5876
 8223TIP3   OH246083   4.186   0.054   0.764 -0.1629 -0.4484  0.2064
 8223TIP3    H146084   4.202   0.049   0.670 -1.1364 -0.4449  0.0226
 8223TIP3    H246085   4.094   0.079   0.771 -0.6080 -2.1506  1.1453
 8224TIP3   OH246086   3.629   1.929  15.641 -0.8160  0.0801 -0.1341
 8224TIP3    H146087   3.598   1.935  15.731 -0.6199 -1.4336  0.0578
 8224TIP3    H246088   3.614   1.838  15.616 -1.0703  0.5247 -1.7213
 8225TIP3   OH246089   4.555   6.417  16.526 -0.6282 -0.2603 -0.7168
 8225TIP3    H146090   4.637   6.450  16.564 -0.5645  0.4374 -1.4184
 8225TIP3    H246091   4.544   6.330  16.564  0.0666 -0.0780 -0.0666
 8226TIP3   OH246092   1.813   1.474  16.714  0.0886  0.3111  0.4201
 8226TIP3    H146093   1.761   1.528  16.654 -0.1744  1.1763  1.4174
 8226TIP3    H246094   1.900   1.513  16.713  0.0393  0.4323  0.7262
 8227TIP3   OH246095   4.433   0.463  15.560  0.5074  0.1035 -0.0120
 8227TIP3    H146096   4.430   0.376  15.600  0.1829 -0.1591 -0.6020
 8227TIP3    H246097   4.371   0.458  15.488  1.4427  0.4245 -0.8615
 8228TIP3   OH246098   5.020   6.307  14.121 -0.0964  0.5443  0.1092
 8228TIP3    H146099   5.005   6.381  14.180  0.9956  0.8366  0.0308
 8228TIP3    H246100   4.986   6.338  14.037 -1.8178  0.0636  0.5737
 8229TIP3   OH246101   5.612   2.632  11.503 -0.3216 -0.1861 -0.2909
 8229TIP3    H146102   5.556   2.555  11.500  0.3189 -0.6270 -1.1177
 8229TIP3    H246103   5.611   2.658  11.595  0.2706 -1.7892  0.1947
 8230TIP3   OH246104   0.020   5.356  15.621  0.1034  0.7148  0.1393
 8230TIP3    H146105   0.052   5.444  15.599  0.6957  0.1054 -1.6256
 8230TIP3    H246106  -0.003   5.361  15.713  3.1443  1.8626  0.9505
 8231TIP3   OH246107   5.348   6.370   4.477  0.2064 -0.1093 -0.1413
 8231TIP3    H146108   5.313   6.306   4.416  0.0835  1.8756 -2.3001
 8231TIP3    H246109   5.443   6.354   4.478  0.9163  2.3784 -4.3550
 8232TIP3   OH246110   4.490   4.660  14.111 -0.1601 -0.2827  0.2423
 8232TIP3    H146111   4.419   4.662  14.048 -0.0652 -0.4048  0.1299
 8232TIP3    H246112   4.476   4.579  14.161 -0.4707  0.0230  0.6535
 8233TIP3   OH246113   0.825   3.309   4.625  0.0249 -0.7383  0.0242
 8233TIP3    H146114   0.851   3.217   4.616  1.3256 -0.5870  1.7217
 8233TIP3    H246115   0.757   3.307   4.693  0.3449 -0.4140  0.3557
 8234TIP3   OH246116   5.407   4.454  12.923 -0.1108  0.6549 -0.0075
 8234TIP3    H146117   5.342   4.406  12.974  0.3753 -0.8210 -0.7090
 8234TIP3    H246118   5.473   4.481  12.987 -0.7290  0.9973  0.4998
 8235TIP3   OH246119   2.901   6.142   2.596 -0.1894  0.0968 -0.2814
 8235TIP3    H146120   2.834   6.132   2.528 -1.2103  2.3264  0.3069
 8235TIP3    H246121   2.851   6.163   2.676  1.1212 -0.1316  0.6315
 8236TIP3   OH246122   2.579   5.460   4.424  0.0024 -0.2385 -0.0634
 8236TIP3    H146123   2.512   5.399   4.394  1.3374 -1.4424 -0.7453
 8236TIP3    H246124   2.539   5.546   4.416 -1.1612 -0.8549 -1.2651
 8237TIP3   OH246125   5.874   5.838   0.159 -0.6079 -0.3010 -0.1382
 8237TIP3    H146126   5.938   5.869   0.223 -0.8196  1.3662 -0.7009
 8237TIP3    H246127   5.832   5.763   0.202  1.7904 -1.5574  0.1712
 8238TIP3   OH246128   0.457   6.089  15.776 -0.0648 -0.2035 -0.0753
 8238TIP3    H146129   0.389   6.156  15.771 -0.3854 -0.5926 -1.5069
 8238TIP3    H246130   0.530   6.131  15.821 -0.1877  1.1754 -1.1091
 8239TIP3   OH246131   4.667   6.405  15.448  0.6724  0.1286  0.0630
 8239TIP3    H146132   4.617   6.402  15.367  1.9938 -1.6480 -0.7553
 8239TIP3    H246133   4.681   6.499  15.464 -2.3429  0.6704  0.0537
 8240TIP3   OH246134   3.265   4.658   5.820 -0.5115  0.8961 -0.1372
 8240TIP3    H146135   3.217   4.737   5.798 -0.5674  0.5194 -1.4689
 8240TIP3    H246136   3.244   4.642   5.912  0.6884  3.2243  0.6214
 8241TIP3   OH246137   2.479   2.146   0.980 -0.1651  0.4897 -0.3744
 8241TIP3    H146138   2.489   2.060   1.022  0.4377 -0.2780 -2.0213
 8241TIP3    H246139   2.391   2.174   1.006 -0.8341 -1.1516 -0.7077
 8242TIP3   OH246140   2.459   3.312   4.409  0.4778  0.0852 -0.5517
 8242TIP3    H146141   2.471   3.386   4.349  0.9679  0.8842  0.4842
 8242TIP3    H246142   2.529   3.323   4.474  1.0423 -1.7409 -0.8003
 8243TIP3   OH246143   5.668   3.389   5.609  0.0873 -0.0914 -0.1183
 8243TIP3    H146144   5.756   3.412   5.638  0.3532 -1.8677  0.5743
 8243TIP3    H246145   5.614   3.399   5.687  0.0338 -0.8220 -0.0560
 8244TIP3   OH246146   4.551   4.032  15.690 -0.0484  0.1607 -0.6352
 8244TIP3    H146147   4.505   3.967  15.638  0.5209  0.1771 -1.1756
 8244TIP3    H246148   4.626   3.984  15.727 -0.9351 -0.0860  0.9295
 8245TIP3   OH246149   5.615   2.990   1.657  0.6801 -0.2969  0.2178
 8245TIP3    H146150   5.699   2.972   1.698 -0.1376 -0.1142  2.0817
 8245TIP3    H246151   5.556   3.010   1.730 -0.1947  2.9625 -1.1827
 8246TIP3   OH246152   2.961   0.853  13.825 -0.0984 -0.0607 -0.0533
 8246TIP3    H146153   3.014   0.932  13.827  0.4423 -0.4114  1.7745
 8246TIP3    H246154   2.935   0.840  13.916 -0.0296 -2.0758 -0.2792
 8247TIP3   OH246155   4.640   3.602  12.553  0.3062 -0.0818 -0.1812
 8247TIP3    H146156   4.664   3.677  12.498  0.0805  0.4121  0.3782
 8247TIP3    H246157   4.722   3.558  12.571  0.2923 -0.7221 -1.5737
 8248TIP3   OH246158   0.519   3.214  15.305 -0.2761  0.3473 -0.4552
 8248TIP3    H146159   0.471   3.296  15.288 -0.3247  0.4976  0.3231
 8248TIP3    H246160   0.597   3.220  15.251 -1.2195  0.0079 -1.9128
 8249TIP3   OH246161   4.276   0.355   2.843  0.3916 -0.1921  0.8518
 8249TIP3    H146162   4.323   0.292   2.788  0.8575  0.3644  0.5997
 8249TIP3    H246163   4.344   0.399   2.893  0.0344 -0.1548  1.3089
 8250TIP3   OH246164   5.221   5.237  11.994  0.1389  0.3035 -0.4365
 8250TIP3    H146165   5.232   5.332  11.985  0.5938  0.2867 -0.1343
 8250TIP3    H246166   5.280   5.214  12.067 -1.9123  0.1616  1.2654
 8251TIP3   OH246167   5.468   4.112  15.995  0.3196 -0.4423 -0.2602
 8251TIP3    H146168   5.436   4.091  16.083  2.8829  1.2758  1.2251
 8251TIP3    H246169   5.457   4.207  15.988  0.1270 -0.5563 -1.8358
 8252TIP3   OH246170   1.409   4.625   5.737  0.3088 -0.7044  0.1788
 8252TIP3    H146171   1.315   4.608   5.729  0.0364  1.2050 -1.3748
 8252TIP3    H246172   1.446   4.594   5.654  1.3403 -2.6913  1.2917
 8253TIP3   OH246173   0.685   1.572  15.914 -0.7442 -0.2936 -0.0165
 8253TIP3    H146174   0.708   1.664  15.928  3.1205 -0.9231 -1.1848
 8253TIP3    H246175   0.671   1.537  16.003 -0.5774  1.0087  0.5447
 8254TIP3   OH246176   0.387   0.929  15.518 -0.3021 -0.3489  0.3481
 8254TIP3    H146177   0.370   1.020  15.492 -0.1671 -0.4774 -0.2124
 8254TIP3    H246178   0.432   0.891  15.442 -0.6784 -0.9829  0.4426
 8255TIP3   OH246179   1.172   4.030   6.491  0.1987 -0.0811  0.6701
 8255TIP3    H146180   1.106   4.096   6.472 -1.6875 -2.2682 -0.8079
 8255TIP3    H246181   1.253   4.067   6.454 -0.8982  1.1340 -0.6366
 8256TIP3   OH246182   3.475   3.351   0.818 -0.2823  0.3949 -0.0536
 8256TIP3    H146183   3.463   3.261   0.847 -0.2592  0.1116 -0.8885
 8256TIP3    H246184   3.420   3.359   0.740  0.3308  0.8591 -0.4499
 8257TIP3   OH246185   6.148   1.697  16.049 -0.2488  0.4185 -0.6706
 8257TIP3    H146186   6.214   1.629  16.044  0.6319  1.1126  0.9842
 8257TIP3    H246187   6.066   1.650  16.064  0.5681 -0.2797  2.1765
 8258TIP3   OH246188   1.192   1.227   5.146 -0.0358 -0.3593 -0.3951
 8258TIP3    H146189   1.137   1.155   5.178 -0.2835 -0.2329 -0.5408
 8258TIP3    H246190   1.281   1.189   5.144  0.2674  0.0692  1.9247
 8259TIP3   OH246191   2.466   3.134   2.112  0.7068 -0.3743 -0.0893
 8259TIP3    H146192   2.460   3.209   2.053 -2.1010  0.3651  0.9506
 8259TIP3    H246193   2.443   3.059   2.057  2.4509 -0.3685 -0.8824
 8260TIP3   OH246194   4.091   5.174  12.159  0.4165 -0.5672  0.4561
 8260TIP3    H146195   4.144   5.154  12.081  0.4302 -0.2278  0.3756
 8260TIP3    H246196   4.004   5.140  12.138 -0.0005  0.9096 -0.3737
 8261TIP3   OH246197   4.764   1.385  11.861  0.5268  0.1173 -0.1587
 8261TIP3    H146198   4.819   1.379  11.784  0.7570 -0.2416  0.0337
 8261TIP3    H246199   4.710   1.463  11.846 -2.0169 -1.8568 -2.3647
 8262TIP3   OH246200   0.326   6.663  12.437 -0.2510 -0.1955 -0.3506
 8262TIP3    H146201   0.262   6.725  12.472  1.8245  0.0665  3.4521
 8262TIP3    H246202   0.410   6.708  12.444  0.9564 -2.3158 -0.4058
 8263TIP3   OH246203   3.882   5.547  11.348  0.1285  0.0760 -0.0585
 8263TIP3    H146204   3.885   5.510  11.260  0.5388  0.0379 -0.0266
 8263TIP3    H246205   3.940   5.623  11.344 -1.1825  1.1016 -0.3031
 8264TIP3   OH246206   2.091   2.930   4.281  0.1480 -0.5232  0.4281
 8264TIP3    H146207   2.152   2.921   4.355 -0.3943  1.8620  1.2772
 8264TIP3    H246208   2.116   3.013   4.240 -1.0935 -0.6377 -0.6155
 8265TIP3   OH246209   5.507   0.642  15.956  0.4310  0.7972 -0.0265
 8265TIP3    H146210   5.419   0.643  15.992  1.0231 -0.9948  1.6949
 8265TIP3    H246211   5.496   0.607  15.867 -0.5833  0.4375  0.2247
 8266TIP3   OH246212   3.052   2.233   2.863 -0.1462 -0.0744 -0.5325
 8266TIP3    H146213   3.010   2.148   2.882  1.8549 -0.9735  0.1245
 8266TIP3    H246214   3.079   2.226   2.771  0.2615 -0.2655 -0.3995
 8267TIP3   OH246215   4.657   5.105  13.715 -0.4014  0.1172  0.0117
 8267TIP3    H146216   4.578   5.052  13.724  0.0994 -0.4515  1.4221
 8267TIP3    H246217   4.643   5.179  13.774  1.1583 -1.3781  2.4577
 8268TIP3   OH246218   0.483   0.257  17.028  0.1867  0.2553  0.4135
 8268TIP3    H146219   0.479   0.176  16.977  2.3916 -0.7135  1.6617
 8268TIP3    H246220   0.403   0.257  17.080 -0.8772  0.0031 -1.1736
 8269TIP3   OH246221   4.437   4.440  16.987 -0.2935  0.2133 -0.6316
 8269TIP3    H146222   4.372   4.372  17.005 -1.3932  1.3283 -0.2840
 8269TIP3    H246223   4.471   4.417  16.901 -0.4937 -0.8931 -0.4347
 8270TIP3   OH246224   6.353   0.388  17.191  0.3173  0.0218  0.4719
 8270TIP3    H146225   6.322   0.383  17.282  0.1768 -0.8807  0.3768
 8270TIP3    H246226   6.273   0.403  17.140  0.5062  1.5219  0.5717
 8271TIP3   OH246227   3.408   4.748  12.660 -0.0354  0.9372  0.2186
 8271TIP3    H146228   3.321   4.747  12.700 -0.3517  0.3324 -0.4487
 8271TIP3    H246229   3.391   4.740  12.566  0.7369  0.9887  0.0669
 8272TIP3   OH246230   0.109   4.188   4.172 -0.3222 -0.3796 -0.1852
 8272TIP3    H146231   0.101   4.210   4.265  0.9733 -0.7247  0.0212
 8272TIP3    H246232   0.079   4.266   4.126 -0.4303  0.0036  0.5222
 8273TIP3   OH246233   5.825   1.861   6.133  0.3543 -0.3319  0.3528
 8273TIP3    H146234   5.896   1.839   6.194 -0.3234 -1.8065  0.6652
 8273TIP3    H246235   5.870   1.895   6.055  1.3239 -0.0755  1.0033
 8274TIP3   OH246236   5.389   2.136  12.092  0.0322  0.4173  0.1855
 8274TIP3    H146237   5.317   2.161  12.035  0.9769 -0.2496 -1.3698
 8274TIP3    H246238   5.423   2.219  12.126 -1.3370  0.7397  0.8141
 8275TIP3   OH246239   1.289   5.777  14.568 -0.2850 -0.2002  0.2840
 8275TIP3    H146240   1.298   5.705  14.505  0.2223  1.4289 -1.5981
 8275TIP3    H246241   1.276   5.733  14.652  1.6757 -2.5249 -0.5090
 8276TIP3   OH246242   2.288   1.736   1.222  0.2841 -0.2102  0.1607
 8276TIP3    H146243   2.361   1.699   1.271 -0.5722 -1.1141  0.8066
 8276TIP3    H246244   2.255   1.807   1.277  0.0806 -0.4295  0.3222
 8277TIP3   OH246245   1.249   1.124  14.308 -0.3352 -0.1418 -0.3276
 8277TIP3    H146246   1.297   1.193  14.262  0.0558 -0.5855 -0.5802
 8277TIP3    H246247   1.312   1.088  14.370 -0.3945 -0.6073 -0.5375
 8278TIP3   OH246248   5.578   1.121  16.534 -0.3655  0.7648  0.0883
 8278TIP3    H146249   5.622   1.206  16.537 -1.8459  1.5648  2.4595
 8278TIP3    H246250   5.619   1.070  16.604  0.1011 -0.2679 -0.9212
 8279TIP3   OH246251   0.748   6.347   3.942  0.1238  0.6098  0.2253
 8279TIP3    H146252   0.736   6.429   3.894 -0.4154  0.3750 -0.0438
 8279TIP3    H246253   0.840   6.349   3.970 -0.0004  1.5145  0.6105
 8280TIP3   OH246254   3.211   2.039   2.991  0.8717  0.3811  0.1882
 8280TIP3    H146255   3.252   1.997   3.067  1.8933  1.2355  0.1257
 8280TIP3    H246256   3.138   2.089   3.028 -1.3205 -2.4768  0.1253
 8281TIP3   OH246257   5.057   4.911   5.693 -0.5883  0.1832 -0.0626
 8281TIP3    H146258   5.095   4.901   5.606 -1.5299 -0.7664 -0.3826
 8281TIP3    H246259   5.018   4.826   5.712  0.0372  0.2185  1.5112
 8282TIP3   OH246260   0.639   4.484  14.249  0.1800  0.3886 -0.2077
 8282TIP3    H146261   0.717   4.526  14.214  0.3930  1.7641  1.7786
 8282TIP3    H246262   0.566   4.529  14.207  0.4304  1.0324  0.0479
 8283TIP3   OH246263   3.736   2.533   0.397  0.3628 -0.3249  0.1343
 8283TIP3    H146264   3.659   2.498   0.442 -0.5374  2.4786  0.9879
 8283TIP3    H246265   3.776   2.456   0.356 -0.5810 -2.5510  3.0021
 8284TIP3   OH246266   6.015   3.259   4.170  0.0293  0.0673  0.5042
 8284TIP3    H146267   6.002   3.352   4.149 -0.4195 -0.5142 -2.1010
 8284TIP3    H246268   6.059   3.260   4.256 -0.1691  2.6558  0.6589
 8285TIP3   OH246269   0.924   4.693  15.763 -0.8637 -0.6515 -0.0360
 8285TIP3    H146270   0.860   4.647  15.709  0.1690 -0.4668 -1.4739
 8285TIP3    H246271   0.935   4.778  15.720 -0.9400  0.0019  1.1928
 8286TIP3   OH246272   5.316   6.474   4.118  0.5303  0.2159  0.6856
 8286TIP3    H146273   5.229   6.436   4.127  0.4994  0.3811  1.1065
 8286TIP3    H246274   5.375   6.403   4.145  0.5489 -0.0228  0.0306
 8287TIP3   OH246275   1.124   2.240  16.313 -0.0229  0.5760 -0.1233
 8287TIP3    H146276   1.076   2.169  16.356 -0.2522  0.3061 -0.7978
 8287TIP3    H246277   1.079   2.251  16.229  0.4114  1.0870 -0.2958
 8288TIP3   OH246278   2.338   0.937  11.083  0.1871  0.3830 -0.6047
 8288TIP3    H146279   2.307   0.932  10.993  2.5284 -0.0840 -1.4591
 8288TIP3    H246280   2.398   0.864  11.091 -0.2349  0.2119  1.4796
 8289TIP3   OH246281   1.543   6.685  12.137 -0.0368 -0.2932 -0.1039
 8289TIP3    H146282   1.549   6.715  12.046 -0.8466  1.5086  0.3821
 8289TIP3    H246283   1.467   6.628  12.138 -1.2498  1.2636 -0.2012
 8290TIP3   OH246284   4.701   0.409  13.926 -0.3318 -0.1802  0.2154
 8290TIP3    H146285   4.637   0.347  13.892 -0.7950  0.3739  0.0423
 8290TIP3    H246286   4.758   0.427  13.851 -0.1302 -0.4899  0.2989
 8291TIP3   OH246287   3.024   3.153   7.094 -0.0183 -0.3116  0.1715
 8291TIP3    H146288   3.120   3.149   7.090 -0.0123 -0.3816  0.4040
 8291TIP3    H246289   3.003   3.243   7.072  0.0752 -0.4186 -0.3935
 8292TIP3   OH246290   0.187   3.931  14.737  0.2542  0.5563  0.3043
 8292TIP3    H146291   0.164   3.927  14.644  1.9480 -0.8069 -0.1097
 8292TIP3    H246292   0.128   3.997  14.774 -2.7512 -1.2060 -1.0387
 8293TIP3   OH246293   6.201   0.531   2.362 -0.0843  0.4892  0.6732
 8293TIP3    H146294   6.130   0.498   2.416 -0.8125 -1.0641 -1.1440
 8293TIP3    H246295   6.269   0.464   2.368  0.0076  0.5180  0.0488
 8294TIP3   OH246296   1.146   3.719   0.675  0.5766 -0.0832 -0.2673
 8294TIP3    H146297   1.147   3.809   0.643 -0.8789  0.7412  1.7490
 8294TIP3    H246298   1.109   3.726   0.764  1.3969 -2.5500  0.3427
 8295TIP3   OH246299   1.000   6.366   4.022 -0.0680 -0.1479 -0.5162
 8295TIP3    H146300   1.058   6.290   4.023  0.6385  0.3687 -1.0864
 8295TIP3    H246301   1.016   6.409   4.105 -1.3710 -1.2628  0.3556
 8296TIP3   OH246302   2.982   4.683  16.723 -0.7901 -0.2914  0.2313
 8296TIP3    H146303   3.047   4.706  16.657 -0.6429  0.6275  0.6720
 8296TIP3    H246304   2.898   4.694  16.679 -0.6662 -0.8435 -0.1462
 8297TIP3   OH246305   3.727   2.752   2.206  0.3066 -0.0207 -0.2466
 8297TIP3    H146306   3.652   2.711   2.248 -0.7747  0.2950 -1.7952
 8297TIP3    H246307   3.758   2.817   2.269 -0.1417 -0.7939  0.7825
 8298TIP3   OH246308   5.686   0.712  13.419 -0.6397 -0.0643 -0.4602
 8298TIP3    H146309   5.715   0.791  13.373 -0.8390 -0.0599 -0.5780
 8298TIP3    H246310   5.766   0.663  13.435 -0.2622  0.9836  1.1635
 8299TIP3   OH246311   2.930   1.934  15.968 -0.2773 -0.4207 -0.3551
 8299TIP3    H146312   2.860   1.889  15.921 -0.2359  0.7137 -1.5506
 8299TIP3    H246313   2.999   1.868  15.976 -1.1580 -1.3100  0.1309
 8300TIP3   OH246314   5.438   0.880  10.761 -0.3374  0.2844 -0.2756
 8300TIP3    H146315   5.349   0.852  10.744 -0.2720 -0.6547  0.7853
 8300TIP3    H246316   5.479   0.884  10.675 -1.3284  0.4809 -0.7494
 8301TIP3   OH246317   5.572   0.294   3.840 -0.5239 -0.3363 -0.4363
 8301TIP3    H146318   5.611   0.348   3.909  1.5412 -1.2122 -0.8439
 8301TIP3    H246319   5.520   0.355   3.788 -3.5682  0.0760  2.7746
 8302TIP3   OH246320   2.194   4.920   6.410  0.4992  0.2265  0.0103
 8302TIP3    H146321   2.174   5.000   6.361 -1.0972 -0.2896 -0.2378
 8302TIP3    H246322   2.159   4.849   6.356  2.3705 -0.7157 -0.0347
 8303TIP3   OH246323   1.065   5.773  11.494 -0.4313  0.5767  0.4141
 8303TIP3    H146324   1.154   5.781  11.458 -0.8969  0.1501 -0.8918
 8303TIP3    H246325   1.021   5.711  11.436 -1.5751  0.7421  1.0747
 8304TIP3   OH246326   2.626   4.139   2.340  0.1112 -0.7664 -0.4745
 8304TIP3    H146327   2.603   4.123   2.248 -0.0755 -1.0038 -0.3874
 8304TIP3    H246328   2.721   4.136   2.342  0.2017  0.7984 -0.9471
 8305TIP3   OH246329   1.083   3.067  13.921  0.2098 -0.5906 -0.1337
 8305TIP3    H146330   1.038   3.150  13.933 -1.2795 -1.2002 -1.1675
 8305TIP3    H246331   1.175   3.091  13.907  0.1882  0.7203  1.5999
 8306TIP3   OH246332   3.615   5.557   3.374  0.3042  0.5675 -0.2760
 8306TIP3    H146333   3.610   5.607   3.293  3.4030  0.2968 -0.7665
 8306TIP3    H246334   3.630   5.467   3.346 -0.1214  0.2071  0.6079
 8307TIP3   OH246335   0.368   5.069  11.728  0.5145  0.4759 -0.4403
 8307TIP3    H146336   0.447   5.068  11.674 -0.2799  0.6828 -1.6365
 8307TIP3    H246337   0.380   4.996  11.789  1.8639  0.8353 -0.2418
 8308TIP3   OH246338   1.430   6.059   0.622  0.0059 -0.0632  0.0417
 8308TIP3    H146339   1.356   6.048   0.563  0.6143  0.8817 -0.9378
 8308TIP3    H246340   1.391   6.066   0.709 -0.9580 -0.6642 -0.3343
 8309TIP3   OH246341   0.600   2.470   6.625  0.5545 -0.1102 -0.2707
 8309TIP3    H146342   0.521   2.422   6.601  1.3009 -0.3743 -2.4221
 8309TIP3    H246343   0.668   2.403   6.634  0.8027  0.2163  0.3451
 8310TIP3   OH246344   2.886   4.112  15.437  0.0952  0.5760  0.9553
 8310TIP3    H146345   2.858   4.170  15.507  0.6780 -0.0074  1.6900
 8310TIP3    H246346   2.807   4.065  15.411 -0.5115  2.1209 -0.0716
 8311TIP3   OH246347   1.315   4.356  15.873  0.2799  0.2042  0.0688
 8311TIP3    H146348   1.336   4.347  15.966  0.8708  0.6727 -0.0144
 8311TIP3    H246349   1.247   4.423  15.871  0.6334  0.5692  0.1241
 8312TIP3   OH246350   5.958   1.339   2.940 -0.0971  0.2956  0.3877
 8312TIP3    H146351   6.053   1.349   2.935 -0.2318  1.2641 -0.7159
 8312TIP3    H246352   5.944   1.277   3.012  1.3657  0.0358  0.4787
 8313TIP3   OH246353   3.466   5.458  11.508  0.1782  0.3257  0.0918
 8313TIP3    H146354   3.462   5.544  11.467 -1.4741  0.1181 -0.2752
 8313TIP3    H246355   3.414   5.402  11.450 -1.3061 -0.2311  1.8661
 8314TIP3   OH246356   2.381   3.198  13.787  0.4843  0.1206 -0.2758
 8314TIP3    H146357   2.411   3.114  13.753 -0.7440  0.1384 -1.5401
 8314TIP3    H246358   2.338   3.177  13.870 -0.4968 -0.6544 -0.9452
 8315TIP3   OH246359   5.786   3.190   1.159 -0.5036 -0.3032  0.1306
 8315TIP3    H146360   5.747   3.146   1.083 -0.6690 -0.5223  0.3440
 8315TIP3    H246361   5.850   3.250   1.121 -0.6598 -0.3380 -0.1903
 8316TIP3   OH246362   5.178   4.346   1.386  0.1839  0.1342 -0.0832
 8316TIP3    H146363   5.221   4.322   1.468 -1.2668  0.0889  0.7110
 8316TIP3    H246364   5.225   4.298   1.318  0.0300 -1.6183  0.9902
 8317TIP3   OH246365   1.440   0.038   0.902 -0.1810 -0.2082 -0.1901
 8317TIP3    H146366   1.483   0.108   0.950  0.2075  0.4037 -1.3882
 8317TIP3    H246367   1.370   0.007   0.961 -0.4041  1.2209  0.3284
 8318TIP3   OH246368   4.651   0.148  16.579 -0.5653 -0.3515  0.3104
 8318TIP3    H146369   4.662   0.166  16.672  1.0495 -0.9646  0.2891
 8318TIP3    H246370   4.729   0.186  16.538 -1.0770 -0.4016 -0.7437
 8319TIP3   OH246371   5.415   3.065  14.710 -0.2516 -0.0950  0.0078
 8319TIP3    H146372   5.491   3.028  14.664 -0.8506 -0.9048 -0.3538
 8319TIP3    H246373   5.452   3.132  14.767  0.6485  0.0638 -0.7424
 8320TIP3   OH246374   2.548   3.087  13.433  0.0091 -0.1401  0.4043
 8320TIP3    H146375   2.521   3.024  13.500 -0.0013 -0.5617  0.0128
 8320TIP3    H246376   2.493   3.164  13.448  1.0136  0.3327  1.7899
 8321TIP3   OH246377   6.592   2.666   2.736  0.2060 -0.5826 -0.4904
 8321TIP3    H146378   6.544   2.725   2.677  0.4237  0.3118  0.1954
 8321TIP3    H246379   6.681   2.664   2.700  0.8624  1.4926  0.7990
 8322TIP3   OH246380   6.615   6.108  16.412  0.4070 -0.1790  0.0505
 8322TIP3    H146381   6.566   6.071  16.339 -0.0642  0.2728  0.1286
 8322TIP3    H246382   6.547   6.139  16.473  0.7789  1.0641 -0.1473
 8323TIP3   OH246383   0.608   3.874   2.807 -0.0475 -0.0024 -0.1486
 8323TIP3    H146384   0.553   3.847   2.733  0.2448  1.5276 -0.9636
 8323TIP3    H246385   0.669   3.801   2.819  0.3650  0.0142 -1.8871
 8324TIP3   OH246386   0.379   6.332  17.059 -0.0435 -0.7208 -0.7540
 8324TIP3    H146387   0.407   6.389  17.131  0.2007 -0.4484 -1.0582
 8324TIP3    H246388   0.300   6.289  17.091  0.2304 -0.8313 -0.2096
 8325TIP3   OH246389   6.378   2.982   1.905  0.0522  0.0092  0.2086
 8325TIP3    H146390   6.441   2.938   1.848 -1.0184 -2.6705  0.9246
 8325TIP3    H246391   6.420   2.983   1.991  0.8817  2.3244 -0.1534
 8326TIP3   OH246392   1.709   1.260   1.781 -0.2528  0.1156 -0.2248
 8326TIP3    H146393   1.695   1.330   1.717  1.2712 -0.1837 -0.9372
 8326TIP3    H246394   1.630   1.261   1.835 -0.0335  2.7904  0.1929
 8327TIP3   OH246395   6.426   0.219  11.666 -0.4235 -0.2007  0.1237
 8327TIP3    H146396   6.421   0.283  11.595 -2.3347 -0.6322 -0.2052
 8327TIP3    H246397   6.491   0.254  11.727 -0.7694  1.5878 -0.4876
 8328TIP3   OH246398   1.276   1.242   2.137 -0.2485  0.4255 -1.0971
 8328TIP3    H146399   1.327   1.287   2.204  0.6874 -0.9555 -0.8439
 8328TIP3    H246400   1.194   1.218   2.180 -0.4223  1.1521 -1.0073
 8329TIP3   OH246401   6.099   6.111  14.741 -0.1792 -0.2991  0.3376
 8329TIP3    H146402   6.176   6.071  14.699 -0.5138 -1.2122  0.5666
 8329TIP3    H246403   6.032   6.044  14.736 -0.3743 -0.2550  1.9029
 8330TIP3   OH246404   5.721   5.399  17.034 -0.6059 -0.0367  0.1992
 8330TIP3    H146405   5.789   5.416  16.969  0.7809 -0.6249  1.4139
 8330TIP3    H246406   5.639   5.424  16.992 -0.0668 -2.5167 -2.6284
 8331TIP3   OH246407   4.489   4.822  14.739 -0.5007 -0.5475  0.1612
 8331TIP3    H146408   4.552   4.756  14.709 -0.6970 -0.1892 -1.1026
 8331TIP3    H246409   4.488   4.813  14.835  0.3195 -1.5949  0.0878
 8332TIP3   OH246410   2.727   3.256   2.392 -0.0504 -0.0171 -0.6774
 8332TIP3    H146411   2.776   3.296   2.463 -1.4577  2.6540 -1.0711
 8332TIP3    H246412   2.783   3.185   2.360  0.9356 -0.8129  2.5250
 8333TIP3   OH246413   5.132   0.573  17.148  0.0345 -0.4197 -0.0412
 8333TIP3    H146414   5.153   0.480  17.150  0.9955 -0.1952  1.3169
 8333TIP3    H246415   5.085   0.585  17.065 -2.2604 -2.5485  0.7977
 8334TIP3   OH246416   1.164   2.988  12.627  0.0412  0.4642  0.3595
 8334TIP3    H146417   1.182   2.945  12.711  1.3430  0.4664  0.1110
 8334TIP3    H246418   1.227   3.060  12.624  0.8434 -0.2615 -1.1340
 8335TIP3   OH246419   2.398   3.220   5.414 -0.0616 -0.0834 -0.2209
 8335TIP3    H146420   2.325   3.283   5.412  0.6714  0.7960 -0.1200
 8335TIP3    H246421   2.360   3.138   5.383 -0.9155  0.5490 -0.9081
 8336TIP3   OH246422   3.528   6.607   5.403  0.1578  0.5885  0.2483
 8336TIP3    H146423   3.497   6.698   5.401  0.2195  0.6518  1.3316
 8336TIP3    H246424   3.452   6.557   5.434  0.8901  0.6649  2.3437
 8337TIP3   OH246425   4.233   2.169  12.716  0.8172  0.0568 -0.5994
 8337TIP3    H146426   4.207   2.081  12.688 -0.1193 -0.1297  0.7621
 8337TIP3    H246427   4.174   2.227  12.669  1.1346 -0.0692 -1.1582
 8338TIP3   OH246428   3.160   3.177  15.797 -0.4389 -0.1000 -0.0866
 8338TIP3    H146429   3.149   3.095  15.846 -3.2714  1.5879  2.4791
 8338TIP3    H246430   3.163   3.245  15.865 -1.0083  2.1585 -2.1707
 8339TIP3   OH246431   3.706   0.185  10.605 -0.2249  0.1925 -0.1978
 8339TIP3    H146432   3.683   0.274  10.632 -0.1993  0.4963 -1.1334
 8339TIP3    H246433   3.632   0.131  10.634 -1.1653  0.8324 -1.3407
 8340TIP3   OH246434   2.067   3.504   4.651  0.1725  0.0858  0.2955
 8340TIP3    H146435   2.107   3.564   4.588  1.8759 -0.7375  0.5341
 8340TIP3    H246436   2.097   3.535   4.736 -0.9370  0.3254  0.6157
 8341TIP3   OH246437   0.780   0.324   3.401  0.2892  0.5156 -0.3190
 8341TIP3    H146438   0.819   0.409   3.382 -1.9089  1.7567  0.3107
 8341TIP3    H246439   0.686   0.341   3.400 -0.1695 -1.6346  1.1192
 8342TIP3   OH246440   0.447   0.052  13.510  0.3178  0.2000 -0.0771
 8342TIP3    H146441   0.482  -0.036  13.524 -0.6962 -0.1907  0.0521
 8342TIP3    H246442   0.429   0.057  13.416  0.7492  0.4213 -0.1528
 8343TIP3   OH246443   6.112   2.180   2.114  0.0014  0.5660  0.0042
 8343TIP3    H146444   6.177   2.238   2.153 -0.6779  0.2129  1.7656
 8343TIP3    H246445   6.035   2.235   2.100  0.0843  0.5791 -0.4262
 8344TIP3   OH246446   4.286   0.756  11.275 -0.1712  0.5155 -0.4604
 8344TIP3    H146447   4.223   0.773  11.345  1.3005  0.6341  0.8808
 8344TIP3    H246448   4.336   0.838  11.267  1.0982 -0.2011 -0.1225
 8345TIP3   OH246449   5.662   1.117  11.180 -0.0496 -0.1374 -0.6312
 8345TIP3    H146450   5.711   1.189  11.219 -1.0220  0.0043  0.3683
 8345TIP3    H246451   5.614   1.157  11.107 -1.0790  0.3888  0.3062
 8346TIP3   OH246452   4.032   5.290   1.123 -0.3924 -0.0420 -0.6238
 8346TIP3    H146453   4.120   5.317   1.098  0.4718 -0.9591  1.2092
 8346TIP3    H246454   4.004   5.230   1.054  1.5318 -1.8059  0.0355
 8347TIP3   OH246455   5.712   0.354  14.801 -0.1118 -0.1997  0.2712
 8347TIP3    H146456   5.778   0.328  14.866 -0.3173 -0.1792  0.4881
 8347TIP3    H246457   5.667   0.428  14.841 -2.6601 -2.3435  1.6877
 8348TIP3   OH246458   4.766   3.371   0.320  0.4490 -0.0944  0.4530
 8348TIP3    H146459   4.813   3.445   0.360 -0.7481  1.6852 -1.2685
 8348TIP3    H246460   4.684   3.408   0.289 -0.9025 -2.5236  0.8410
 8349TIP3   OH246461   3.831   2.028   3.484 -0.0511  0.2228 -0.0235
 8349TIP3    H146462   3.799   1.943   3.514  1.1606  0.6295  2.7339
 8349TIP3    H246463   3.887   2.008   3.410  0.6652 -1.4755  0.9191
 8350TIP3   OH246464   1.062   4.238  16.825 -0.3423 -0.2594  0.0592
 8350TIP3    H146465   0.990   4.252  16.886  1.1448 -0.2875  1.9267
 8350TIP3    H246466   1.098   4.326  16.810  0.1259 -0.4031  0.3143
 8351TIP3   OH246467   2.281   3.841  13.370  0.5459 -0.6599 -0.7742
 8351TIP3    H146468   2.245   3.910  13.427  2.4247 -0.4917  0.3100
 8351TIP3    H246469   2.360   3.881  13.332  0.3246 -1.4150 -2.0696
 8352TIP3   OH246470   1.017   3.401   3.260  0.0675  0.4028  0.0990
 8352TIP3    H146471   0.973   3.469   3.312 -0.5539  1.5333 -1.7858
 8352TIP3    H246472   0.964   3.395   3.181  0.9915 -1.2374 -0.4228
 8353TIP3   OH246473   3.195   2.472   4.397  0.0346 -0.0717  0.5077
 8353TIP3    H146474   3.146   2.406   4.349  0.0836  0.1312  0.1753
 8353TIP3    H246475   3.215   2.540   4.332  0.2286  0.1354  0.7783
 8354TIP3   OH246476   1.010   3.946  15.359 -0.3574  0.1326  0.0658
 8354TIP3    H146477   1.001   4.031  15.316  1.3925 -0.8686 -2.6324
 8354TIP3    H246478   1.100   3.945  15.392 -0.7091 -0.2821  1.0464
 8355TIP3   OH246479   1.159   4.011   6.170 -0.0225 -0.0259 -0.1937
 8355TIP3    H146480   1.202   4.009   6.256 -1.8092  0.9173  0.7940
 8355TIP3    H246481   1.115   4.097   6.167  0.4601  0.2087 -2.3179
 8356TIP3   OH246482   5.090   2.872  12.404  0.0749  0.0722 -0.3953
 8356TIP3    H146483   5.084   2.785  12.364 -0.3929 -0.3028  0.4448
 8356TIP3    H246484   5.002   2.908  12.398 -0.2186 -0.3454  1.0222
 8357TIP3   OH246485   1.069   6.522   3.141  0.6658  0.3740 -0.3102
 8357TIP3    H146486   1.002   6.458   3.115  0.3006  0.7971 -0.4109
 8357TIP3    H246487   1.092   6.566   3.059  1.4269 -0.0995 -0.3651
 8358TIP3   OH246488   1.258   5.549   0.936  0.3120 -0.1164  0.1116
 8358TIP3    H146489   1.287   5.603   0.863  0.3375  1.2479  1.0985
 8358TIP3    H246490   1.315   5.473   0.935  0.2814 -0.1357 -1.3043
 8359TIP3   OH246491   1.626   4.741  13.437  0.0067  0.0911 -0.1861
 8359TIP3    H146492   1.556   4.678  13.451 -0.1476  0.6153  1.7191
 8359TIP3    H246493   1.585   4.826  13.453  1.2876  0.3445  2.3115
 8360TIP3   OH246494   3.376   1.274  15.731  0.2343 -1.1314  0.3430
 8360TIP3    H146495   3.369   1.247  15.823 -2.8097 -1.5660  0.0783
 8360TIP3    H246496   3.368   1.369  15.734  1.5052 -1.0116  0.5813
 8361TIP3   OH246497   6.616   2.558  12.856 -0.5556  0.4983  0.0223
 8361TIP3    H146498   6.561   2.528  12.784  0.9659 -2.1956 -0.1918
 8361TIP3    H246499   6.565   2.541  12.935 -0.4861 -1.0584 -0.2259
 8362TIP3   OH246500   0.893   1.757  10.893  0.1064  0.0674 -0.0745
 8362TIP3    H146501   0.973   1.705  10.891 -1.4579 -2.5370 -2.5227
 8362TIP3    H246502   0.914   1.836  10.842  1.3202 -0.1815  0.0081
 8363TIP3   OH246503   2.230   0.501  17.209  0.3919 -0.4769 -0.2570
 8363TIP3    H146504   2.313   0.478  17.168  0.3612 -1.0819  0.0073
 8363TIP3    H246505   2.254   0.556  17.283  0.3855  1.5400 -1.6695
 8364TIP3   OH246506   5.271   1.508   1.351  0.1417  0.6157  0.8780
 8364TIP3    H146507   5.355   1.464   1.343  0.1035  0.3666  1.7461
 8364TIP3    H246508   5.214   1.444   1.395 -0.6752  0.5586 -0.2115
 8365TIP3   OH246509   4.846   1.497  16.556  0.3176  0.3143 -0.2793
 8365TIP3    H146510   4.788   1.567  16.583  3.1019  2.8769 -0.4329
 8365TIP3    H246511   4.797   1.449  16.489 -2.6726  0.3502  1.7261
 8366TIP3   OH246512   2.798   4.351   5.304  0.6109  0.9589  0.3922
 8366TIP3    H146513   2.877   4.329   5.253  0.1801  1.6324 -0.6042
 8366TIP3    H246514   2.728   4.353   5.239 -0.0366  1.4184  1.0897
 8367TIP3   OH246515   2.478   0.968   4.495 -0.2813 -0.7342 -0.1553
 8367TIP3    H146516   2.523   0.884   4.498  2.3519  0.5767  2.2747
 8367TIP3    H246517   2.411   0.962   4.562 -0.7996 -1.2164 -0.7073
 8368TIP3   OH246518   4.813   0.397   4.784  0.1909  0.0759  1.0200
 8368TIP3    H146519   4.863   0.477   4.769 -0.6432  0.5141  0.4974
 8368TIP3    H246520   4.747   0.422   4.849 -1.3222  0.3811 -0.5606
 8369TIP3   OH246521   0.701   0.024   3.355  0.4378  0.8366 -0.2984
 8369TIP3    H146522   0.674   0.060   3.440 -0.2297  1.8044 -0.8927
 8369TIP3    H246523   0.771   0.082   3.326  0.8014  0.3868 -0.3187
 8370TIP3   OH246524   5.387   0.286   1.159  0.1533  0.0856  0.0039
 8370TIP3    H146525   5.420   0.281   1.069 -0.8053 -1.5541 -0.2826
 8370TIP3    H246526   5.412   0.374   1.188  2.7317 -0.2403 -0.9554
 8371TIP3   OH246527   0.636   2.734  12.302  0.0978 -0.1030  0.0834
 8371TIP3    H146528   0.717   2.785  12.295 -0.1945  0.6008  1.4244
 8371TIP3    H246529   0.634   2.680  12.223  1.2183  0.8220 -0.6028
 8372TIP3   OH246530   1.219   6.427   1.989 -0.1518  0.2824  0.7160
 8372TIP3    H146531   1.281   6.489   1.951  0.4110 -0.5777  0.2050
 8372TIP3    H246532   1.216   6.354   1.928 -1.7473  0.3321  0.6839
 8373TIP3   OH246533   4.043   6.366   5.335  0.6203 -0.1367 -0.0228
 8373TIP3    H146534   4.019   6.454   5.366 -0.6224 -1.0940  1.9742
 8373TIP3    H246535   4.006   6.360   5.247 -0.4257  0.8991  0.3259
 8374TIP3   OH246536   5.109   4.185  14.460 -0.2667  0.0742  0.2495
 8374TIP3    H146537   5.112   4.090  14.454  2.3023  0.1734 -1.6952
 8374TIP3    H246538   5.076   4.214  14.375 -0.4626  0.9608  0.6106
 8375TIP3   OH246539   3.045   4.289   3.861  0.2666 -0.0283  0.3327
 8375TIP3    H146540   2.994   4.347   3.804  0.1141  0.3647  0.8574
 8375TIP3    H246541   3.021   4.201   3.834  2.0702  0.0798 -1.9105
 8376TIP3   OH246542   4.376   0.868   2.330  0.0848 -0.8003  0.6141
 8376TIP3    H146543   4.330   0.874   2.247  1.2803  0.6101  0.0163
 8376TIP3    H246544   4.326   0.924   2.389 -0.5709 -1.5357  0.7744
 8377TIP3   OH246545   4.697   0.529  12.486 -0.0836 -0.0681 -0.0501
 8377TIP3    H146546   4.718   0.590  12.415 -2.2019 -0.1307 -0.7979
 8377TIP3    H246547   4.668   0.449  12.441  0.3531 -0.7861  0.9043
 8378TIP3   OH246548   1.574   6.764  16.287 -0.0134 -0.3324  0.0221
 8378TIP3    H146549   1.656   6.741  16.330  0.1075 -0.7634 -0.4282
 8378TIP3    H246550   1.598   6.832  16.224 -0.4361  1.3618  1.6196
 8379TIP3   OH246551   4.225   4.950  11.662 -0.4635  0.2373  0.0440
 8379TIP3    H146552   4.240   4.858  11.644  0.8185  0.6693 -1.2258
 8379TIP3    H246553   4.194   4.952  11.753 -0.2950 -1.4071  0.1617
 8380TIP3   OH246554   2.225   4.120   0.126  0.0354  0.0218  0.4895
 8380TIP3    H146555   2.227   4.187   0.059  0.0255 -0.5089 -0.0510
 8380TIP3    H246556   2.257   4.164   0.205  0.0488  0.6467  0.1415
 8381TIP3   OH246557   6.592   4.007   3.816  0.6294  0.4373 -0.7595
 8381TIP3    H146558   6.613   4.068   3.887  1.7181  0.6480 -1.2372
 8381TIP3    H246559   6.593   4.061   3.737  3.4385 -0.4376 -1.4391
 8382TIP3   OH246560   4.363   3.021   4.862  0.2106 -0.7331  0.1509
 8382TIP3    H146561   4.393   2.957   4.927  0.7788 -0.6206  0.0057
 8382TIP3    H246562   4.270   3.032   4.880  0.1886 -1.3345  0.4046
 8383TIP3   OH246563   2.218   1.960   4.525 -0.4337 -0.0830 -0.0664
 8383TIP3    H146564   2.226   2.022   4.452  0.2242  0.2622  0.2923
 8383TIP3    H246565   2.139   1.987   4.571 -0.1205  0.5456  0.1226
 8384TIP3   OH246566   0.987   2.144   1.734 -0.7279 -0.0726 -0.1861
 8384TIP3    H146567   0.967   2.220   1.788 -0.2502 -0.4266  0.5021
 8384TIP3    H246568   0.999   2.072   1.796  1.1402 -0.2036 -0.6270
 8385TIP3   OH246569   0.467   6.209  16.705  0.3664 -0.2434  0.3176
 8385TIP3    H146570   0.483   6.260  16.785  0.4624  1.6017 -0.8189
 8385TIP3    H246571   0.413   6.135  16.734  1.0814 -0.0796  2.2141
 8386TIP3   OH246572   3.676   2.812  14.704 -0.1982  0.1677  0.0802
 8386TIP3    H146573   3.651   2.889  14.653 -3.1689 -1.0810 -0.6255
 8386TIP3    H246574   3.736   2.764  14.647  2.9193  2.5298  1.1279
 8387TIP3   OH246575   1.142   0.148   4.168  0.0854  0.1265 -0.3115
 8387TIP3    H146576   1.083   0.102   4.109  0.3463  0.4207 -0.8027
 8387TIP3    H246577   1.093   0.155   4.250 -0.6675  0.5902 -0.7902
 8388TIP3   OH246578   4.139   4.322   0.483  0.3443 -0.0385 -0.2011
 8388TIP3    H146579   4.142   4.242   0.535  0.4928  0.4875  0.6194
 8388TIP3    H246580   4.199   4.306   0.411 -0.1351 -0.9161 -0.4148
 8389TIP3   OH246581   5.518   3.624  12.109 -0.1145  0.0837  0.1986
 8389TIP3    H146582   5.464   3.546  12.102 -0.0797  0.1173 -0.5233
 8389TIP3    H246583   5.480   3.673  12.183 -1.9210  0.7421 -1.0688
 8390TIP3   OH246584   3.312   6.008  11.949  0.1837 -0.4837 -0.1257
 8390TIP3    H146585   3.271   6.085  11.911  1.6044  0.3208 -0.0823
 8390TIP3    H246586   3.363   6.041  12.023  2.0400 -1.2055 -1.0116
 8391TIP3   OH246587   1.048   4.917  13.519 -0.0425 -0.1569 -0.1558
 8391TIP3    H146588   0.992   4.977  13.469  0.4681 -0.0736 -0.6361
 8391TIP3    H246589   1.128   4.968  13.536  0.1393 -0.4891 -0.0206
 8392TIP3   OH246590   6.381   0.847  13.647  0.0418  0.4981 -0.3708
 8392TIP3    H146591   6.329   0.774  13.614  0.4472  0.7167 -1.5490
 8392TIP3    H246592   6.381   0.911  13.576 -0.5142  1.7753  0.7293
 8393TIP3   OH246593   6.680   3.972   0.580  0.4437 -0.0063 -0.1613
 8393TIP3    H146594   6.751   3.997   0.520  0.5944  1.5029  0.5877
 8393TIP3    H246595   6.613   4.039   0.566  1.3615  1.7172  2.7997
 8394TIP3   OH246596   1.806   0.035  15.408 -0.5731  0.4032 -0.3186
 8394TIP3    H146597   1.726   0.011  15.361 -0.7760 -1.1660  0.7583
 8394TIP3    H246598   1.779   0.104  15.468 -0.6904  1.1711 -1.2216
 8395TIP3   OH246599   0.225   3.786   2.328 -0.0558 -0.3735  0.2831
 8395TIP3    H146600   0.223   3.875   2.293 -0.7919 -0.2590  0.6016
 8395TIP3    H246601   0.318   3.763   2.329  0.1876  0.5803  0.6736
 8396TIP3   OH246602   2.421   1.097   6.427  0.4325  0.5872 -0.4615
 8396TIP3    H146603   2.465   1.044   6.493  0.8351  0.7148 -0.6236
 8396TIP3    H246604   2.366   1.158   6.476  0.4136  0.4055 -0.2592
 8397TIP3   OH246605   5.246   4.322   4.516  0.2612  0.0568 -0.1981
 8397TIP3    H146606   5.250   4.232   4.548  0.9125  0.6707  1.5884
 8397TIP3    H246607   5.337   4.352   4.517 -0.0506  1.0270  0.1528
 8398TIP3   OH246608   2.160   2.737   6.294 -0.1684 -0.0591 -0.2218
 8398TIP3    H146609   2.121   2.650   6.288 -1.2356  0.3303  0.7770
 8398TIP3    H246610   2.091   2.797   6.268 -0.5408  0.6866  2.2330
 8399TIP3   OH246611   4.543   4.503   6.172  0.6139 -0.2692 -0.1301
 8399TIP3    H146612   4.535   4.593   6.205 -0.7824 -0.9244  1.4647
 8399TIP3    H246613   4.636   4.482   6.184  0.7417  0.5868  0.5222
 8400TIP3   OH246614   4.487   6.106   1.460 -0.3477  0.7933 -0.2012
 8400TIP3    H146615   4.523   6.194   1.465 -0.0806  0.6490  0.6096
 8400TIP3    H246616   4.504   6.068   1.546  0.7480 -0.5157 -0.9373
 8401TIP3   OH246617   5.294   6.410   3.854  0.0300  0.4042  0.2951
 8401TIP3    H146618   5.295   6.451   3.941  1.2496  0.9927  0.0321
 8401TIP3    H246619   5.229   6.340   3.861 -0.2305  0.7402  1.5387
 8402TIP3   OH246620   5.874   2.041  14.639  0.5113 -0.1916 -0.4652
 8402TIP3    H146621   5.894   2.130  14.670 -0.0659 -0.2065 -0.0384
 8402TIP3    H246622   5.943   1.987  14.677  0.1911 -0.1039  0.2677
 8403TIP3   OH246623   3.800   0.930  13.360  0.1665  0.2718 -0.0698
 8403TIP3    H146624   3.720   0.979  13.343  0.4505  1.2191  1.1695
 8403TIP3    H246625   3.771   0.856  13.414  0.2220  1.1646  1.2398
 8404TIP3   OH246626   6.632   4.365  13.381  0.5966  0.4817 -0.3308
 8404TIP3    H146627   6.659   4.455  13.362  0.3002  0.7307  0.4023
 8404TIP3    H246628   6.564   4.373  13.448 -0.1839 -0.2283 -1.0056
 8405TIP3   OH246629   5.165   5.259   5.487  0.5796 -0.7334  0.0826
 8405TIP3    H146630   5.256   5.273   5.513  0.7166 -2.0076  0.3473
 8405TIP3    H246631   5.170   5.195   5.416  0.0354  0.8883 -1.4895
 8406TIP3   OH246632   2.139   5.178   0.012  0.1089 -0.6678 -0.0282
 8406TIP3    H146633   2.216   5.190   0.068  0.4478 -3.3762  0.1882
 8406TIP3    H246634   2.175   5.150  -0.073 -0.5830 -0.7402 -0.3026
 8407TIP3   OH246635   1.227   6.018  12.821  0.2131 -0.1213 -0.4488
 8407TIP3    H146636   1.246   5.924  12.812 -0.6532 -0.3642  0.0988
 8407TIP3    H246637   1.182   6.024  12.905  0.7976  0.8779 -0.1988
 8408TIP3   OH246638   2.227   4.808  13.426  0.5059  0.2529  0.3058
 8408TIP3    H146639   2.317   4.820  13.458  0.5436  0.0281  0.2813
 8408TIP3    H246640   2.206   4.891  13.384  0.2247  0.8056  1.4843
 8409TIP3   OH246641   0.673   2.676   0.125 -0.1354 -0.3690 -0.3988
 8409TIP3    H146642   0.749   2.717   0.083  0.1109 -1.3293 -0.9236
 8409TIP3    H246643   0.663   2.724   0.208 -0.0129  0.8865 -1.0848
 8410TIP3   OH246644   1.993   2.734  15.651  0.5765  0.3610  0.1301
 8410TIP3    H146645   1.917   2.680  15.672 -0.9831  1.8695 -1.3679
 8410TIP3    H246646   1.957   2.821  15.634  2.8342  1.5462  0.9910
 8411TIP3   OH246647   2.502   3.251  15.249 -0.6462  0.4975  0.1370
 8411TIP3    H146648   2.546   3.257  15.334  1.1592 -1.6181 -0.5578
 8411TIP3    H246649   2.454   3.334  15.241 -0.2962  1.0666  2.8722
 8412TIP3   OH246650   5.536   5.622  13.737  0.4111 -0.1601  0.0379
 8412TIP3    H146651   5.490   5.701  13.706  0.0673 -0.6092 -0.6370
 8412TIP3    H246652   5.629   5.643  13.730  0.3213  0.1173 -0.3234
 8413TIP3   OH246653   6.701   4.607  13.612  0.0318  0.1318  0.3484
 8413TIP3    H146654   6.751   4.653  13.544 -2.4795  0.9552 -1.0808
 8413TIP3    H246655   6.616   4.652  13.614  0.0802  0.3763  4.3740
 8414TIP3   OH246656   2.941   2.688   6.188 -0.0933  0.5179 -0.1979
 8414TIP3    H146657   2.852   2.660   6.206  0.6486 -0.4850  2.3372
 8414TIP3    H246658   2.987   2.607   6.163  0.7723  0.3998  1.6154
 8415TIP3   OH246659   0.718   5.531   1.094  0.0502  0.0566  0.1185
 8415TIP3    H146660   0.716   5.470   1.168  1.8015 -1.9680 -1.4077
 8415TIP3    H246661   0.696   5.478   1.018  0.2849  1.6432 -1.1016
 8416TIP3   OH246662   1.272   3.129   5.816 -0.2034 -0.0723  0.0443
 8416TIP3    H146663   1.318   3.149   5.897 -0.7118  2.4789 -0.1986
 8416TIP3    H246664   1.332   3.072   5.767  0.8941 -0.1346  1.4224
 8417TIP3   OH246665   5.567   5.406  13.088 -0.4551 -0.0577  0.2266
 8417TIP3    H146666   5.585   5.453  13.170 -2.3274 -1.5395  1.6047
 8417TIP3    H246667   5.653   5.386  13.052  0.5562 -1.1139  2.9442
 8418TIP3   OH246668   0.003   2.628   3.786 -0.0442 -0.0470  0.0112
 8418TIP3    H146669   0.031   2.717   3.810  1.1552 -0.6779  1.0725
 8418TIP3    H246670  -0.066   2.607   3.849  1.0749 -0.5988  1.0964
 8419TIP3   OH246671   0.684   0.182   1.185 -0.6834 -0.4711 -0.2265
 8419TIP3    H146672   0.735   0.210   1.110 -2.5080 -1.2896 -1.8455
 8419TIP3    H246673   0.617   0.249   1.196 -1.7453 -1.4191 -0.7210
 8420TIP3   OH246674   4.329   1.847   4.646 -0.6231 -1.3582 -0.0439
 8420TIP3    H146675   4.399   1.891   4.597 -0.8447 -0.3527  0.5089
 8420TIP3    H246676   4.344   1.754   4.632  0.2687 -1.1249 -0.7000
 8421TIP3   OH246677   0.147   5.729  10.658 -0.0519 -0.4636  0.0539
 8421TIP3    H146678   0.216   5.670  10.690  0.3560  0.6418  1.3189
 8421TIP3    H246679   0.091   5.673  10.605  1.4062 -1.5557 -0.4152
 8422TIP3   OH246680   1.482   3.001  16.201  1.0978 -0.4613 -0.0737
 8422TIP3    H146681   1.507   3.030  16.114  0.0612 -0.0655 -0.2605
 8422TIP3    H246682   1.450   3.080  16.245 -1.2397 -1.1361 -0.3982
 8423TIP3   OH246683   0.425   3.500   3.287  0.1357  0.0663 -0.1837
 8423TIP3    H146684   0.425   3.543   3.373 -0.9437  2.5412 -1.3309
 8423TIP3    H246685   0.369   3.424   3.299  0.5961 -0.0573  1.4738
 8424TIP3   OH246686   2.190   6.638   1.211  0.0819 -0.4626 -0.5627
 8424TIP3    H146687   2.164   6.730   1.213 -2.4331 -1.0675 -1.4262
 8424TIP3    H246688   2.233   6.623   1.295  0.0291  1.3526 -0.1770
 8425TIP3   OH246689   3.484   2.278   1.947 -0.1536  0.2743  0.8020
 8425TIP3    H146690   3.497   2.183   1.954 -3.2581 -0.1199  3.1509
 8425TIP3    H246691   3.530   2.314   2.023  0.9205  0.6895 -0.0216
 8426TIP3   OH246692   2.166   3.916  13.063 -0.4532  0.0948 -0.3396
 8426TIP3    H146693   2.181   4.010  13.072  1.4164 -0.1819 -0.1337
 8426TIP3    H246694   2.243   3.876  13.103 -0.7655 -1.5126 -1.2853
 8427TIP3   OH246695   0.632   2.037   3.164 -0.1834  0.3076 -0.4682
 8427TIP3    H146696   0.555   1.982   3.152 -1.4514  2.0236 -0.6614
 8427TIP3    H246697   0.636   2.052   3.259 -2.0326  2.6768 -0.6370
 8428TIP3   OH246698   5.793   5.564  11.497  0.3024  0.0256  0.3679
 8428TIP3    H146699   5.764   5.545  11.586  0.8869  0.2101  0.6031
 8428TIP3    H246700   5.825   5.654  11.501 -0.2272  0.2500 -0.1723
 8429TIP3   OH246701   0.562   3.571  15.061  0.3270  0.0216  0.0857
 8429TIP3    H146702   0.490   3.543  15.004 -1.7455  0.6909  2.2188
 8429TIP3    H246703   0.579   3.661  15.035 -0.2882  0.1758  0.1866
 8430TIP3   OH246704   2.687   5.645  14.018 -0.7614 -0.4526 -0.0469
 8430TIP3    H146705   2.750   5.593  14.068  1.2580  1.8204 -0.0953
 8430TIP3    H246706   2.727   5.656  13.932 -0.7856  1.6570  0.1527
 8431TIP3   OH246707   6.187   1.372  16.030 -0.4415 -0.0161 -0.3490
 8431TIP3    H146708   6.211   1.388  16.121  0.3173 -0.8186 -0.3854
 8431TIP3    H246709   6.120   1.304  16.035 -1.4414  0.9381 -0.3382
 8432TIP3   OH246710   3.350   5.136  16.634 -0.0337 -0.8557 -0.2309
 8432TIP3    H146711   3.297   5.213  16.616 -3.3743 -3.0868 -1.0308
 8432TIP3    H246712   3.380   5.148  16.724  0.1784  1.6304 -0.5631
 8433TIP3   OH246713   0.694   1.300   1.306  0.6067 -0.1874 -0.3678
 8433TIP3    H146714   0.761   1.233   1.313  0.3988 -0.4167 -0.5313
 8433TIP3    H246715   0.616   1.253   1.276  0.1959 -0.0392  0.4182
 8434TIP3   OH246716   5.203   2.791   2.190  0.4951 -0.5164 -0.2829
 8434TIP3    H146717   5.162   2.845   2.122 -0.4049 -2.6266 -1.4983
 8434TIP3    H246718   5.297   2.799   2.174  0.3722  0.4417 -0.5985
 8435TIP3   OH246719   0.404   1.921   0.655  0.8163  0.4735 -0.2806
 8435TIP3    H146720   0.373   1.962   0.574 -1.4993 -2.9975 -1.3621
 8435TIP3    H246721   0.466   1.854   0.626 -1.0758 -1.7531  0.5803
 8436TIP3   OH246722   1.578   3.715   2.716 -0.0121 -0.0920 -0.0781
 8436TIP3    H146723   1.665   3.691   2.684  0.9801  2.1988  0.6949
 8436TIP3    H246724   1.594   3.761   2.798 -1.7929  1.6888 -0.6406
 8437TIP3   OH246725   5.000   0.422   3.064  0.1524 -0.1457  0.1196
 8437TIP3    H146726   5.050   0.504   3.074  0.0002  0.1006 -0.9597
 8437TIP3    H246727   5.066   0.353   3.073  0.4434  0.1313  0.1351
 8438TIP3   OH246728   4.933   5.500  13.790  0.5088 -0.7362  0.2091
 8438TIP3    H146729   4.847   5.541  13.785 -0.0752 -2.0274 -0.6031
 8438TIP3    H246730   4.984   5.559  13.846 -0.3261  1.0458 -0.8221
 8439TIP3   OH246731   5.196   5.182  15.676 -0.2621 -0.3114  0.2509
 8439TIP3    H146732   5.201   5.217  15.765  3.1746 -1.7288  0.7649
 8439TIP3    H246733   5.276   5.130  15.666 -1.0178 -1.0419 -3.3461
 8440TIP3   OH246734   1.280   1.804   3.446  0.1533  0.4154 -0.4024
 8440TIP3    H146735   1.194   1.801   3.487 -0.2705 -0.0725 -1.2939
 8440TIP3    H246736   1.262   1.817   3.353  1.0643  0.8086 -0.5402
 8441TIP3   OH246737   3.726   4.785  14.258  0.2100 -0.1170 -0.0011
 8441TIP3    H146738   3.721   4.828  14.343  1.8706 -2.4271  1.3783
 8441TIP3    H246739   3.662   4.713  14.264 -1.2823  0.9875 -1.6038
 8442TIP3   OH246740   6.290   2.172  15.556 -0.3621 -0.0128  0.0063
 8442TIP3    H146741   6.335   2.103  15.507 -2.1603 -1.5369  0.4104
 8442TIP3    H246742   6.251   2.227  15.488  0.6757  0.3578 -0.3087
 8443TIP3   OH246743   1.593   1.589   4.000 -0.1074 -0.2520 -0.2830
 8443TIP3    H146744   1.628   1.585   4.089 -0.2836  2.1782 -0.0425
 8443TIP3    H246745   1.542   1.509   3.991  2.6406 -2.2604  0.5460
 8444TIP3   OH246746   2.411   1.911  11.943 -0.1949  0.4738 -0.5763
 8444TIP3    H146747   2.370   1.995  11.965 -0.0694 -0.1959  2.8928
 8444TIP3    H246748   2.494   1.913  11.991 -0.6762 -2.0094  0.5070
 8445TIP3   OH246749   1.096   1.063   2.819  0.0153  0.3144 -0.3831
 8445TIP3    H146750   1.088   1.083   2.913 -0.0536 -0.6559 -0.1704
 8445TIP3    H246751   1.097   0.968   2.815 -3.4836  0.1766 -1.6241
 8446TIP3   OH246752   0.732   1.594   4.978  0.0558 -0.0642 -0.3600
 8446TIP3    H146753   0.747   1.530   4.908  1.7088  1.7757 -1.8044
 8446TIP3    H246754   0.681   1.664   4.937 -0.4554  0.2474  0.7705
 8447TIP3   OH246755   1.208   5.648   1.723 -0.1127  0.9488  0.2009
 8447TIP3    H146756   1.150   5.716   1.755 -0.3354  1.1483 -0.5948
 8447TIP3    H246757   1.162   5.610   1.648 -0.6657 -1.0991  1.5145
 8448TIP3   OH246758   3.001   1.671  16.491  0.0540  0.3553  0.7659
 8448TIP3    H146759   2.953   1.724  16.428  0.7906 -1.1795 -1.2034
 8448TIP3    H246760   2.944   1.665  16.567 -2.1821 -0.0674 -0.8555
 8449TIP3   OH246761   0.530   2.278   2.761 -0.5097  0.9755 -0.0110
 8449TIP3    H146762   0.454   2.223   2.778 -0.6984  0.8201 -1.2904
 8449TIP3    H246763   0.583   2.271   2.841 -1.8389  1.1317  0.9187
 8450TIP3   OH246764   4.667   0.946  14.455  0.3177 -0.3790  1.0017
 8450TIP3    H146765   4.590   0.975  14.407  0.8199 -0.2679  0.2354
 8450TIP3    H246766   4.735   1.009  14.431  0.7690 -0.7532  1.2716
 8451TIP3   OH246767   1.128   1.864  17.265  0.4061  0.6086  0.1163
 8451TIP3    H146768   1.058   1.806  17.234 -0.1721  1.1923  0.3102
 8451TIP3    H246769   1.205   1.808  17.268  0.0691  0.0764 -0.6007
 8452TIP3   OH246770   1.093   6.483   4.323 -0.2236 -0.7314  0.2120
 8452TIP3    H146771   1.089   6.550   4.391  1.0183 -0.1028 -0.3090
 8452TIP3    H246772   1.142   6.411   4.363 -0.8570 -1.0003  0.5040
 8453TIP3   OH246773   0.464   5.498   2.179 -0.3230 -0.1588  0.1526
 8453TIP3    H146774   0.377   5.461   2.163 -0.4917 -0.2499  1.2411
 8453TIP3    H246775   0.493   5.459   2.261  1.4229 -1.3297 -0.9641
 8454TIP3   OH246776   5.703   4.907  16.401  0.2705 -0.1722 -0.5561
 8454TIP3    H146777   5.665   4.985  16.360 -0.0290  0.1023  0.2118
 8454TIP3    H246778   5.788   4.897  16.359 -0.1888 -0.1362 -1.5126
 8455TIP3   OH246779   5.913   4.305   5.655 -1.0313 -0.1615  0.4042
 8455TIP3    H146780   5.963   4.238   5.703 -0.2391 -0.8584 -1.3338
 8455TIP3    H246781   5.846   4.256   5.608 -0.1939  0.1760 -1.2033
 8456TIP3   OH246782   2.473   3.394   0.542 -0.6987  0.1428 -0.2074
 8456TIP3    H146783   2.401   3.423   0.597  1.1475  1.0974  1.8559
 8456TIP3    H246784   2.509   3.318   0.587  0.5444  0.6444 -0.3066
 8457TIP3   OH246785   4.630   3.909  13.281  0.0573  0.2969 -0.4889
 8457TIP3    H146786   4.635   3.925  13.186 -1.3108 -0.6122 -0.7467
 8457TIP3    H246787   4.639   3.815  13.290 -0.9456  0.2487  0.1733
 8458TIP3   OH246788   1.323   0.800  16.117  0.3639 -0.7670 -0.4337
 8458TIP3    H146789   1.274   0.873  16.080  1.0955 -0.5377 -0.9924
 8458TIP3    H246790   1.399   0.840  16.159 -0.6514 -0.9975  1.7197
 8459TIP3   OH246791   0.304   2.714   1.610 -0.4563 -0.1133  0.7075
 8459TIP3    H146792   0.340   2.702   1.523 -1.9103 -2.1414  0.3073
 8459TIP3    H246793   0.229   2.773   1.598 -1.4106 -1.3550  0.3121
 8460TIP3   OH246794   1.886   4.344  15.146 -0.2947 -0.3295  0.2294
 8460TIP3    H146795   1.813   4.290  15.115 -0.1440 -1.1451  1.2180
 8460TIP3    H246796   1.952   4.335  15.077 -0.2096 -1.5778  0.4360
 8461TIP3   OH246797   2.101   3.364  12.277  0.2705 -0.1082 -0.2513
 8461TIP3    H146798   2.081   3.272  12.295 -1.9743  0.1539 -1.0744
 8461TIP3    H246799   2.197   3.367  12.271  0.4318 -2.2541  0.3893
 8462TIP3   OH246800   4.879   6.281  16.786 -0.0146  0.0310 -0.1740
 8462TIP3    H146801   4.807   6.249  16.839 -1.0655  1.5852 -0.5854
 8462TIP3    H246802   4.956   6.234  16.818 -0.8226 -0.0076  1.8273
 8463TIP3   OH246803   0.504   6.370  15.512  0.0040  0.1023  0.6583
 8463TIP3    H146804   0.575   6.329  15.461 -0.3154 -0.4535  0.6520
 8463TIP3    H246805   0.449   6.297  15.540 -0.7188  0.5492  0.4364
 8464TIP3   OH246806   5.547   1.976   2.496  0.2630 -0.4067 -0.0812
 8464TIP3    H146807   5.479   1.919   2.461 -0.7716  0.0280  1.1222
 8464TIP3    H246808   5.624   1.920   2.506  0.5270 -0.6076 -2.6693
 8465TIP3   OH246809   2.054   2.740  16.358 -0.1913 -0.8216 -0.6648
 8465TIP3    H146810   2.044   2.757  16.451 -2.9321 -0.7360 -0.9108
 8465TIP3    H246811   2.137   2.783  16.335 -0.8302  1.6170  1.1716
 8466TIP3   OH246812   4.018   6.356   5.025 -0.6966  0.2036 -0.2415
 8466TIP3    H146813   4.006   6.451   5.026  1.6830  0.6198  3.1031
 8466TIP3    H246814   4.105   6.343   4.989 -1.2409 -0.8389 -1.2599
 8467TIP3   OH246815   5.279   3.921  11.500  0.7011 -0.2722 -0.5441
 8467TIP3    H146816   5.345   3.920  11.430  0.4481 -0.8065 -0.7843
 8467TIP3    H246817   5.268   3.828  11.522  0.8082 -0.1002  0.2323
 8468TIP3   OH246818   5.809   1.961   2.376  0.1139 -0.1859  0.2161
 8468TIP3    H146819   5.902   1.976   2.358 -0.1210  1.8125  0.4036
 8468TIP3    H246820   5.796   1.994   2.465 -0.6193 -1.2864  0.5419
 8469TIP3   OH246821   3.735   1.968  14.224 -0.0789  0.1921  0.1228
 8469TIP3    H146822   3.672   1.923  14.280  0.4477 -0.8515 -0.0924
 8469TIP3    H246823   3.691   1.977  14.139 -1.1712  2.4622  0.8512
 8470TIP3   OH246824   0.653   1.807   0.552  0.3876  0.4105 -0.0988
 8470TIP3    H146825   0.699   1.823   0.635 -0.2122 -1.4715  0.6474
 8470TIP3    H246826   0.660   1.890   0.505 -0.3949  2.0091  2.3896
 8471TIP3   OH246827   3.040   3.058  14.393  0.4569  0.1781 -0.2993
 8471TIP3    H146828   3.072   3.133  14.444 -1.0388  0.7679 -0.1750
 8471TIP3    H246829   3.006   3.096  14.313  2.3661 -0.7049 -1.6143
 8472TIP3   OH246830   2.713   5.351  12.343  0.2471  0.1584  0.5164
 8472TIP3    H146831   2.639   5.406  12.317  0.8156  0.1997 -1.1329
 8472TIP3    H246832   2.790   5.402  12.318  0.7946 -1.6031 -1.6963
 8473TIP3   OH246833   6.332   6.470  12.945 -0.7891 -0.3393 -0.0320
 8473TIP3    H146834   6.337   6.564  12.965  0.5396 -0.4422  0.1979
 8473TIP3    H246835   6.327   6.428  13.031  2.4235 -0.6449  0.1195
 8474TIP3   OH246836   5.358   0.738   4.075 -0.3026 -0.5388  0.1536
 8474TIP3    H146837   5.386   0.737   4.167  0.6064  0.0291 -0.1067
 8474TIP3    H246838   5.287   0.802   4.073  0.7373  0.6531  0.1826
 8475TIP3   OH246839   5.226   3.036   2.866  0.4606  0.0185 -1.0947
 8475TIP3    H146840   5.229   2.978   2.790  2.0713  1.7517 -2.4484
 8475TIP3    H246841   5.208   3.123   2.830  0.9921  0.8574  0.5285
 8476TIP3   OH246842   5.113   0.843  11.954 -0.3314  0.6591  0.6036
 8476TIP3    H146843   5.116   0.865  12.047 -0.8785 -0.1520  0.8191
 8476TIP3    H246844   5.079   0.753  11.951  2.3153 -0.4058 -0.2133
 8477TIP3   OH246845   3.802   2.932   1.875 -0.1229 -0.3001  0.1228
 8477TIP3    H146846   3.732   2.991   1.904  1.2771  1.4492  0.0655
 8477TIP3    H246847   3.858   2.986   1.820 -0.2430 -2.3901 -2.2461
 8478TIP3   OH246848   5.089   2.595  14.105 -0.4377 -0.7804  0.0932
 8478TIP3    H146849   5.176   2.632  14.093 -0.1747 -1.7165 -1.0156
 8478TIP3    H246850   5.069   2.611  14.197  1.1008 -0.9496  0.4866
 8479TIP3   OH246851   1.527   3.101  13.303 -0.3572 -0.6109  0.3344
 8479TIP3    H146852   1.443   3.145  13.320 -1.2423 -2.2270  0.3927
 8479TIP3    H246853   1.569   3.095  13.389  0.3034  1.0509  0.1713
 8480TIP3   OH246854   2.513   5.299  14.946  0.6825 -0.0467 -0.1108
 8480TIP3    H146855   2.503   5.224  14.887  0.6968  1.0242 -1.5327
 8480TIP3    H246856   2.574   5.357  14.901  1.8697  0.1623  1.6720
 8481TIP3   OH246857   4.708   4.367   1.763  0.2247 -0.6213 -0.6685
 8481TIP3    H146858   4.776   4.432   1.747 -1.8337  1.3520 -2.0239
 8481TIP3    H246859   4.682   4.338   1.675 -0.9045 -1.0742 -0.2026
 8482TIP3   OH246860   5.511   2.754   5.909 -0.7011 -0.0318  0.2343
 8482TIP3    H146861   5.584   2.815   5.918 -1.1823  1.2157 -3.0317
 8482TIP3    H246862   5.548   2.668   5.929  1.3334  0.7139 -0.0744
 8483TIP3   OH246863   4.309   1.033  16.711 -0.3064  0.3280 -0.4675
 8483TIP3    H146864   4.345   0.955  16.669  0.0163  0.6882 -0.8725
 8483TIP3    H246865   4.297   1.096  16.640 -1.3641  0.3664 -0.2770
 8484TIP3   OH246866   3.854   3.995   0.396 -0.0388 -0.1030  0.2462
 8484TIP3    H146867   3.906   4.059   0.446 -1.3160  1.5560 -0.4445
 8484TIP3    H246868   3.917   3.928   0.371  1.0182 -0.0541  2.5023
 8485TIP3   OH246869   5.454   5.598   2.836 -0.9860  0.8084 -0.2776
 8485TIP3    H146870   5.452   5.650   2.756 -0.2699  1.0838 -0.1309
 8485TIP3    H246871   5.396   5.643   2.897  0.5202  2.1366  0.2455
 8486TIP3   OH246872   2.131   1.448   1.609 -0.1464  0.4834  0.1169
 8486TIP3    H146873   2.083   1.381   1.560  1.8848 -0.2570 -0.9647
 8486TIP3    H246874   2.137   1.412   1.698  2.0778 -1.5219 -0.7415
 8487TIP3   OH246875   0.064   1.893  13.139  0.5045  0.0311 -0.1418
 8487TIP3    H146876   0.042   1.816  13.191  0.4475 -0.8733 -1.4431
 8487TIP3    H246877   0.017   1.965  13.182  0.3584 -0.6906  0.9546
 8488TIP3   OH246878   0.753   5.837   3.562 -0.2210  0.2029 -0.1061
 8488TIP3    H146879   0.739   5.908   3.498 -3.1667 -0.3233 -0.1574
 8488TIP3    H246880   0.703   5.763   3.527  0.9180 -1.2022  1.1220
 8489TIP3   OH246881   5.986   2.224   4.845 -0.0974  0.7241  0.0365
 8489TIP3    H146882   5.938   2.185   4.772 -0.1245  0.3282  0.2647
 8489TIP3    H246883   6.004   2.313   4.816 -1.8492  1.2219  0.3406
 8490TIP3   OH246884   1.656   5.575  15.580 -0.1991  0.4144 -0.0275
 8490TIP3    H146885   1.585   5.628  15.543  1.3020  1.8778 -0.9671
 8490TIP3    H246886   1.653   5.594  15.674 -0.8025  0.7812 -0.1119
 8491TIP3   OH246887   2.806   0.389  16.100 -0.0865 -0.4792 -0.1836
 8491TIP3    H146888   2.735   0.326  16.093  0.3245 -0.8989 -0.7196
 8491TIP3    H246889   2.824   0.414  16.009  0.3465 -0.2677 -0.0422
 8492TIP3   OH246890   6.355   2.511   3.962  0.3605  0.5606 -0.7097
 8492TIP3    H146891   6.408   2.506   3.882  0.1601 -1.6232 -0.7557
 8492TIP3    H246892   6.272   2.550   3.933  0.3789  0.0092 -1.5301
 8493TIP3   OH246893   4.189   5.611   5.854  1.1415 -0.7426  0.5151
 8493TIP3    H146894   4.254   5.679   5.871  0.5334  0.2474 -0.8755
 8493TIP3    H246895   4.114   5.636   5.908  0.0022  1.1812 -1.7625
 8494TIP3   OH246896   6.476   5.695   3.320  0.2881  0.1569  0.2567
 8494TIP3    H146897   6.448   5.661   3.406  0.0051 -0.7310 -0.1775
 8494TIP3    H246898   6.396   5.700   3.269  0.2491  1.8968  0.4208
 8495TIP3   OH246899   5.992   0.886   6.029 -0.3704 -0.2425 -0.3629
 8495TIP3    H146900   5.959   0.973   6.055  0.8785 -0.1161  0.9120
 8495TIP3    H246901   6.087   0.897   6.024 -0.1866 -1.5639 -0.0743
 8496TIP3   OH246902   0.187   2.678   3.311  0.1890  0.3128 -0.2249
 8496TIP3    H146903   0.204   2.766   3.346 -0.2171  0.0645  0.6319
 8496TIP3    H246904   0.274   2.639   3.303  0.2961  0.3484  0.6267
 8497TIP3   OH246905   4.156   1.893   0.078  0.2143 -0.3466  0.0224
 8497TIP3    H146906   4.163   1.798   0.067  3.1307 -0.2658  0.4263
 8497TIP3    H246907   4.136   1.926  -0.010 -0.4211 -1.2760 -0.2014
 8498TIP3   OH246908   6.077   4.038   1.519  0.1165  0.0337  0.1327
 8498TIP3    H146909   6.115   3.970   1.575 -1.1498 -1.7381 -1.0434
 8498TIP3    H246910   6.133   4.040   1.442 -0.0376  0.0946  0.0207
 8499TIP3   OH246911   1.661   2.828   0.553 -0.5872  0.4491  0.1635
 8499TIP3    H146912   1.634   2.737   0.563 -1.4035  0.8314  1.8528
 8499TIP3    H246913   1.714   2.846   0.630  1.0652  0.9278 -1.0395
 8500TIP3   OH246914   3.896   2.355   1.457  0.0695  0.4590 -0.3810
 8500TIP3    H146915   3.963   2.286   1.465  0.2143  0.3992 -1.9022
 8500TIP3    H246916   3.815   2.312   1.485 -0.0154 -0.6501 -2.1878
 8501TIP3   OH246917   3.874   0.951  15.821  0.2858 -0.2078 -0.5140
 8501TIP3    H146918   3.933   0.964  15.895  0.6743  1.0153 -1.0167
 8501TIP3    H246919   3.876   0.856  15.805 -0.6285 -0.6485  1.6742
 8502TIP3   OH246920   6.494   6.764   1.490 -0.0473 -0.3203 -0.4430
 8502TIP3    H146921   6.578   6.784   1.449 -0.0399  0.0882 -0.2380
 8502TIP3    H246922   6.507   6.786   1.582 -0.5295  0.2182 -0.4975
 8503TIP3   OH246923   2.706   6.026   4.147 -0.5120 -0.6849  0.0705
 8503TIP3    H146924   2.622   5.980   4.148 -1.3650  0.8063  0.2843
 8503TIP3    H246925   2.717   6.056   4.057  1.1370 -3.1166 -0.6441
 8504TIP3   OH246926   4.272   4.392  16.590 -0.8626  0.0646  0.1400
 8504TIP3    H146927   4.363   4.412  16.613 -1.5725  2.1083  1.3958
 8504TIP3    H246928   4.279   4.321  16.526  1.5816 -0.2158  0.6136
 8505TIP3   OH246929   3.618   1.654   4.402  0.5956  0.4817  0.0720
 8505TIP3    H146930   3.535   1.657   4.354  1.0232  1.0456 -0.6553
 8505TIP3    H246931   3.678   1.610   4.342  0.6054 -0.7231  0.9493
 8506TIP3   OH246932   6.182   4.994   0.168 -0.2075 -0.5925  1.0156
 8506TIP3    H146933   6.087   4.984   0.182 -0.8358  1.0281 -1.4576
 8506TIP3    H246934   6.201   4.941   0.091 -0.1156  2.4917 -1.2826
 8507TIP3   OH246935   5.475   1.351  16.068 -0.7072  0.4772  0.1488
 8507TIP3    H146936   5.474   1.277  16.129  0.2252  0.0551 -0.3209
 8507TIP3    H246937   5.542   1.327  16.003 -1.4383  1.0659 -0.8448
 8508TIP3   OH246938   0.443   2.482   2.048 -0.5225  0.0477  0.3572
 8508TIP3    H146939   0.381   2.444   1.986 -1.0533  0.9903  0.2940
 8508TIP3    H246940   0.506   2.412   2.064  0.4849  0.2134 -2.3611
 8509TIP3   OH246941   1.264   5.308  13.183  0.6254  0.1491 -0.1166
 8509TIP3    H146942   1.221   5.369  13.123 -0.8514 -1.3904 -0.7035
 8509TIP3    H246943   1.269   5.226  13.134  0.6698 -0.7586  1.3580
 8510TIP3   OH246944   3.399   0.516   1.223 -0.2680 -0.3867 -0.0280
 8510TIP3    H146945   3.367   0.591   1.272  0.2359 -0.5725  0.5961
 8510TIP3    H246946   3.405   0.547   1.132  1.3319  0.7848  0.4451
 8511TIP3   OH246947   1.698   0.154  14.457 -0.9153 -0.2198 -0.5333
 8511TIP3    H146948   1.700   0.063  14.427 -3.8385 -0.6815  0.4263
 8511TIP3    H246949   1.615   0.188  14.426 -1.1826  1.2283  1.5635
 8512TIP3   OH246950   6.620   2.742   3.579 -0.2130 -0.0923 -0.0609
 8512TIP3    H146951   6.665   2.728   3.662 -0.6753 -0.6049  0.1153
 8512TIP3    H246952   6.642   2.664   3.527 -1.7530 -0.8970  0.4340
 8513TIP3   OH246953   0.706   0.785  12.507  0.0076 -0.0597 -0.0705
 8513TIP3    H146954   0.666   0.863  12.469  1.2830  1.3294  1.3651
 8513TIP3    H246955   0.716   0.805  12.600 -0.2243 -2.1990  0.4662
 8514TIP3   OH246956   4.385   4.119  14.895  0.4625  0.0578 -0.5167
 8514TIP3    H146957   4.301   4.113  14.849  0.8072 -0.3159 -1.1222
 8514TIP3    H246958   4.396   4.212  14.913 -0.0577  0.1148 -0.4836
 8515TIP3   OH246959   4.043   2.375   4.968 -0.3403 -0.0452  0.3345
 8515TIP3    H146960   4.031   2.344   4.878 -1.5252 -1.6903  1.0164
 8515TIP3    H246961   4.129   2.340   4.994 -0.2425 -0.0292  0.0349
 8516TIP3   OH246962   1.433   4.097   3.405 -0.0712  0.4661  0.0433
 8516TIP3    H146963   1.437   4.062   3.494  1.2587  1.3461  0.3590
 8516TIP3    H246964   1.463   4.187   3.413 -0.6814  0.7941 -1.1889
 8517TIP3   OH246965   2.993   0.385   3.668  0.0812  0.3852  0.1595
 8517TIP3    H146966   3.001   0.469   3.713  0.9256  0.3631  0.0590
 8517TIP3    H246967   3.078   0.372   3.626 -0.4057  0.0110 -0.7470
 8518TIP3   OH246968   1.270   0.136   1.474  0.3739 -0.0362  0.3756
 8518TIP3    H146969   1.327   0.059   1.480  1.0206  0.4547  0.6176
 8518TIP3    H246970   1.246   0.156   1.565 -1.5850 -1.2435  0.1918
 8519TIP3   OH246971   1.933   5.344  16.219 -0.5249 -0.1074 -0.1266
 8519TIP3    H146972   1.982   5.326  16.139 -0.6557  0.4678 -0.3396
 8519TIP3    H246973   1.967   5.280  16.283  0.1073 -0.0762 -0.4239
 8520TIP3   OH246974   4.466   1.909   2.123 -0.0470  0.6470  0.3149
 8520TIP3    H146975   4.376   1.932   2.100 -0.3073  0.5850  1.2201
 8520TIP3    H246976   4.514   1.991   2.114 -0.2589  0.7508  0.1182
 8521TIP3   OH246977   4.074   0.426  13.557 -0.2780  0.0642  0.2650
 8521TIP3    H146978   4.078   0.376  13.475  2.5413  1.2647 -0.4477
 8521TIP3    H246979   4.102   0.364  13.624  3.6437  0.5757 -0.6747
 8522TIP3   OH246980   4.438   1.504   5.926 -0.3900  0.1695 -0.3720
 8522TIP3    H146981   4.386   1.568   5.974  0.0154 -0.5092  1.0065
 8522TIP3    H246982   4.452   1.545   5.840 -1.0428  1.4548  0.1072
 8523TIP3   OH246983   5.972   3.258   3.854  0.5263 -0.0187  0.3733
 8523TIP3    H146984   6.004   3.204   3.927 -4.6739 -2.5472  1.2482
 8523TIP3    H246985   5.975   3.200   3.778 -0.0428  0.3627  0.0542
 8524TIP3   OH246986   6.044   5.035   6.184  0.4212  0.1456 -0.3273
 8524TIP3    H146987   6.059   5.095   6.257 -1.1384  2.1098 -1.4935
 8524TIP3    H246988   5.997   4.961   6.221  1.9096 -0.1526  1.0658
 8525TIP3   OH246989   3.777   6.382   0.880 -0.1566 -0.1111  0.0722
 8525TIP3    H146990   3.699   6.326   0.888  0.4590 -0.8197  1.5190
 8525TIP3    H246991   3.849   6.320   0.869  0.2309  0.5361 -1.1275
 8526TIP3   OH246992   4.336   6.409  16.164 -0.6718  0.4998 -0.6223
 8526TIP3    H146993   4.323   6.353  16.087  0.5649  0.3267 -0.7291
 8526TIP3    H246994   4.324   6.498  16.131  0.2392  0.4499 -1.1188
 8527TIP3   OH246995   6.768   1.559  11.935 -0.5129  0.3021 -0.0274
 8527TIP3    H146996   6.759   1.552  12.030 -1.5087 -0.2622 -0.1501
 8527TIP3    H246997   6.679   1.572  11.904 -0.2247  0.2164 -0.9112
 8528TIP3   OH246998   1.017   0.465   3.649  0.4480  0.0283 -0.1156
 8528TIP3    H146999   1.032   0.543   3.703 -0.7136  0.2214 -0.0456
 8528TIP3    H247000   1.011   0.500   3.560 -1.0510  0.1783  0.0155
 8529TIP3   OH247001   4.535   0.582   0.706  0.4875 -0.1577  0.3529
 8529TIP3    H147002   4.501   0.622   0.626 -0.8147  1.9735  1.8738
 8529TIP3    H247003   4.630   0.595   0.701  0.6452 -1.5576 -1.5505
 8530TIP3   OH247004   6.745   5.485   5.828  0.1658 -0.6564  0.4527
 8530TIP3    H147005   6.671   5.518   5.879 -0.5131 -1.1136 -0.2182
 8530TIP3    H247006   6.812   5.466   5.893 -0.6262 -1.0814  1.1680
 8531TIP3   OH247007   2.980   4.852   5.164  0.3993 -0.6734 -0.0173
 8531TIP3    H147008   2.886   4.869   5.155  0.2795 -0.8308  0.8444
 8531TIP3    H247009   3.015   4.864   5.076 -0.4951 -1.0286 -0.4354
 8532TIP3   OH247010   0.825   4.307   4.838 -0.1406 -0.0657  0.0921
 8532TIP3    H147011   0.883   4.354   4.898 -0.2454  0.6750 -0.3622
 8532TIP3    H247012   0.784   4.239   4.891  0.9966 -0.4816  0.4567
 8533TIP3   OH247013   4.294   2.894   2.186  0.1383 -0.1440  0.3470
 8533TIP3    H147014   4.336   2.817   2.225  2.1959  1.5241  1.6419
 8533TIP3    H247015   4.241   2.858   2.114  1.4250 -2.7025  0.5505
 8534TIP3   OH247016   4.925   1.371   5.221  0.0393 -0.3523  0.0050
 8534TIP3    H147017   4.911   1.413   5.306 -0.3146 -1.7285  0.6610
 8534TIP3    H247018   4.839   1.334   5.199  0.1777 -0.1718 -0.8706
 8535TIP3   OH247019   3.998   2.386  10.920  0.4217  0.0169 -0.2641
 8535TIP3    H147020   3.921   2.348  10.962 -0.7570  0.4292 -1.9543
 8535TIP3    H247021   3.999   2.477  10.952  1.0606 -0.3756  0.8680
 8536TIP3   OH247022   6.161   1.226   3.837  0.1767 -0.0384  0.6371
 8536TIP3    H147023   6.067   1.224   3.853  0.1311 -0.6302  0.3487
 8536TIP3    H247024   6.197   1.159   3.896  0.4192  0.2082  0.7699
 8537TIP3   OH247025   3.464   6.251  15.000  0.3241 -0.2328  0.1640
 8537TIP3    H147026   3.418   6.249  15.084  2.0473 -1.6961  1.1549
 8537TIP3    H247027   3.478   6.344  14.982 -0.6505  0.1252  1.1482
 8538TIP3   OH247028   6.365   3.938   4.008  0.4714 -0.1771 -0.4966
 8538TIP3    H147029   6.402   3.906   4.090  2.2849  2.4988 -0.1251
 8538TIP3    H247030   6.420   3.899   3.940 -0.0974 -1.2247 -0.3697
 8539TIP3   OH247031   5.198   5.578   6.424  0.0358  0.8050 -0.1292
 8539TIP3    H147032   5.230   5.515   6.489 -1.1491  0.4468  0.1317
 8539TIP3    H247033   5.140   5.636   6.474 -0.8453  0.5612 -0.8509
 8540TIP3   OH247034   4.818   5.280   3.727  0.2429 -0.8652  0.3511
 8540TIP3    H147035   4.724   5.284   3.713  0.3581 -0.5669 -0.3363
 8540TIP3    H247036   4.827   5.270   3.822 -0.4412  1.4020  0.7221
 8541TIP3   OH247037   4.457   4.832   1.849 -0.3037  0.2934 -0.4764
 8541TIP3    H147038   4.463   4.737   1.836 -0.6664  0.2044 -0.0280
 8541TIP3    H247039   4.545   4.864   1.832 -0.1782 -0.1248 -0.6374
 8542TIP3   OH247040   3.126   4.216  10.587  0.2723  0.2420  0.2237
 8542TIP3    H147041   3.049   4.247  10.635  0.2459 -1.1149  1.1204
 8542TIP3    H247042   3.102   4.128  10.558 -0.1459  1.3810 -3.3581
 8543TIP3   OH247043   5.983   2.098  12.823 -0.1333  0.1015  0.0541
 8543TIP3    H147044   6.059   2.048  12.854 -0.4852 -0.4431  0.0505
 8543TIP3    H247045   5.913   2.033  12.816 -1.4022  1.0255  2.7502
 8544TIP3   OH247046   3.666   3.046   5.618 -0.2837 -0.4705 -0.1110
 8544TIP3    H147047   3.594   3.071   5.675 -1.5741  0.3840 -2.0033
 8544TIP3    H247048   3.660   3.106   5.544  2.8165  0.0797 -0.0544
 8545TIP3   OH247049   0.641   4.607  12.484  0.3278  0.6883 -0.0946
 8545TIP3    H147050   0.712   4.608  12.419  1.1125 -0.8746  0.6935
 8545TIP3    H247051   0.643   4.695  12.522  1.6514  0.7652 -0.2966
 8546TIP3   OH247052   4.696   0.233  13.521  0.9993 -0.7943  0.2019
 8546TIP3    H147053   4.663   0.156  13.566 -0.9007 -0.8123 -1.0843
 8546TIP3    H247054   4.702   0.207  13.429 -0.4633  0.7533 -0.4062
 8547TIP3   OH247055   5.894   4.531   5.472  0.4228  0.5346  0.5011
 8547TIP3    H147056   5.808   4.490   5.465  0.7137 -0.0683  0.4195
 8547TIP3    H247057   5.926   4.506   5.558 -0.0247  1.8448  1.0770
 8548TIP3   OH247058   6.642   1.173   0.428  0.2667 -0.4157  0.6890
 8548TIP3    H147059   6.632   1.126   0.345 -0.9173  0.3667  0.3691
 8548TIP3    H247060   6.703   1.244   0.407 -0.3740  0.0452  0.3660
 8549TIP3   OH247061   4.510   5.408   4.209  0.1061 -0.2719 -0.0540
 8549TIP3    H147062   4.545   5.319   4.223  0.8381 -0.1378 -0.9021
 8549TIP3    H247063   4.436   5.414   4.268 -1.3502 -2.2447 -1.5136
 8550TIP3   OH247064   6.451   5.179  14.192 -0.5026 -0.2166  0.0447
 8550TIP3    H147065   6.505   5.165  14.270  0.4394 -0.6553 -0.6572
 8550TIP3    H247066   6.423   5.092  14.166 -1.0807 -0.0424  0.0661
 8551TIP3   OH247067   0.856   3.893   0.547 -0.0358  0.7721 -0.3109
 8551TIP3    H147068   0.834   3.954   0.476  0.5484  0.2226 -0.9724
 8551TIP3    H247069   0.877   3.811   0.503 -2.5401 -0.5021  0.6252
 8552TIP3   OH247070   5.222   2.017  13.914 -0.1010  0.5493  0.1784
 8552TIP3    H147071   5.133   2.038  13.883 -0.6920 -2.7296 -0.7661
 8552TIP3    H247072   5.278   2.038  13.839 -0.2493  1.2242  0.2438
 8553TIP3   OH247073   2.944   6.046   0.364  1.0956  0.8314 -0.5023
 8553TIP3    H147074   2.956   6.119   0.304  2.4586  0.4841 -0.6732
 8553TIP3    H247075   2.941   6.088   0.451  0.0040  1.2468 -0.7244
 8554TIP3   OH247076   3.549   6.581  14.162  0.2792 -0.4693 -0.4074
 8554TIP3    H147077   3.521   6.528  14.236  0.0507  0.2983  0.0626
 8554TIP3    H247078   3.566   6.517  14.092  1.5239 -1.2967  0.6107
 8555TIP3   OH247079   3.146   4.779   4.968 -0.9756  0.2752  0.1144
 8555TIP3    H147080   3.160   4.775   4.874  2.1787  1.6633  0.3953
 8555TIP3    H247081   3.103   4.696   4.990  1.8172 -1.9532 -2.0691
 8556TIP3   OH247082   2.676   5.628  14.941  0.1254  0.0192  0.0767
 8556TIP3    H147083   2.656   5.652  15.032 -2.2753 -2.2978  0.2776
 8556TIP3    H247084   2.645   5.702  14.890 -0.4442  0.4703  1.0342
 8557TIP3   OH247085   1.874   0.044   5.175  0.4439  0.0166  0.1656
 8557TIP3    H147086   1.909   0.089   5.099 -1.3894  0.7704 -0.2652
 8557TIP3    H247087   1.937   0.063   5.245 -0.3259  3.4583  0.0683
 8558TIP3   OH247088   0.807   0.017  16.844  0.0250 -0.0728 -0.2219
 8558TIP3    H147089   0.741  -0.044  16.811 -0.3630  0.0523  0.3121
 8558TIP3    H247090   0.886  -0.003  16.793 -0.4344 -0.1823 -0.9125
 8559TIP3   OH247091   4.367   1.573  16.432 -0.3227 -0.3480  0.2215
 8559TIP3    H147092   4.355   1.481  16.456 -0.2925 -0.1815  0.8839
 8559TIP3    H247093   4.462   1.585  16.427 -0.3064 -0.1619  0.9041
 8560TIP3   OH247094   5.342   3.414   3.154  0.6656 -0.2712 -0.3199
 8560TIP3    H147095   5.415   3.464   3.119  0.6558  0.0933  0.1606
 8560TIP3    H247096   5.282   3.402   3.080  0.3025  1.0932 -0.2763
 8561TIP3   OH247097   3.030   1.909   1.296 -0.4237 -0.2928 -0.1216
 8561TIP3    H147098   2.977   1.988   1.306  0.6395  0.1867  2.4013
 8561TIP3    H247099   3.120   1.941   1.288  0.0863 -1.1886  1.5064
 8562TIP3   OH247100   4.011   2.715  14.977 -0.2764 -0.7828 -0.1380
 8562TIP3    H147101   4.018   2.781  14.908 -1.5038 -0.0405  0.3963
 8562TIP3    H247102   3.955   2.757  15.043  0.1457 -1.8056  0.8983
 8563TIP3   OH247103   3.974   1.862   2.172  0.4917  0.2547 -0.0074
 8563TIP3    H147104   4.001   1.928   2.109  0.4577 -0.0680 -0.3649
 8563TIP3    H247105   3.940   1.912   2.246  1.7104  0.6594  0.3043
 8564TIP3   OH247106   5.165   5.822  11.235  0.1803 -0.2872  0.3647
 8564TIP3    H147107   5.081   5.821  11.190  0.3812 -1.8592 -0.0590
 8564TIP3    H247108   5.143   5.799  11.326  0.3109 -3.2215 -0.2376
 8565TIP3   OH247109   3.023   5.136   5.235  0.5813  0.1691  0.0093
 8565TIP3    H147110   2.935   5.153   5.268  0.8859 -0.0972  0.9840
 8565TIP3    H247111   3.021   5.045   5.206  0.0075  0.6943 -1.7851
 8566TIP3   OH247112   0.342   3.448  14.930 -0.1570  0.0254 -0.4735
 8566TIP3    H147113   0.346   3.481  14.841  1.1141 -0.1762 -0.5031
 8566TIP3    H247114   0.382   3.361  14.926  1.4209  0.6623  0.5612
 8567TIP3   OH247115   2.895   1.835   3.306  0.0751  0.0183 -0.6776
 8567TIP3    H147116   2.885   1.900   3.376 -0.9453  1.0390 -1.7213
 8567TIP3    H247117   2.977   1.789   3.327 -1.5945 -1.7837  2.8210
 8568TIP3   OH247118   0.186   2.280   2.190 -0.0949 -0.5545  0.3615
 8568TIP3    H147119   0.159   2.356   2.137  0.5739 -0.5985 -0.0489
 8568TIP3    H247120   0.109   2.223   2.190  0.0458 -0.7822 -1.0018
 8569TIP3   OH247121   1.472   1.075  10.790  0.5594 -0.0992  0.1990
 8569TIP3    H147122   1.444   1.161  10.821  1.9603 -0.2002  1.8964
 8569TIP3    H247123   1.413   1.014  10.834 -0.2683 -0.0620 -0.8076
 8570TIP3   OH247124   2.964   5.391  12.536 -0.0587 -0.3915  0.1554
 8570TIP3    H147125   3.012   5.340  12.471  0.8676  1.5996 -0.7913
 8570TIP3    H247126   2.916   5.456  12.484  0.9332  1.4414  1.4302
 8571TIP3   OH247127   3.843   0.256   6.087  0.7820 -0.0056 -0.4297
 8571TIP3    H147128   3.856   0.308   6.008  1.2661 -0.8346 -0.9027
 8571TIP3    H247129   3.768   0.200   6.067 -0.6378  1.4412  0.5807
 8572TIP3   OH247130   2.465   6.482   2.178  0.5344 -0.1154  0.2743
 8572TIP3    H147131   2.394   6.433   2.219 -0.0371  2.3813  2.5140
 8572TIP3    H247132   2.544   6.433   2.202 -0.1368 -0.9709  0.8108
 8573TIP3   OH247133   5.613   4.760  12.962  0.8872 -0.3167 -0.1393
 8573TIP3    H147134   5.613   4.675  13.007  0.1315  0.5225  1.5303
 8573TIP3    H247135   5.690   4.805  12.996  0.6955  0.0672 -0.2152
 8574TIP3   OH247136   2.628   3.840  12.370  0.2716  0.2873 -0.4157
 8574TIP3    H147137   2.550   3.802  12.330  0.6452 -0.1171 -0.7690
 8574TIP3    H247138   2.617   3.934  12.359 -0.0941  0.2260 -0.5981
 8575TIP3   OH247139   6.151   5.911   4.015  0.3460 -0.1935  0.1485
 8575TIP3    H147140   6.066   5.953   4.023  0.4493 -0.0666  0.5869
 8575TIP3    H247141   6.209   5.964   4.070  0.5282 -0.7540  0.5058
 8576TIP3   OH247142   5.717   3.106   2.339  0.0738  0.3704 -0.2748
 8576TIP3    H147143   5.694   3.063   2.256  0.1909 -1.6068  0.6465
 8576TIP3    H247144   5.802   3.147   2.322  1.1613 -1.8274 -0.6130
 8577TIP3   OH247145   1.305   1.371  14.724  0.4026 -0.0689  0.0226
 8577TIP3    H147146   1.397   1.360  14.703  0.5844 -0.9789  1.2054
 8577TIP3    H247147   1.303   1.386  14.818 -0.5077  2.2617 -0.2984
 8578TIP3   OH247148   6.110   2.072  14.069  0.8811  0.1002  0.0381
 8578TIP3    H147149   6.121   2.048  13.976 -2.4034  0.6710 -0.6190
 8578TIP3    H247150   6.073   2.160  14.067 -2.9310 -1.2671  1.5912
 8579TIP3   OH247151   3.301   1.890   1.997  0.2907 -0.0547 -0.1909
 8579TIP3    H147152   3.329   1.856   2.082  2.0851  1.4666 -0.1011
 8579TIP3    H247153   3.279   1.982   2.014 -1.1690 -0.2281 -1.0278
 8580TIP3   OH247154   2.637   2.723  13.561  0.5066 -0.0742  0.0855
 8580TIP3    H147155   2.593   2.644  13.593  0.1954  0.1686  0.2676
 8580TIP3    H247156   2.567   2.771  13.515  0.0810  1.2461  2.0020
 8581TIP3   OH247157   3.732   5.459   4.119  0.2303 -0.3791  0.1415
 8581TIP3    H147158   3.706   5.523   4.185  0.6776 -0.0356 -0.0080
 8581TIP3    H247159   3.827   5.465   4.116  0.1481  1.1473 -2.0079
 8582TIP3   OH247160   6.519   3.276  16.797  0.3074  0.6961 -0.4233
 8582TIP3    H147161   6.610   3.247  16.795  0.6811  1.4878  1.8487
 8582TIP3    H247162   6.473   3.206  16.844 -0.3127  0.2217 -1.7014
 8583TIP3   OH247163   0.809   5.030  16.292  0.5685 -0.4867  0.5246
 8583TIP3    H147164   0.759   4.993  16.219  0.4017  1.2254 -0.2993
 8583TIP3    H247165   0.864   5.096  16.251  0.9413  0.0683  1.8807
 8584TIP3   OH247166   4.936   6.695  11.839  0.1790 -0.0955 -0.6752
 8584TIP3    H147167   4.894   6.642  11.906 -0.7889  1.5965  0.0978
 8584TIP3    H247168   4.867   6.713  11.775  0.2288  1.0146 -0.4369
 8585TIP3   OH247169   2.640   1.977  15.624 -0.4168  0.4338  0.4806
 8585TIP3    H147170   2.693   2.048  15.588 -1.6329  1.5495  0.8140
 8585TIP3    H247171   2.607   1.931  15.547 -0.5908  0.9701  0.2283
 8586TIP3   OH247172   5.366   4.029  14.100 -0.3802  0.0425  0.1462
 8586TIP3    H147173   5.313   4.040  14.021  0.5420 -1.1140 -0.6676
 8586TIP3    H247174   5.397   3.939  14.096  0.8037  0.3812  1.1167
 8587TIP3   OH247175   3.818   6.339   3.416  0.1788  0.1417  0.0433
 8587TIP3    H147176   3.874   6.388   3.476 -0.3582  0.5827  0.1886
 8587TIP3    H247177   3.729   6.361   3.443 -0.1099 -1.7282  0.8206
 8588TIP3   OH247178   1.463   4.272   2.919 -0.2548  0.5055 -0.3136
 8588TIP3    H147179   1.380   4.270   2.967 -2.6143 -1.9198 -3.8974
 8588TIP3    H247180   1.471   4.362   2.888 -2.0042  0.6336 -0.4915
 8589TIP3   OH247181   3.195   6.619   5.106  0.0014 -0.1707 -0.5412
 8589TIP3    H147182   3.110   6.578   5.090 -0.3798  0.4883 -0.2280
 8589TIP3    H247183   3.243   6.555   5.159 -0.2426 -0.6026 -0.8298
 8590TIP3   OH247184   0.132   4.660   2.849  0.2256  0.0967  0.9117
 8590TIP3    H147185   0.178   4.661   2.766  1.0859  0.2443  1.3810
 8590TIP3    H247186   0.089   4.574   2.852 -0.6655  0.4844 -0.1209
 8591TIP3   OH247187   5.448   1.358  13.944 -0.3979 -0.0237  0.6923
 8591TIP3    H147188   5.371   1.301  13.950  0.3324 -1.0720  0.2717
 8591TIP3    H247189   5.450   1.387  13.853  0.9668 -1.8436  0.0915
 8592TIP3   OH247190   0.476   0.027   0.017 -0.3329  0.2602  0.3119
 8592TIP3    H147191   0.484   0.015  -0.078  0.3030  0.9301  0.2689
 8592TIP3    H247192   0.557   0.071   0.042  0.1224 -1.1278  1.3941
 8593TIP3   OH247193   6.769   6.694  13.186  0.9347 -1.0501  0.3763
 8593TIP3    H147194   6.828   6.703  13.112  0.8993 -2.9701  0.0689
 8593TIP3    H247195   6.706   6.626  13.159  0.5201 -1.3053  1.8819
 8594TIP3   OH247196   2.879   2.178  16.801  0.1264 -0.2402 -0.5466
 8594TIP3    H147197   2.802   2.232  16.814  1.7701  1.9478  0.7537
 8594TIP3    H247198   2.949   2.239  16.779  2.1863 -1.7101  1.3903
 8595TIP3   OH247199   0.296   1.756   0.139  0.0332  0.0117 -0.1291
 8595TIP3    H147200   0.341   1.795   0.064  1.7129 -1.4199  0.0617
 8595TIP3    H247201   0.236   1.692   0.101 -0.1013  0.2313 -0.2895
 8596TIP3   OH247202   6.391   6.004  14.200  0.8059  0.7313 -0.5396
 8596TIP3    H147203   6.465   6.057  14.171  0.3758  0.4503 -2.2197
 8596TIP3    H247204   6.322   6.020  14.136 -0.2425  0.1643  0.3990
 8597TIP3   OH247205   5.712   2.946  14.099  0.2158 -0.8799  0.0131
 8597TIP3    H147206   5.625   2.983  14.108  0.6310  0.7034 -1.8238
 8597TIP3    H247207   5.769   3.007  14.146  0.4083 -1.7187  0.9054
 8598TIP3   OH247208   4.434   4.417   3.100  0.3711  0.1522 -0.0035
 8598TIP3    H147209   4.435   4.462   3.016 -1.8162  0.0242 -0.1482
 8598TIP3    H247210   4.395   4.332   3.082 -1.8918  0.7985  1.3753
 8599TIP3   OH247211   3.943   5.147  12.889  0.1551  0.0823  0.2216
 8599TIP3    H147212   3.983   5.076  12.838 -1.8417  0.4402 -2.0477
 8599TIP3    H247213   4.000   5.222  12.873  1.1302 -0.4867  0.9199
 8600TIP3   OH247214   0.053   5.392   4.071 -0.0812  0.2985 -0.2098
 8600TIP3    H147215   0.059   5.299   4.094 -0.2999  0.2467 -0.3595
 8600TIP3    H247216   0.115   5.403   3.999 -0.3917  0.1652 -0.5050
 8601TIP3   OH247217   2.021   3.117  14.583 -0.1285 -0.0265  0.1262
 8601TIP3    H147218   2.044   3.064  14.506 -1.4296  0.3934 -0.5639
 8601TIP3    H247219   2.032   3.207  14.555  0.3130  0.1287  0.7527
 8602TIP3   OH247220   4.119   4.256   1.347 -0.0796 -0.0125  0.2665
 8602TIP3    H147221   4.107   4.349   1.329  0.0380 -0.3618 -1.8404
 8602TIP3    H247222   4.049   4.235   1.409 -1.8182  0.9252 -1.2736
 8603TIP3   OH247223   3.617   3.963   5.380 -0.2310  0.1244 -0.2069
 8603TIP3    H147224   3.608   3.873   5.349 -0.3892 -0.9956  2.7557
 8603TIP3    H247225   3.535   3.980   5.428 -0.4180  2.0697 -1.1020
 8604TIP3   OH247226   0.031   1.340  16.619  0.0223  0.4714 -0.5804
 8604TIP3    H147227   0.056   1.262  16.570 -1.9836 -0.0896 -0.8142
 8604TIP3    H247228  -0.038   1.311  16.679 -1.2124  2.1293 -1.0873
 8605TIP3   OH247229   0.900   0.809   5.798  0.3523 -0.1973 -0.1916
 8605TIP3    H147230   0.915   0.902   5.813 -0.2928 -0.2437  0.8913
 8605TIP3    H247231   0.971   0.765   5.846  0.8757 -0.2714 -1.0094
 8606TIP3   OH247232   6.632   4.072   1.720 -0.2654  0.5600  0.4974
 8606TIP3    H147233   6.670   4.134   1.658  0.8347  0.7947  1.3824
 8606TIP3    H247234   6.550   4.113   1.747  1.0073  2.2740  1.9851
 8607TIP3   OH247235   3.997   0.901  12.805  0.3590 -0.4001  0.6158
 8607TIP3    H147236   4.004   0.988  12.844  0.6707 -0.6529  1.1292
 8607TIP3    H247237   4.078   0.857  12.829  1.1046 -0.1820 -1.2997
 8608TIP3   OH247238   3.667   5.936  14.642 -0.4382 -0.3639  0.3293
 8608TIP3    H147239   3.691   5.916  14.551 -3.4900 -0.8422 -0.4899
 8608TIP3    H247240   3.656   6.031  14.644  2.3116  0.0316  1.0337
 8609TIP3   OH247241   3.789   2.989   4.301 -0.2333 -0.1653 -0.1737
 8609TIP3    H147242   3.802   2.895   4.314 -2.0050 -0.1564  2.3579
 8609TIP3    H247243   3.822   3.029   4.382 -0.0335  1.3494 -0.9702
 8610TIP3   OH247244   0.051   5.024   3.696 -0.2807  0.6541 -0.2124
 8610TIP3    H147245   0.093   5.014   3.610  0.4304  0.8005  0.1055
 8610TIP3    H247246  -0.021   5.085   3.681 -1.9086 -1.4245 -1.2625
 8611TIP3   OH247247   4.960   1.694  14.127  0.4163 -0.0378 -0.0620
 8611TIP3    H147248   5.035   1.676  14.069 -1.7265 -2.3823 -2.3917
 8611TIP3    H247249   4.909   1.760  14.080  0.2563  0.4298  0.7614
 8612TIP3   OH247250   2.522   1.504  12.762 -0.6493  0.1304  0.1196
 8612TIP3    H147251   2.612   1.530  12.784 -1.0850  1.3476  0.5323
 8612TIP3    H247252   2.519   1.410  12.782  0.1776  0.3356  1.3426
 8613TIP3   OH247253   6.164   3.652  13.619  0.2174  0.5382  0.0320
 8613TIP3    H147254   6.248   3.606  13.625 -0.1709 -0.1012  0.7665
 8613TIP3    H247255   6.115   3.621  13.695 -2.1818 -2.1193 -2.3788
 8614TIP3   OH247256   3.416   1.129   1.991 -0.4557  0.2156 -0.4177
 8614TIP3    H147257   3.418   1.196   1.923 -1.5085  1.6190  0.8598
 8614TIP3    H247258   3.499   1.140   2.038 -0.4423  0.3297 -0.4683
 8615TIP3   OH247259   0.513   5.932  16.112 -0.0502 -0.0290  0.1173
 8615TIP3    H147260   0.579   5.909  16.046 -1.1179 -0.0153 -0.9884
 8615TIP3    H247261   0.516   6.028  16.116 -0.0077 -0.0284  0.0697
 8616TIP3   OH247262   6.162   4.391  11.403 -0.2939  0.3119 -0.1953
 8616TIP3    H147263   6.067   4.382  11.396 -0.1614 -0.5615 -1.1653
 8616TIP3    H247264   6.192   4.309  11.441 -0.0238  1.1003  1.3734
 8617TIP3   OH247265   5.883   4.661  14.572 -0.3889 -0.1094  0.9939
 8617TIP3    H147266   5.811   4.710  14.533 -1.3351 -2.6220 -0.6787
 8617TIP3    H247267   5.949   4.727  14.592 -1.5009  1.8346 -1.2377
 8618TIP3   OH247268   3.262   0.628  16.860  0.0733 -0.3459 -0.3181
 8618TIP3    H147269   3.298   0.541  16.876 -0.2302 -0.2592  0.9474
 8618TIP3    H247270   3.167   0.615  16.864  0.0060  0.4335  2.4387
 8619TIP3   OH247271   2.373   3.185  14.082  0.2406  0.6581  0.4780
 8619TIP3    H147272   2.467   3.202  14.077  0.1320  1.0384 -3.9486
 8619TIP3    H247273   2.333   3.272  14.081 -0.1973  0.4734  1.2972
 8620TIP3   OH247274   0.964   3.071   3.313  0.2442 -0.4969 -0.6637
 8620TIP3    H147275   0.989   2.979   3.307 -0.9691 -0.8853  0.0158
 8620TIP3    H247276   0.870   3.070   3.331  0.0409  0.8909 -1.4420
 8621TIP3   OH247277   4.573   0.161   0.102 -0.4724 -0.4491  0.2347
 8621TIP3    H147278   4.553   0.253   0.089  0.1679 -0.2722  0.4653
 8621TIP3    H247279   4.668   0.155   0.088 -0.4089 -0.9604  0.8457
 8622TIP3   OH247280   2.875   4.237   5.821  0.1030  0.1552 -0.3140
 8622TIP3    H147281   2.781   4.235   5.836 -0.0930  0.9613 -1.3105
 8622TIP3    H247282   2.901   4.325   5.849  0.4213  0.2050 -0.7564
 8623TIP3   OH247283   1.513   1.861   2.147  0.4737 -0.0317  0.1846
 8623TIP3    H147284   1.570   1.821   2.080 -0.7859  1.4794 -1.9016
 8623TIP3    H247285   1.535   1.954   2.144 -0.7511  0.2830  0.7425
 8624TIP3   OH247286   5.542   2.484   1.006  0.2664  0.0340 -0.0307
 8624TIP3    H147287   5.594   2.524   1.076 -0.2283 -0.2361  0.5043
 8624TIP3    H247288   5.467   2.543   0.995  1.5929  1.4733 -2.1335
 8625TIP3   OH247289   2.000   3.941   4.477 -0.6743 -0.2273  0.5201
 8625TIP3    H147290   1.972   3.850   4.467  0.1289 -0.3597 -0.6740
 8625TIP3    H247291   1.936   3.991   4.427  0.0918 -0.3530 -0.6166
 8626TIP3   OH247292   0.661   0.648   5.375 -0.2781  0.0814  0.0383
 8626TIP3    H147293   0.703   0.577   5.327 -0.6854 -0.5724  0.6388
 8626TIP3    H247294   0.709   0.653   5.458  0.6485  1.4344 -0.5383
 8627TIP3   OH247295   1.306   3.101  10.648 -0.0545 -0.2859  0.2416
 8627TIP3    H147296   1.347   3.015  10.641 -0.0051 -0.1349 -2.5420
 8627TIP3    H247297   1.212   3.084  10.634 -0.2008 -0.0209  0.8864
 8628TIP3   OH247298   5.171   4.609   0.155 -0.2793  0.1085 -0.5028
 8628TIP3    H147299   5.251   4.558   0.151 -0.1730  0.3247 -1.4057
 8628TIP3    H247300   5.188   4.677   0.221 -0.3617 -0.8847  0.5674
 8629TIP3   OH247301   0.330   3.987   6.837  0.0799  0.2329 -0.4933
 8629TIP3    H147302   0.265   4.033   6.889  0.3725  0.4489 -0.3148
 8629TIP3    H247303   0.414   4.015   6.873  0.2883  0.4631 -1.1509
 8630TIP3   OH247304   5.766   2.595   6.305  0.3861  0.3028 -0.5557
 8630TIP3    H147305   5.818   2.629   6.378  0.4476  1.8139 -1.2721
 8630TIP3    H247306   5.715   2.670   6.274  0.2625 -0.3361 -1.9936
 8631TIP3   OH247307   2.056   2.945   3.748  0.0780 -0.6367 -0.1510
 8631TIP3    H147308   2.088   2.999   3.675  0.5216  0.7215  1.0022
 8631TIP3    H247309   2.122   2.957   3.817  0.4327 -3.0547  0.0011
 8632TIP3   OH247310   5.585   4.133   2.197 -0.7802  0.2024  0.7131
 8632TIP3    H147311   5.562   4.100   2.110 -2.5235  1.0913  0.8109
 8632TIP3    H247312   5.595   4.227   2.185 -0.1640  0.2253  1.3198
 8633TIP3   OH247313   3.224   0.703  15.921 -0.0424 -0.2669 -0.0865
 8633TIP3    H147314   3.240   0.611  15.901 -2.8956 -1.0430  0.7332
 8633TIP3    H247315   3.250   0.749  15.841  2.3562 -1.6113 -0.1616
 8634TIP3   OH247316   6.614   2.073   4.849 -0.5655  0.0970 -0.1120
 8634TIP3    H147317   6.646   2.128   4.777 -0.4639 -0.6542 -0.6468
 8634TIP3    H247318   6.624   1.983   4.818 -0.3819 -0.2507  0.9036
 8635TIP3   OH247319   4.054   6.396  15.880 -0.2475  0.7787  0.0203
 8635TIP3    H147320   4.025   6.485  15.858  0.9280  1.2245  0.1790
 8635TIP3    H247321   4.022   6.342  15.808  1.7301  1.8662 -1.7869
 8636TIP3   OH247322   1.157   4.741  12.869 -0.2210 -0.0203 -0.1869
 8636TIP3    H147323   1.078   4.790  12.893  0.1582  0.7408 -0.4693
 8636TIP3    H247324   1.149   4.659  12.918 -0.3106  0.7746  1.2092
 8637TIP3   OH247325   6.137   2.701   2.291 -0.8520  0.7283  0.4206
 8637TIP3    H147326   6.082   2.691   2.213  3.1053 -0.5314 -2.5254
 8637TIP3    H247327   6.187   2.781   2.275 -0.2239  0.6490  1.8761
 8638TIP3   OH247328   5.696   5.259   5.164  0.1198 -0.3114 -0.5283
 8638TIP3    H147329   5.773   5.314   5.147 -0.2692  1.1178  1.8718
 8638TIP3    H247330   5.732   5.170   5.172  1.4458  0.2475 -0.0073
 8639TIP3   OH247331   1.168   5.471  15.792 -0.3314 -0.0414  0.4325
 8639TIP3    H147332   1.100   5.494  15.728 -1.5771 -1.1887  1.2878
 8639TIP3    H247333   1.232   5.421  15.741 -0.7642 -0.0198 -0.1443
 8640TIP3   OH247334   5.531   5.958  14.392 -0.5516 -0.4742 -0.3427
 8640TIP3    H147335   5.514   5.876  14.437 -1.8381 -0.0011  0.0842
 8640TIP3    H247336   5.483   6.024  14.442 -1.2953  0.2152 -1.8657
 8641TIP3   OH247337   4.072   3.401  16.042  0.1508 -0.8849 -0.2046
 8641TIP3    H147338   4.122   3.468  16.090  0.4243  0.7255 -2.5935
 8641TIP3    H247339   4.095   3.414  15.951  0.9007 -4.9110 -0.7481
 8642TIP3   OH247340   5.706   1.381  10.348  0.5075 -0.5527  0.7271
 8642TIP3    H147341   5.797   1.364  10.321  0.4454 -2.7995  1.6957
 8642TIP3    H247342   5.713   1.454  10.409  1.2655  1.1889 -1.3213
 8643TIP3   OH247343   3.918   4.236  11.778  0.6998  0.0591  0.3176
 8643TIP3    H147344   3.982   4.196  11.837  0.1981 -0.6348  0.4034
 8643TIP3    H247345   3.837   4.238  11.829  0.3185 -0.3298 -0.2694
 8644TIP3   OH247346   0.241   0.339   0.643 -0.6540 -0.3558 -0.2148
 8644TIP3    H147347   0.298   0.347   0.720 -0.9392  1.5637 -0.1651
 8644TIP3    H247348   0.165   0.291   0.675  0.2048 -1.5550  0.1077
 8645TIP3   OH247349   1.507   1.084   5.837  0.1072  0.0302 -0.4145
 8645TIP3    H147350   1.429   1.095   5.782  0.9966  2.9217 -1.2609
 8645TIP3    H247351   1.577   1.062   5.775  0.5369  0.3714 -0.0531
 8646TIP3   OH247352   1.411   2.300   1.213  0.5367  0.4309  0.3030
 8646TIP3    H147353   1.474   2.231   1.232 -0.8471 -0.2078  3.0658
 8646TIP3    H247354   1.403   2.299   1.117  2.4564 -1.4732  0.0925
 8647TIP3   OH247355   5.699   0.766  11.986 -0.0626 -0.6768  0.4734
 8647TIP3    H147356   5.779   0.744  11.938 -0.6863 -3.6277  0.6443
 8647TIP3    H247357   5.634   0.781  11.918  0.2010  0.1209  0.3757
 8648TIP3   OH247358   4.373   1.708  14.936 -0.2772  0.3482 -0.4292
 8648TIP3    H147359   4.406   1.795  14.914 -0.2804  0.2916 -0.6606
 8648TIP3    H247360   4.442   1.649  14.908 -0.1186  0.3022  0.0670
 8649TIP3   OH247361   2.252   1.228  17.214  0.2865 -0.1485 -0.2853
 8649TIP3    H147362   2.223   1.292  17.279  2.1561 -0.5131  0.9992
 8649TIP3    H247363   2.342   1.253  17.194  0.1201 -0.7267 -1.9252
 8650TIP3   OH247364   2.857   4.804  12.043 -0.5309  0.9004  0.6236
 8650TIP3    H147365   2.902   4.788  11.960 -2.0095 -2.4684  0.3472
 8650TIP3    H247366   2.816   4.890  12.032 -2.0995 -0.1518 -2.8420
 8651TIP3   OH247367   0.007   3.586   1.664 -0.2367 -1.3079  0.8462
 8651TIP3    H147368  -0.070   3.623   1.707  0.7819  0.0718  1.5660
 8651TIP3    H247369  -0.012   3.590   1.571 -0.8997 -0.7051  1.0026
 8652TIP3   OH247370   0.148   1.023   4.441  0.3362 -1.1462 -0.5072
 8652TIP3    H147371   0.148   0.948   4.499  0.2997 -1.3964 -0.8275
 8652TIP3    H247372   0.065   1.067   4.459  1.5616  0.4515  1.7458
 8653TIP3   OH247373   2.548   6.309   0.035  0.0315 -0.3205  0.4603
 8653TIP3    H147374   2.611   6.367  -0.007 -0.9207  1.4114  1.3252
 8653TIP3    H247375   2.591   6.280   0.115  0.7701 -1.4047 -0.2952
 8654TIP3   OH247376   6.574   0.948  14.551 -0.5907 -0.0619  0.1957
 8654TIP3    H147377   6.497   0.937  14.495 -0.8528 -2.4937  0.8983
 8654TIP3    H247378   6.540   0.943  14.640  0.2513 -0.0876  0.5264
 8655TIP3   OH247379   2.286   4.622   2.812  0.2590  0.3204  0.6298
 8655TIP3    H147380   2.216   4.570   2.850  0.9792 -0.3194  1.1177
 8655TIP3    H247381   2.355   4.559   2.792 -0.2501  0.5309 -2.2300
 8656TIP3   OH247382   6.723   1.788  14.796  0.2292 -0.5932  0.4208
 8656TIP3    H147383   6.647   1.842  14.775  0.5240 -0.2485  0.2054
 8656TIP3    H247384   6.788   1.850  14.829  1.1419 -0.5468 -1.3161
 8657TIP3   OH247385   5.244   0.390   2.504 -0.7561 -0.2270  0.1795
 8657TIP3    H147386   5.329   0.399   2.462 -0.2512 -2.6233  0.5237
 8657TIP3    H247387   5.247   0.451   2.578  0.7068 -0.3124  0.2127
 8658TIP3   OH247388   6.315   1.120  13.085 -0.2985  0.5044 -0.0195
 8658TIP3    H147389   6.244   1.060  13.064  0.2405 -0.4268  0.7524
 8658TIP3    H247390   6.390   1.088  13.034 -0.4098  1.5073 -0.8685
 8659TIP3   OH247391   3.956   4.061  12.135 -0.1013 -0.6655 -0.2043
 8659TIP3    H147392   4.024   4.011  12.180  1.0573  2.0338  1.2426
 8659TIP3    H247393   4.004   4.114  12.071 -0.9997  0.2009 -0.1811
 8660TIP3   OH247394   0.157   3.373   4.634  0.1518  0.5932 -0.1662
 8660TIP3    H147395   0.186   3.378   4.725 -0.6702  0.7079  0.1005
 8660TIP3    H247396   0.109   3.290   4.629 -0.3639  0.8921 -0.3176
 8661TIP3   OH247397   4.162   2.371   1.035  0.9742  0.0032 -0.2848
 8661TIP3    H147398   4.129   2.282   1.023  3.0119 -0.8891  0.3603
 8661TIP3    H247399   4.254   2.366   1.010  1.9939  1.1200  2.8268
 8662TIP3   OH247400   1.806   2.033   4.211 -0.1944  0.3033  0.5567
 8662TIP3    H147401   1.743   1.999   4.149 -0.2363 -2.3382  1.9286
 8662TIP3    H247402   1.865   2.086   4.158  0.3338 -2.5484 -1.9785
 8663TIP3   OH247403   4.266   3.146   0.983  0.0857  0.0136 -0.4141
 8663TIP3    H147404   4.287   3.196   1.062  0.0496 -0.7592  0.0965
 8663TIP3    H247405   4.299   3.200   0.911  0.5831  0.4875  0.1554
 8664TIP3   OH247406   5.957   5.225  14.009  0.2407  0.0338 -0.0470
 8664TIP3    H147407   6.033   5.252  14.061  0.3466 -0.2239 -0.0677
 8664TIP3    H247408   5.919   5.307  13.978 -0.6205  0.2648  1.5367
 8665TIP3   OH247409   1.627   3.699  11.824 -0.0548  0.1149  0.2523
 8665TIP3    H147410   1.568   3.651  11.765  0.2812  0.1050 -0.0813
 8665TIP3    H247411   1.656   3.775  11.772 -1.5177  1.3531  1.1831
 8666TIP3   OH247412   3.084   0.353  14.955 -0.3113  0.2111 -0.2903
 8666TIP3    H147413   3.132   0.417  14.902  0.7186 -0.8839 -0.7206
 8666TIP3    H247414   3.080   0.275  14.901 -2.2130  0.1136 -0.0699
 8667TIP3   OH247415   2.896   6.608  13.508 -0.3841  0.5603 -0.0736
 8667TIP3    H147416   2.855   6.673  13.450  0.3641 -0.1045 -1.4075
 8667TIP3    H247417   2.829   6.540  13.516 -0.2777  0.3788 -0.6594
 8668TIP3   OH247418   3.380   3.594   0.541  0.0242 -0.0653 -0.0738
 8668TIP3    H147419   3.362   3.660   0.607  2.0357 -0.7286  1.2166
 8668TIP3    H247420   3.324   3.520   0.564  0.1589 -0.0064  0.4385
 8669TIP3   OH247421   5.950   4.392   0.576  0.2949 -0.2127 -0.0205
 8669TIP3    H147422   5.914   4.321   0.629  0.7461 -0.5913 -0.2100
 8669TIP3    H247423   5.934   4.365   0.486 -0.2142  0.2952 -0.0903
 8670TIP3   OH247424   2.128   0.922   3.254 -1.4293 -0.0424  0.6239
 8670TIP3    H147425   2.149   0.846   3.309 -1.3847 -1.2705 -1.0204
 8670TIP3    H247426   2.042   0.902   3.217 -0.6590 -0.1775 -1.2220
 8671TIP3   OH247427   5.176   1.987  12.416  0.1425  0.5914 -0.1439
 8671TIP3    H147428   5.265   2.011  12.444 -0.0812  0.7499  0.4290
 8671TIP3    H247429   5.148   1.922  12.480 -0.1524  0.5340 -0.3328
 8672TIP3   OH247430   3.452   6.254  13.535 -0.0941 -0.2107  0.0928
 8672TIP3    H147431   3.396   6.178  13.522 -0.6062  0.2195 -0.2867
 8672TIP3    H247432   3.392   6.324  13.562  0.1023  0.4934 -1.1883
 8673TIP3   OH247433   2.069   2.377  15.032  0.7855 -0.0052 -0.2887
 8673TIP3    H147434   2.036   2.288  15.016  1.3413 -0.2508 -0.1079
 8673TIP3    H247435   2.086   2.412  14.945 -0.7383  0.4493 -0.4413
 8674TIP3   OH247436   0.746   3.296   3.810 -0.2261 -0.4156 -0.4600
 8674TIP3    H147437   0.812   3.358   3.841  1.7620 -1.8167 -1.6848
 8674TIP3    H247438   0.691   3.347   3.751 -0.8696  0.9968  1.2669
 8675TIP3   OH247439   3.641   3.884  13.030  0.1782  0.1040 -0.0761
 8675TIP3    H147440   3.626   3.938  13.108  1.7072 -1.6589  1.5604
 8675TIP3    H247441   3.645   3.794  13.063 -0.6170 -0.8849 -2.4399
 8676TIP3   OH247442   5.306   2.523  16.310 -0.1693 -1.0046 -0.3580
 8676TIP3    H147443   5.387   2.573  16.301 -0.0794 -1.2567 -1.0027
 8676TIP3    H247444   5.243   2.586  16.344  0.3862 -0.9034  0.5322
 8677TIP3   OH247445   4.606   2.186   2.244 -0.0907  0.2607 -0.1217
 8677TIP3    H147446   4.684   2.240   2.260  0.0690 -0.3581  1.4059
 8677TIP3    H247447   4.552   2.238   2.185  1.2249  0.9453 -0.7745
 8678TIP3   OH247448   5.424   5.176  12.168  0.0159  0.1503 -0.1077
 8678TIP3    H147449   5.405   5.215  12.253  0.9302  1.5798 -0.5217
 8678TIP3    H247450   5.519   5.160  12.170  0.4297  2.0375 -1.5265
 8679TIP3   OH247451   1.755   4.150   1.070  1.1538  0.3650  0.3277
 8679TIP3    H147452   1.810   4.121   0.997 -1.5997 -0.9105 -1.4310
 8679TIP3    H247453   1.742   4.070   1.122  0.6039  0.5279  0.4420
 8680TIP3   OH247454   2.789   5.618  10.404  0.0453 -0.2843 -0.4920
 8680TIP3    H147455   2.877   5.599  10.374 -0.0687 -1.2262 -0.2581
 8680TIP3    H247456   2.799   5.697  10.459  0.7369 -0.3877 -0.4615
 8681TIP3   OH247457   5.432   5.427   2.534 -0.0044  0.1783  0.1326
 8681TIP3    H147458   5.410   5.334   2.523  1.4101 -0.3939  1.7017
 8681TIP3    H247459   5.492   5.447   2.462 -1.5259  0.3412 -1.1325
 8682TIP3   OH247460   2.804   0.276   0.974  0.4145  0.3138 -0.7387
 8682TIP3    H147461   2.860   0.273   0.896 -0.2240 -0.5212 -1.1796
 8682TIP3    H247462   2.841   0.210   1.032 -0.0246 -0.1601 -0.9845
 8683TIP3   OH247463   4.630   3.558   3.842  0.2536  0.8513  0.1770
 8683TIP3    H147464   4.713   3.514   3.825  0.5743  1.4540  0.1441
 8683TIP3    H247465   4.584   3.556   3.758 -0.5533 -1.0636  0.6174
 8684TIP3   OH247466   3.665   1.447  17.252  0.0368 -0.2403 -0.1511
 8684TIP3    H147467   3.700   1.387  17.318  1.1129  1.4014  0.8397
 8684TIP3    H247468   3.663   1.532  17.295  2.4848  1.2760 -2.7316
 8685TIP3   OH247469   0.643   2.712   2.015 -0.6940  0.0483 -0.0444
 8685TIP3    H147470   0.582   2.641   1.997 -0.1011 -0.5651  0.3558
 8685TIP3    H247471   0.728   2.679   1.987 -0.2466  0.2102  1.0649
 8686TIP3   OH247472   2.960   0.454  11.935 -0.4236  0.1204  0.3580
 8686TIP3    H147473   2.945   0.521  11.869  0.1487  0.7201  0.8306
 8686TIP3    H247474   3.052   0.462  11.958 -0.6712  0.0920  1.4124
 8687TIP3   OH247475   0.578   2.600  16.500  0.2862  0.1895  0.4033
 8687TIP3    H147476   0.625   2.523  16.468 -0.3004  0.2403 -0.6069
 8687TIP3    H247477   0.606   2.671  16.443  2.5474  1.2912  2.6720
 8688TIP3   OH247478   0.725   2.591  12.507 -0.2637  0.0778  0.1193
 8688TIP3    H147479   0.688   2.672  12.472 -0.3324  0.1836  0.4402
 8688TIP3    H247480   0.651   2.545  12.547 -0.0170  0.3938  0.9596
 8689TIP3   OH247481   3.812   2.771  11.673 -0.2866 -0.9452  0.5960
 8689TIP3    H147482   3.823   2.676  11.667 -0.5296 -1.0087  1.1435
 8689TIP3    H247483   3.900   2.806  11.657 -0.3435 -1.2193 -0.4084
 8690TIP3   OH247484   1.513   1.049   1.225  0.1474  0.2077 -0.2989
 8690TIP3    H147485   1.492   1.135   1.260  0.7989  0.8511 -1.4510
 8690TIP3    H247486   1.470   1.046   1.140  0.7255 -0.3272 -0.5846
 8691TIP3   OH247487   5.157   4.535   3.274  0.5431 -0.0541 -0.4832
 8691TIP3    H147488   5.110   4.560   3.354 -0.8743 -1.2436 -0.8841
 8691TIP3    H247489   5.119   4.450   3.250  3.7980 -1.7620 -0.1658
 8692TIP3   OH247490   6.119   6.205  11.106 -0.3141 -0.8090 -0.0439
 8692TIP3    H147491   6.172   6.268  11.057 -1.0821  0.6473  0.9430
 8692TIP3    H247492   6.074   6.155  11.038 -0.0976  0.0550 -0.8538
 8693TIP3   OH247493   2.697   4.512  12.732  0.2282 -0.0290  0.4166
 8693TIP3    H147494   2.754   4.509  12.656  1.0482 -0.5914  1.0335
 8693TIP3    H247495   2.743   4.461  12.799 -1.3757 -1.2356  0.6800
 8694TIP3   OH247496   3.498   6.119   1.935 -0.4254  0.3293 -0.0409
 8694TIP3    H147497   3.542   6.036   1.916 -0.9758  0.3565 -1.5479
 8694TIP3    H247498   3.538   6.149   2.017  1.1575 -0.4646 -0.4806
 8695TIP3   OH247499   4.248   2.275   5.937  0.3851  0.1358  0.0513
 8695TIP3    H147500   4.192   2.217   5.885 -0.7355  0.9106  0.3377
 8695TIP3    H247501   4.212   2.362   5.921  1.3049  0.6157  0.5430
 8696TIP3   OH247502   6.091   5.878  13.088  0.3318 -0.0570  0.1859
 8696TIP3    H147503   6.114   5.785  13.080 -2.9243 -0.8106 -2.6523
 8696TIP3    H247504   6.137   5.920  13.015  0.8512  0.3784  0.7539
 8697TIP3   OH247505   5.420   2.410  11.517  0.3994 -0.0502  0.4484
 8697TIP3    H147506   5.471   2.338  11.481  0.4938 -0.0433  0.5658
 8697TIP3    H247507   5.382   2.376  11.598 -0.1348 -0.1887  0.1447
 8698TIP3   OH247508   4.484   0.213  17.052 -0.4396  0.0035 -0.1913
 8698TIP3    H147509   4.412   0.259  17.095  0.4454  1.9136 -0.6358
 8698TIP3    H247510   4.535   0.175  17.124 -0.2791  1.1416  0.3094
 8699TIP3   OH247511   0.399   4.822  11.866  0.4655  0.6161  0.1094
 8699TIP3    H147512   0.453   4.759  11.914 -0.1416 -0.4347 -0.5325
 8699TIP3    H247513   0.310   4.806  11.897  0.1294  0.2578 -0.9870
 8700TIP3   OH247514   0.242   0.798  13.823  0.3476 -0.5866 -0.8397
 8700TIP3    H147515   0.182   0.871  13.842  0.6812 -0.3998 -0.4968
 8700TIP3    H247516   0.328   0.830  13.850  0.0233 -2.4437  3.0086
 8701TIP3   OH247517   5.938   0.316   2.937 -0.1878  0.1962 -0.1069
 8701TIP3    H147518   5.901   0.397   2.903  0.0940 -0.3454 -1.8098
 8701TIP3    H247519   6.031   0.336   2.953 -0.3526  0.4913  0.4995
 8702TIP3   OH247520   2.387   1.561   1.638 -0.2483 -0.4771 -0.4378
 8702TIP3    H147521   2.308   1.512   1.619 -0.0535 -0.7126 -0.6367
 8702TIP3    H247522   2.405   1.543   1.731 -0.0803 -0.9205 -0.5550
 8703TIP3   OH247523   5.638   2.774   2.905 -0.2944 -0.5908 -0.0941
 8703TIP3    H147524   5.637   2.697   2.962 -0.9009 -2.4173 -2.4325
 8703TIP3    H247525   5.577   2.753   2.835 -0.9577  2.3290 -0.5109
 8704TIP3   OH247526   1.395   1.571  10.747  0.1780  0.6535  0.0168
 8704TIP3    H147527   1.446   1.559  10.828 -0.0086  1.5435  0.2755
 8704TIP3    H247528   1.438   1.644  10.702  0.2922  0.1499 -0.7080
 8705TIP3   OH247529   0.640   0.096   2.432  0.4364 -0.1872 -0.1914
 8705TIP3    H147530   0.576   0.065   2.495  0.9313 -1.4209 -0.2612
 8705TIP3    H247531   0.591   0.105   2.350 -0.2209  1.4877  0.3415
 8706TIP3   OH247532   4.304   1.290   5.508 -0.2185 -0.4658  0.2672
 8706TIP3    H147533   4.345   1.356   5.452  0.6258 -0.5240  0.8008
 8706TIP3    H247534   4.242   1.338   5.562 -1.6095 -0.5060 -1.2009
 8707TIP3   OH247535   5.322   0.775   6.267 -0.0629 -0.1310  0.1786
 8707TIP3    H147536   5.301   0.711   6.199 -1.8439  1.5787 -1.0191
 8707TIP3    H247537   5.244   0.830   6.272  0.1729  0.1141  3.3379
 8708TIP3   OH247538   1.605   0.807  10.663 -0.1057  0.6949  0.9242
 8708TIP3    H147539   1.685   0.858  10.649  0.9122 -1.2236 -0.8075
 8708TIP3    H247540   1.560   0.810  10.579  0.4339 -1.8892  0.4651
 8709TIP3   OH247541   4.552   6.578   2.458  0.4543  0.0659 -0.9051
 8709TIP3    H147542   4.612   6.611   2.391  0.1402 -2.0741 -2.3226
 8709TIP3    H247543   4.602   6.511   2.504  0.2114  0.5726  0.1212
 8710TIP3   OH247544   0.452   3.800   0.906  0.2298  0.6141 -0.3306
 8710TIP3    H147545   0.359   3.819   0.898  0.1500 -0.3519 -2.2913
 8710TIP3    H247546   0.459   3.746   0.985 -0.8425  0.7380 -0.1348
 8711TIP3   OH247547   6.612   3.002   3.062  0.0181  0.1499  0.1497
 8711TIP3    H147548   6.621   2.910   3.039  0.7036  0.1980  0.1917
 8711TIP3    H247549   6.636   3.049   2.983 -1.3994  0.2948 -0.2126
 8712TIP3   OH247550   2.117   0.012   1.949  0.2009 -0.8627  0.1995
 8712TIP3    H147551   2.089  -0.034   1.870 -1.1251 -1.9356  1.2432
 8712TIP3    H247552   2.107   0.105   1.928 -1.4601 -1.1559 -0.4780
 8713TIP3   OH247553   6.147   1.034   4.570 -0.6659  0.2038 -0.3371
 8713TIP3    H147554   6.054   1.016   4.585 -0.1588 -1.8721  0.6030
 8713TIP3    H247555   6.191   0.997   4.646  0.9814  0.6852 -1.0256
 8714TIP3   OH247556   4.297   0.630   5.508  0.4603 -0.0083  0.0117
 8714TIP3    H147557   4.348   0.703   5.473  0.3338 -0.2948 -0.7879
 8714TIP3    H247558   4.362   0.562   5.525  0.3670 -0.3313 -0.8965
 8715TIP3   OH247559   3.334   2.351  14.486  0.3293  0.1056  0.1606
 8715TIP3    H147560   3.312   2.444  14.491  0.4248  0.2190 -1.2891
 8715TIP3    H247561   3.265   2.308  14.536 -0.9849  0.7818 -1.0157
 8716TIP3   OH247562   4.045   2.978   1.395 -0.3080 -0.4672  0.0205
 8716TIP3    H147563   3.953   2.953   1.386 -0.3586 -0.3578  0.2313
 8716TIP3    H247564   4.043   3.061   1.442 -0.2453  0.8222 -2.1037
 8717TIP3   OH247565   5.172   3.954  12.209  0.3651  0.4687 -0.1870
 8717TIP3    H147566   5.212   3.875  12.172  0.9019  1.0128 -0.7839
 8717TIP3    H247567   5.175   3.939  12.304 -1.9447 -1.3821 -0.3158
 8718TIP3   OH247568   2.881   0.172  14.412 -0.7856 -0.1717 -0.2278
 8718TIP3    H147569   2.964   0.169  14.460 -1.4009 -1.6305  0.8282
 8718TIP3    H247570   2.849   0.260  14.427 -0.2548 -0.1372  0.8649
 8719TIP3   OH247571   2.838   5.866   2.899  0.4851 -0.4160 -0.6535
 8719TIP3    H147572   2.787   5.883   2.978  1.0136 -0.9057 -0.1978
 8719TIP3    H247573   2.861   5.953   2.865 -1.6667 -0.1373 -1.5660
 8720TIP3   OH247574   5.167   1.568  10.343  0.0241 -0.0412  0.6300
 8720TIP3    H147575   5.257   1.545  10.319 -0.2038  0.5204 -0.8525
 8720TIP3    H247576   5.176   1.634  10.412  0.7184 -0.8880  1.3713
 8721TIP3   OH247577   1.612   3.142   3.949 -0.5408  0.2221 -0.0684
 8721TIP3    H147578   1.670   3.090   3.894 -0.3083  0.7297 -0.3112
 8721TIP3    H247579   1.671   3.193   4.005 -0.7751 -0.3752  0.7402
 8722TIP3   OH247580   2.158   4.771  11.218 -0.1011  0.6005  0.0707
 8722TIP3    H147581   2.079   4.757  11.271  0.5548  0.2670  0.9959
 8722TIP3    H247582   2.225   4.797  11.282  0.5873  0.6928 -0.6699
 8723TIP3   OH247583   0.047   5.938   1.418  0.4312  0.1832 -0.4161
 8723TIP3    H147584  -0.024   6.000   1.431 -0.3462 -0.6065 -0.7864
 8723TIP3    H247585   0.094   5.971   1.342 -0.7192 -0.3257 -1.3787
 8724TIP3   OH247586   6.771   1.029   5.134  0.1041  0.2448 -0.2666
 8724TIP3    H147587   6.758   1.026   5.039 -0.8996  0.4975 -0.1440
 8724TIP3    H247588   6.779   1.123   5.154 -1.2254  0.3098  0.0774
 8725TIP3   OH247589   3.346   3.421   2.498  0.5297 -0.1309  0.5042
 8725TIP3    H147590   3.307   3.489   2.444  0.6487 -0.4552  0.0072
 8725TIP3    H247591   3.281   3.351   2.500  1.0928 -0.6897 -0.3637
 8726TIP3   OH247592   1.268   4.101   5.665 -0.2069 -0.1646  0.2025
 8726TIP3    H147593   1.250   4.034   5.600 -1.0711 -0.0470  0.3142
 8726TIP3    H247594   1.182   4.135   5.691  0.2222  1.2401 -0.1079
 8727TIP3   OH247595   1.488   1.914  13.672  0.2677  0.0303 -0.1339
 8727TIP3    H147596   1.477   1.826  13.708 -1.7607  1.2734  2.5760
 8727TIP3    H247597   1.567   1.947  13.714 -0.0338  0.1633  0.3353
 8728TIP3   OH247598   6.739   6.583  15.200  0.2977 -0.8539  0.1062
 8728TIP3    H147599   6.800   6.655  15.219  1.9500 -2.4652  1.2489
 8728TIP3    H247600   6.684   6.577  15.278 -2.7139  1.7185 -1.5734
 8729TIP3   OH247601   0.014   5.397  14.350  0.0566 -0.1294 -0.1869
 8729TIP3    H147602   0.037   5.304  14.342  2.5102  0.2739  1.2732
 8729TIP3    H247603  -0.042   5.401  14.428  0.3256 -0.3100  0.0145
 8730TIP3   OH247604   6.206   0.420  12.156  0.3791  0.3685 -0.0310
 8730TIP3    H147605   6.162   0.505  12.159 -0.0437  0.2257 -1.6643
 8730TIP3    H247606   6.297   0.442  12.134  0.1996  0.3789 -0.7690
 8731TIP3   OH247607   5.735   0.127   2.702 -0.6200 -0.5725  0.1097
 8731TIP3    H147608   5.744   0.099   2.611  0.6919  0.8815 -0.2614
 8731TIP3    H247609   5.733   0.223   2.697 -0.7123 -0.4738  1.6072
 8732TIP3   OH247610   3.667   1.338  13.685 -0.1124 -0.5779 -0.9447
 8732TIP3    H147611   3.731   1.371  13.749 -1.7572  0.6315  0.1592
 8732TIP3    H247612   3.700   1.368  13.601  0.7661  0.0441 -0.3959
 8733TIP3   OH247613   1.547   5.782  14.092 -0.0787 -0.3614 -0.1992
 8733TIP3    H147614   1.461   5.796  14.132 -0.3415 -0.8086 -0.5915
 8733TIP3    H247615   1.580   5.870  14.075 -1.0784 -0.1838 -1.3338
 8734TIP3   OH247616   6.526   4.760  10.470 -0.0667 -0.3655  0.1406
 8734TIP3    H147617   6.538   4.843  10.515 -1.6766 -0.5809  1.0340
 8734TIP3    H247618   6.589   4.701  10.512  1.4320  0.4715 -0.8256
 8735TIP3   OH247619   0.704   0.491  15.580 -0.1120 -0.7383  0.1442
 8735TIP3    H147620   0.632   0.527  15.528  0.9801  0.7462 -0.4155
 8735TIP3    H247621   0.728   0.410  15.535  0.6977  0.4250 -1.6561
 8736TIP3   OH247622   0.503   4.715  17.155  0.5327 -0.4880 -0.1989
 8736TIP3    H147623   0.525   4.634  17.108  0.2527 -1.2323  0.9113
 8736TIP3    H247624   0.526   4.785  17.094 -1.5375 -1.4255 -2.2089
 8737TIP3   OH247625   2.479   0.972   0.293  0.7093  0.0267 -0.1832
 8737TIP3    H147626   2.444   0.959   0.205  0.3805  0.2125 -0.0787
 8737TIP3    H247627   2.571   0.996   0.279  0.6099  0.2310 -0.4774
 8738TIP3   OH247628   3.219   6.611  11.217  0.0879  0.3950  0.1075
 8738TIP3    H147629   3.126   6.615  11.242  0.0161  0.5470 -0.1870
 8738TIP3    H247630   3.223   6.651  11.131  0.4458  0.4776  0.1609
 8739TIP3   OH247631   1.895   3.937  13.692 -0.4179  0.0552 -0.0932
 8739TIP3    H147632   1.917   4.029  13.682 -0.3820  0.1781  0.9916
 8739TIP3    H247633   1.815   3.926  13.641  0.2952  0.3636 -1.3230
 8740TIP3   OH247634   0.445   2.804  13.105  0.2235 -0.2513 -0.1912
 8740TIP3    H147635   0.355   2.776  13.090 -0.3163  0.5318  1.3605
 8740TIP3    H247636   0.462   2.867  13.035 -0.7568  0.2611  0.0112
 8741TIP3   OH247637   5.023   4.633  15.555  0.1493  0.5137 -0.3257
 8741TIP3    H147638   5.099   4.654  15.608  0.1595  0.2900 -0.2500
 8741TIP3    H247639   4.990   4.551  15.591 -1.2933  1.5808  0.9114
 8742TIP3   OH247640   0.134   6.499  11.290 -0.0180 -0.4344 -0.1018
 8742TIP3    H147641   0.147   6.592  11.307  0.5427 -0.3213 -1.0604
 8742TIP3    H247642   0.057   6.495  11.233  0.5482 -0.4646 -0.8818
 8743TIP3   OH247643   2.638   2.495  16.259  0.1933  0.1943  0.1335
 8743TIP3    H147644   2.564   2.435  16.266  0.8773 -0.8009 -0.8294
 8743TIP3    H247645   2.714   2.439  16.248  0.8844  1.2288 -0.6057
 8744TIP3   OH247646   4.234   0.108   4.751  0.5602  0.3113  0.0846
 8744TIP3    H147647   4.317   0.060   4.744 -1.1311 -3.0048  0.6822
 8744TIP3    H247648   4.222   0.148   4.665  2.1421 -0.2431 -0.4332
 8745TIP3   OH247649   0.692   4.145   6.070 -0.2614  0.6204  0.1222
 8745TIP3    H147650   0.734   4.209   6.012 -0.5252  0.3378 -0.3922
 8745TIP3    H247651   0.718   4.172   6.158  0.1491  1.0590 -0.1244
 8746TIP3   OH247652   5.957   4.873  12.205  0.2929  0.0696  0.3634
 8746TIP3    H147653   5.959   4.837  12.294  2.6345 -0.5045  0.1462
 8746TIP3    H247654   5.877   4.837  12.166  0.4525 -1.6083  1.4893
 8747TIP3   OH247655   3.926   0.541   3.409 -0.3808  0.1584  0.4276
 8747TIP3    H147656   4.016   0.573   3.410 -1.1636  2.8171 -1.7759
 8747TIP3    H247657   3.875   0.610   3.450 -1.5063 -1.1035  1.2296
 8748TIP3   OH247658   5.680   5.106  12.229  0.0001 -0.3687  0.0110
 8748TIP3    H147659   5.716   5.107  12.318  0.2280  0.7150 -0.0823
 8748TIP3    H247660   5.754   5.128  12.173  0.0880 -2.0137 -0.5552
 8749TIP3   OH247661   3.003   2.373  17.136 -0.1910  0.0909  0.2742
 8749TIP3    H147662   2.985   2.442  17.073 -1.8717  0.1141  0.7191
 8749TIP3    H247663   2.917   2.333  17.153  0.3931 -0.6561  1.6790
 8750TIP3   OH247664   3.047   2.654  14.183  0.2454  0.5552  0.2928
 8750TIP3    H147665   2.996   2.724  14.143  0.3392  0.3119 -0.2581
 8750TIP3    H247666   3.119   2.699  14.228 -1.3035  1.0329  2.4431
 8751TIP3   OH247667   3.043   6.563  17.064 -0.2076  0.0574 -0.7595
 8751TIP3    H147668   2.978   6.495  17.044 -0.0059 -0.1052 -0.8642
 8751TIP3    H247669   3.103   6.561  16.989  0.2277 -0.1613 -0.4066
 8752TIP3   OH247670   1.008   5.455  12.652  0.4657  0.1639 -0.0015
 8752TIP3    H147671   0.950   5.411  12.590 -0.5881  1.4580  0.0073
 8752TIP3    H247672   0.950   5.482  12.723  0.9605  1.8569 -0.1939
 8753TIP3   OH247673   5.444   0.854  14.429  0.6448  0.3124 -0.1768
 8753TIP3    H147674   5.372   0.791  14.420  0.5974  0.5367 -1.6315
 8753TIP3    H247675   5.400   0.938  14.441  0.7078  0.0676  2.2207
 8754TIP3   OH247676   0.531   1.740  14.930 -0.6324 -0.3867  0.3235
 8754TIP3    H147677   0.534   1.836  14.934  2.6314 -0.2865 -1.4966
 8754TIP3    H247678   0.586   1.712  15.003 -1.9136 -0.9610  1.1060
 8755TIP3   OH247679   3.937   5.364   0.165 -0.1380 -0.3118  0.0181
 8755TIP3    H147680   3.985   5.397   0.089  0.5195 -1.5984 -0.1519
 8755TIP3    H247681   3.915   5.442   0.216  1.5293  0.3700 -0.2523
 8756TIP3   OH247682   6.766   0.774  14.626 -0.2418  0.3330  0.4873
 8756TIP3    H147683   6.826   0.736  14.561  0.2694 -0.2196  1.2592
 8756TIP3    H247684   6.744   0.860  14.591 -0.8469 -0.3670 -0.9534
 8757TIP3   OH247685   0.233   4.156  15.942 -0.2326  0.2384  0.2670
 8757TIP3    H147686   0.186   4.113  15.870  1.6188  0.3563 -1.0977
 8757TIP3    H247687   0.167   4.207  15.987 -1.4434  0.2982 -1.4917
 8758TIP3   OH247688   2.582   5.772  15.172 -0.1482  0.0982 -0.2886
 8758TIP3    H147689   2.561   5.865  15.187 -2.2410 -0.5590  1.3207
 8758TIP3    H247690   2.632   5.746  15.249 -1.7136 -0.6633  0.5249
 8759TIP3   OH247691   1.284   3.471   4.114  0.3437  0.1619 -0.0617
 8759TIP3    H147692   1.308   3.384   4.083  2.2653  0.6545 -0.0999
 8759TIP3    H247693   1.259   3.458   4.206  1.1235 -0.3590  0.0851
 8760TIP3   OH247694   1.162   2.664  12.929 -0.3553 -0.2660  0.1079
 8760TIP3    H147695   1.137   2.666  13.022 -0.9086 -0.0132 -0.0466
 8760TIP3    H247696   1.079   2.658  12.882 -0.1592  0.9742 -0.4217
 8761TIP3   OH247697   3.664   3.681  14.675 -0.0327 -0.5604 -0.5076
 8761TIP3    H147698   3.756   3.654  14.672 -0.2045 -1.3387  0.8334
 8761TIP3    H247699   3.644   3.705  14.584  1.6486  0.2065 -0.7174
 8762TIP3   OH247700   5.356   2.436   3.103 -0.0983  0.4538 -0.5366
 8762TIP3    H147701   5.376   2.474   3.189 -1.3846  0.4965 -0.2311
 8762TIP3    H247702   5.276   2.481   3.075 -0.1828 -0.1794 -1.3692
 8763TIP3   OH247703   0.344   4.934   5.624 -0.4253 -0.4812  0.3988
 8763TIP3    H147704   0.397   5.013   5.628  0.9528 -1.4164  1.4617
 8763TIP3    H247705   0.267   4.953   5.678  0.9418 -0.5664  2.4992
 8764TIP3   OH247706   5.755   3.860  10.861  0.0119 -0.3584 -0.2485
 8764TIP3    H147707   5.695   3.786  10.858  0.3278 -0.6057 -0.5252
 8764TIP3    H247708   5.701   3.936  10.838 -0.1820 -0.5863 -0.5549
 8765TIP3   OH247709   5.475   3.088   2.977  0.1246  0.0599 -0.3440
 8765TIP3    H147710   5.384   3.060   2.961  1.2046 -2.7780 -2.5117
 8765TIP3    H247711   5.476   3.115   3.068 -2.2683 -2.9522  0.7529
 8766TIP3   OH247712   6.221   4.414  12.735  0.7066  0.0948 -0.0141
 8766TIP3    H147713   6.184   4.375  12.814  2.3765 -1.1189  0.2096
 8766TIP3    H247714   6.151   4.471  12.702 -0.0439  0.6020  2.2815
 8767TIP3   OH247715   6.165   3.235   1.270 -0.3440  0.3567 -0.8233
 8767TIP3    H147716   6.244   3.288   1.257 -1.3582  1.7062 -1.8051
 8767TIP3    H247717   6.198   3.147   1.289  1.3870  0.9271 -1.0027
 8768TIP3   OH247718   5.415   6.706  16.650  0.0352  1.1577  0.4483
 8768TIP3    H147719   5.510   6.695  16.650  0.0303  0.2488 -2.4871
 8768TIP3    H247720   5.401   6.790  16.606 -0.5184  0.5530 -0.5736
 8769TIP3   OH247721   0.915   0.826   0.457 -0.0895 -0.2574 -0.3291
 8769TIP3    H147722   0.972   0.773   0.402  0.5323 -1.1012  1.0678
 8769TIP3    H247723   0.903   0.907   0.408 -0.3874 -1.3460 -2.1369
 8770TIP3   OH247724   3.768   6.412   2.205 -0.0222 -0.0445  0.5453
 8770TIP3    H147725   3.835   6.466   2.163 -1.0120 -0.1193 -1.2193
 8770TIP3    H247726   3.810   6.327   2.217 -0.4423 -0.8400 -2.7598
 8771TIP3   OH247727   0.503   4.938  16.743 -0.7703  0.1884 -0.2943
 8771TIP3    H147728   0.436   4.940  16.674 -0.2114  0.7424 -0.8299
 8771TIP3    H247729   0.579   4.981  16.704 -0.4258  0.4632  0.6560
 8772TIP3   OH247730   6.031   2.247  11.777  0.3786  0.2488  0.0967
 8772TIP3    H147731   6.001   2.185  11.844 -1.9605  1.1532 -0.0500
 8772TIP3    H247732   5.973   2.232  11.702  0.3084  2.0210 -0.2473
 8773TIP3   OH247733   6.197   3.279  14.252 -0.1157  0.0136  0.7705
 8773TIP3    H147734   6.199   3.270  14.347 -0.1120  0.4757  0.8184
 8773TIP3    H247735   6.117   3.329  14.235  1.4298  2.6820  0.7913
 8774TIP3   OH247736   6.567   3.202  15.381  0.4179 -0.1727 -0.0990
 8774TIP3    H147737   6.642   3.260  15.369 -0.4311  0.7311 -1.1869
 8774TIP3    H247738   6.594   3.142  15.451  1.8233  0.6651  0.1057
 8775TIP3   OH247739   2.430   6.736  12.406 -0.1204  0.4253 -0.5014
 8775TIP3    H147740   2.435   6.828  12.383  2.4549  0.3910 -0.3694
 8775TIP3    H247741   2.450   6.689  12.325  1.2077  0.1006 -0.0229
 8776TIP3   OH247742   4.873   5.912  14.774  0.3206 -0.0696 -0.4969
 8776TIP3    H147743   4.839   5.919  14.685 -0.8307 -1.5777 -0.2073
 8776TIP3    H247744   4.920   5.994  14.788  0.6206  0.1422 -2.5237
 8777TIP3   OH247745   1.191   0.451  13.895  0.1187  0.0339 -0.2484
 8777TIP3    H147746   1.117   0.391  13.882  0.8248 -0.8755 -0.1102
 8777TIP3    H247747   1.150   0.537  13.900 -1.0085 -0.5238  0.5523
 8778TIP3   OH247748   6.480   1.650   2.054  0.2361  0.1202  0.2895
 8778TIP3    H147749   6.430   1.673   2.132  0.8293  0.8941  0.4659
 8778TIP3    H247750   6.551   1.715   2.052  0.0576  0.3031 -1.0516
 8779TIP3   OH247751   5.667   6.377   1.470  0.1102  0.1281  0.6150
 8779TIP3    H147752   5.591   6.430   1.493 -0.9615 -0.9148 -0.3694
 8779TIP3    H247753   5.704   6.419   1.393 -0.2833 -0.0953  0.2960
 8780TIP3   OH247754   0.343   2.424  11.974 -0.1834 -0.0423 -0.4579
 8780TIP3    H147755   0.358   2.387  11.887 -1.2084  0.7784 -0.9990
 8780TIP3    H247756   0.381   2.359  12.034 -0.8496 -1.3878 -1.4298
 8781TIP3   OH247757   0.038   0.600  12.626 -0.3762  0.2359  0.0901
 8781TIP3    H147758   0.119   0.559  12.656 -0.0015  0.8806 -0.0161
 8781TIP3    H247759   0.047   0.692  12.651 -1.0479  0.3243  0.0197
 8782TIP3   OH247760   2.257   5.277   1.396  0.0725  0.0165 -0.0099
 8782TIP3    H147761   2.334   5.236   1.358  0.3819  0.5660  0.0124
 8782TIP3    H247762   2.183   5.236   1.351  0.4068  0.1435 -0.6939
 8783TIP3   OH247763   2.654   5.102   3.455  0.4198 -0.0009 -0.6988
 8783TIP3    H147764   2.717   5.091   3.527  1.2350  2.5644 -0.9175
 8783TIP3    H247765   2.663   5.194   3.429 -3.6796  0.6399 -0.5142
 8784TIP3   OH247766   5.087   3.002   2.004 -0.1507 -0.6721  0.1494
 8784TIP3    H147767   5.097   3.061   2.078  0.7626 -0.7240  0.0730
 8784TIP3    H247768   5.012   3.037   1.956  1.7532  1.8597 -1.1943
 8785TIP3   OH247769   5.530   5.209   1.974 -0.7201  0.0149  0.1700
 8785TIP3    H147770   5.562   5.119   1.964 -1.0769 -0.2199  1.0277
 8785TIP3    H247771   5.456   5.201   2.034 -0.9544  0.8460  0.0003
 8786TIP3   OH247772   1.019   0.153   0.814 -0.4545 -0.1611  0.0043
 8786TIP3    H147773   1.073   0.080   0.846 -0.4841 -0.8821 -1.5054
 8786TIP3    H247774   0.990   0.125   0.727 -2.0078  0.8743  0.1465
 8787TIP3   OH247775   4.850   1.943  10.346 -0.2276  0.6113 -0.5744
 8787TIP3    H147776   4.891   1.867  10.304  0.6362  0.1270  1.0568
 8787TIP3    H247777   4.798   1.983  10.277 -0.0218 -0.9739 -1.7120
 8788TIP3   OH247778   5.874   6.370  16.330  0.0600  0.0428  0.0188
 8788TIP3    H147779   5.960   6.344  16.296 -0.6697 -1.1603 -0.9576
 8788TIP3    H247780   5.894   6.412  16.414  1.7746  1.7129 -1.1439
 8789TIP3   OH247781   0.749   3.281   5.514 -0.0379  0.5657 -0.3188
 8789TIP3    H147782   0.669   3.326   5.542 -2.3412 -0.4826 -4.4388
 8789TIP3    H247783   0.742   3.194   5.553 -0.1134  0.9168  0.4865
 8790TIP3   OH247784   2.976   3.000   1.371  0.1209  0.7302  0.7027
 8790TIP3    H147785   3.062   2.995   1.328 -0.6539  2.8094 -1.2372
 8790TIP3    H247786   2.977   3.083   1.418 -0.2922  0.0098  2.0601
 8791TIP3   OH247787   6.554   3.545  14.577  0.1446 -0.1970 -0.0717
 8791TIP3    H147788   6.511   3.461  14.565 -1.5695  0.6034  0.1711
 8791TIP3    H247789   6.583   3.570  14.490 -0.4287 -0.4879 -0.3530
 8792TIP3   OH247790   1.330   0.888   5.352 -0.0234  0.2120  0.0724
 8792TIP3    H147791   1.365   0.947   5.286 -0.0415 -1.2853 -1.3558
 8792TIP3    H247792   1.319   0.805   5.306 -3.7917  0.0935  0.8664
 8793TIP3   OH247793   0.862   5.249  13.131  0.4306 -0.3712 -0.3761
 8793TIP3    H147794   0.879   5.329  13.180 -1.2765 -0.2788  0.1140
 8793TIP3    H247795   0.825   5.278  13.048  0.4971 -0.6352 -0.5008
 8794TIP3   OH247796   0.921   5.735   5.857  0.2565 -0.3037 -0.1827
 8794TIP3    H147797   0.882   5.695   5.780  2.2542 -2.2478 -0.3026
 8794TIP3    H247798   0.857   5.722   5.927 -0.0340 -1.9451 -0.7140
 8795TIP3   OH247799   4.288   0.980  14.665  0.1691 -0.1302 -0.4330
 8795TIP3    H147800   4.234   0.971  14.744 -2.1943 -0.8749 -2.0304
 8795TIP3    H247801   4.335   1.063  14.678 -0.7725  0.1817  1.3698
 8796TIP3   OH247802   4.656   5.280   5.300  0.2873  0.2511 -0.2883
 8796TIP3    H147803   4.610   5.338   5.238  2.5977  1.3678 -1.0745
 8796TIP3    H247804   4.605   5.287   5.381 -1.7016  0.3007 -1.4836
 8797TIP3   OH247805   2.622   2.892   2.924  0.4849 -0.5017  0.1673
 8797TIP3    H147806   2.647   2.799   2.923 -0.4171 -0.7600  0.5695
 8797TIP3    H247807   2.564   2.900   2.999 -2.4183 -0.4340 -1.9348
 8798TIP3   OH247808   0.838   6.125  11.382  0.7550  0.4840 -0.7260
 8798TIP3    H147809   0.812   6.035  11.399  2.0429 -0.1781 -2.0021
 8798TIP3    H247810   0.756   6.170  11.360  0.3116 -0.9057 -2.1240
 8799TIP3   OH247811   0.312   3.581  16.979 -0.0159  0.1496  0.1207
 8799TIP3    H147812   0.239   3.551  16.926 -0.9236 -0.9259  1.8905
 8799TIP3    H247813   0.273   3.604  17.063  1.3735  1.7553  0.3689
 8800TIP3   OH247814   4.836   4.853  11.861  0.3624  0.1688 -0.0706
 8800TIP3    H147815   4.862   4.828  11.773  1.6597  1.2918 -0.0455
 8800TIP3    H247816   4.838   4.949  11.860  0.1532  0.2020  1.1036
 8801TIP3   OH247817   4.121   3.877   5.790 -0.8805 -0.2099  0.2594
 8801TIP3    H147818   4.084   3.965   5.792  0.3597  0.4359 -1.9952
 8801TIP3    H247819   4.127   3.852   5.882 -2.7348  1.3888  0.8815
 8802TIP3   OH247820   6.718   3.439   2.809 -0.4141 -0.3291  0.9534
 8802TIP3    H147821   6.792   3.465   2.755  1.0821 -0.1247  3.0130
 8802TIP3    H247822   6.753   3.432   2.898 -2.6471 -1.1842  1.8525
 8803TIP3   OH247823   0.858   6.177   5.724 -0.3613 -0.1339  0.0978
 8803TIP3    H147824   0.862   6.123   5.645  0.0179 -0.8029  0.5634
 8803TIP3    H247825   0.820   6.119   5.791  1.0689 -0.2137  0.8911
 8804TIP3   OH247826   4.558   0.260   3.604  0.5547 -0.5017 -0.1046
 8804TIP3    H147827   4.628   0.322   3.586  1.4323 -1.4993 -0.2288
 8804TIP3    H247828   4.500   0.267   3.528 -0.0643  1.0782  0.4832
 8805TIP3   OH247829   6.774   5.050   4.832 -0.1808  0.0052  0.2212
 8805TIP3    H147830   6.721   5.030   4.754  1.5942 -3.6071 -0.3068
 8805TIP3    H247831   6.717   5.029   4.906 -0.2719 -1.7301 -0.2904
 8806TIP3   OH247832   6.234   6.424  11.278 -0.1940 -0.2631  0.0031
 8806TIP3    H147833   6.140   6.406  11.271 -0.4584  1.1272 -0.3178
 8806TIP3    H247834   6.274   6.371  11.210 -1.0052  0.8156 -1.3561
 8807TIP3   OH247835   5.799   2.436   4.392  0.4934 -0.3619 -0.2021
 8807TIP3    H147836   5.805   2.343   4.413  0.9014 -0.5266 -1.0125
 8807TIP3    H247837   5.861   2.448   4.320 -0.7899  0.1891 -1.2474
 8808TIP3   OH247838   4.776   5.839   5.450  0.1448 -0.1875 -0.4557
 8808TIP3    H147839   4.855   5.806   5.407  0.9329  0.6823  0.2774
 8808TIP3    H247840   4.709   5.773   5.430  1.2256 -1.3296 -0.4928
 8809TIP3   OH247841   1.217   5.365   0.388 -0.1448  1.0169  0.2405
 8809TIP3    H147842   1.142   5.309   0.366  0.5664  0.7008 -1.5981
 8809TIP3    H247843   1.191   5.410   0.469 -2.3523  1.0127 -0.3978
 8810TIP3   OH247844   3.411   5.547   2.564 -0.0524 -0.8123 -0.6787
 8810TIP3    H147845   3.468   5.621   2.582 -1.1276 -0.2074  0.4050
 8810TIP3    H247846   3.322   5.581   2.579 -0.6975 -1.7736 -2.1050
 8811TIP3   OH247847   0.274   0.745   4.076  0.3202 -0.2122 -0.0939
 8811TIP3    H147848   0.230   0.830   4.080  0.1313 -0.3513  2.6565
 8811TIP3    H247849   0.207   0.683   4.049 -0.2525  0.1401  0.4922
 8812TIP3   OH247850   3.714   3.866   3.360 -0.0044  0.5376  0.1714
 8812TIP3    H147851   3.651   3.914   3.306 -0.0643  1.7008  1.2172
 8812TIP3    H247852   3.737   3.927   3.430 -0.2933 -1.0390  1.7363
 8813TIP3   OH247853   5.955   3.412   3.246 -0.6499  0.0298 -0.4733
 8813TIP3    H147854   6.039   3.368   3.233 -0.6678  0.3628 -1.8313
 8813TIP3    H247855   5.896   3.342   3.273  0.1899 -0.0981  1.2053
 8814TIP3   OH247856   4.299   1.870   4.957  0.0294  0.2128 -0.2765
 8814TIP3    H147857   4.310   1.959   4.922 -0.8490  0.1413 -0.7778
 8814TIP3    H247858   4.350   1.869   5.038  0.8703  0.8595 -0.7816
 8815TIP3   OH247859   1.693   1.068  13.204  0.2545  0.0522  0.2350
 8815TIP3    H147860   1.680   1.015  13.125  0.8196  0.5293 -0.1898
 8815TIP3    H247861   1.728   1.006  13.268 -0.0099 -0.2956  0.0441
 8816TIP3   OH247862   0.349   6.593   4.671  0.2802  0.0230  0.0028
 8816TIP3    H147863   0.404   6.634   4.605  2.9342 -2.6662  0.3423
 8816TIP3    H247864   0.303   6.523   4.624 -0.1672  0.0202  0.4318
 8817TIP3   OH247865   6.362   3.918   5.817 -0.1350  0.0354  0.4601
 8817TIP3    H147866   6.341   3.886   5.905  2.7781 -0.4261  1.0881
 8817TIP3    H247867   6.365   3.839   5.763  1.2868 -0.1043  0.7102
 8818TIP3   OH247868   4.429   5.108  14.932 -0.0879  0.9879 -0.3865
 8818TIP3    H147869   4.409   5.187  14.981  0.1589  1.7780 -1.5219
 8818TIP3    H247870   4.514   5.126  14.892  0.1223  0.0194 -0.4017
 8819TIP3   OH247871   4.690   5.489  10.680  0.3049 -0.5699  0.4947
 8819TIP3    H147872   4.601   5.516  10.657  0.1783 -1.2873  0.1140
 8819TIP3    H247873   4.726   5.563  10.728 -0.4813 -0.2527  0.6046
 8820TIP3   OH247874   1.051   4.057   0.333 -0.1871 -0.2354 -0.0482
 8820TIP3    H147875   0.958   4.048   0.352 -0.2297  0.0296 -0.1266
 8820TIP3    H247876   1.058   4.141   0.288 -0.4118 -1.7448 -3.1834
 8821TIP3   OH247877   2.284   5.045  11.656  0.5180 -0.1552  0.1272
 8821TIP3    H147878   2.230   5.026  11.733  1.9392  1.0206  1.4788
 8821TIP3    H247879   2.319   4.960  11.630  0.3568 -0.5206  1.0571
 8822TIP3   OH247880   0.141   2.193  11.932 -0.2181 -0.0030 -0.1760
 8822TIP3    H147881   0.072   2.156  11.877  0.3886  2.5051 -2.9037
 8822TIP3    H247882   0.095   2.224  12.010 -2.1922  1.1483 -1.6853
 8823TIP3   OH247883   4.894   2.842  15.916  0.1932 -0.2944  0.1236
 8823TIP3    H147884   4.807   2.875  15.895  0.6626  0.9922  0.1078
 8823TIP3    H247885   4.911   2.775  15.850 -1.4537 -1.7982  1.1552
 8824TIP3   OH247886   1.842   6.527   0.860 -0.1783 -0.0588 -0.4508
 8824TIP3    H147887   1.892   6.563   0.787 -0.8647 -0.2077 -0.9990
 8824TIP3    H247888   1.751   6.535   0.833 -0.4713  0.3733  0.6137
 8825TIP3   OH247889   5.182   2.877   6.275  0.4784  0.0651  0.3584
 8825TIP3    H147890   5.246   2.944   6.300  1.3849 -0.8316  0.4704
 8825TIP3    H247891   5.175   2.820   6.351 -0.7681  0.3733  0.4929
 8826TIP3   OH247892   0.149   6.063  13.693  0.6479 -0.2722 -0.3772
 8826TIP3    H147893   0.195   6.048  13.775  3.5696  1.6748 -1.4750
 8826TIP3    H247894   0.136   6.158  13.689 -1.0122 -0.5019 -1.4056
 8827TIP3   OH247895   1.327   0.715   4.770 -0.0896  0.0384 -0.2664
 8827TIP3    H147896   1.406   0.716   4.825 -1.2048 -0.3488  1.3962
 8827TIP3    H247897   1.267   0.776   4.812 -1.1780 -0.6567 -0.7614
 8828TIP3   OH247898   4.332   6.359   5.526  0.1431 -0.6625 -0.5398
 8828TIP3    H147899   4.358   6.374   5.435  2.0821 -1.4297 -0.1663
 8828TIP3    H247900   4.322   6.264   5.532 -2.5855 -0.4640 -0.5404
 8829TIP3   OH247901   2.048   1.019  11.640 -0.3114 -0.1043  0.3419
 8829TIP3    H147902   2.100   0.975  11.707 -1.1731  1.7919  2.3827
 8829TIP3    H247903   1.957   1.006  11.666 -0.6358  1.4872  0.1139
 8830TIP3   OH247904   1.420   2.415   6.659 -0.0076 -0.3273  0.3146
 8830TIP3    H147905   1.504   2.373   6.640 -0.2756 -0.4040 -0.7552
 8830TIP3    H247906   1.377   2.356   6.721  0.3517 -0.7581  0.1579
 8831TIP3   OH247907   3.226   5.117  10.540 -0.0183 -0.2212  0.6164
 8831TIP3    H147908   3.288   5.180  10.503  0.0725 -1.0322 -0.6673
 8831TIP3    H247909   3.141   5.161  10.535  0.3389  0.6362  1.7612
 8832TIP3   OH247910   3.672   0.941  13.026 -0.2422 -0.0118 -0.3001
 8832TIP3    H147911   3.649   0.907  13.112  0.8634 -0.1665 -0.0455
 8832TIP3    H247912   3.763   0.914  13.013 -0.6567 -0.7800 -1.9127
 8833TIP3   OH247913   2.577   5.955  11.756 -0.0820 -0.1010  0.6060
 8833TIP3    H147914   2.592   6.044  11.724 -0.1545 -0.1879  0.3219
 8833TIP3    H247915   2.608   5.956  11.846  1.1005 -0.1313  0.2092
 8834TIP3   OH247916   6.551   4.171   6.041 -0.1990  0.2049  0.0493
 8834TIP3    H147917   6.615   4.184   6.110  0.1198  0.1795 -0.2385
 8834TIP3    H247918   6.477   4.226   6.066  0.8370  2.0736 -0.7959
 8835TIP3   OH247919   1.533   1.446  11.604  0.0979  0.0606 -0.7426
 8835TIP3    H147920   1.502   1.362  11.637 -1.6598  1.1678  0.6567
 8835TIP3    H247921   1.560   1.494  11.683 -2.9581  2.3158 -0.9071
 8836TIP3   OH247922   6.278   6.286   0.782  0.0398 -0.8855  0.2552
 8836TIP3    H147923   6.312   6.222   0.844  0.3808 -1.7657 -0.8088
 8836TIP3    H247924   6.210   6.240   0.735  0.8916 -0.7784 -1.1390
 8837TIP3   OH247925   6.419   2.082   3.789 -0.2091 -0.1605  0.0520
 8837TIP3    H147926   6.511   2.058   3.801 -0.2802 -0.2493  0.4221
 8837TIP3    H247927   6.403   2.149   3.855 -1.1051 -1.9739  1.7619
 8838TIP3   OH247928   5.569   2.228  11.353 -0.1365  0.1143  0.0656
 8838TIP3    H147929   5.605   2.187  11.432  1.4446  0.6356 -0.3542
 8838TIP3    H247930   5.646   2.254  11.302 -1.1208  1.1430 -0.9485
 8839TIP3   OH247931   1.196   6.099  12.480 -0.5178 -0.2964  0.4994
 8839TIP3    H147932   1.139   6.087  12.555 -0.1651  0.5288  0.9043
 8839TIP3    H247933   1.201   6.193  12.467 -0.7576 -0.4288 -0.7132
 8840TIP3   OH247934   6.105   4.925  14.353  0.7884 -0.0672  0.1796
 8840TIP3    H147935   6.172   4.990  14.371 -0.3964  1.3636 -0.4399
 8840TIP3    H247936   6.022   4.972  14.362 -0.0576 -0.5403 -3.5731
 8841TIP3   OH247937   6.266   2.048   5.434  0.3060 -0.3788  0.0476
 8841TIP3    H147938   6.293   1.964   5.397  0.4983 -0.6545  0.7964
 8841TIP3    H247939   6.171   2.044   5.434  0.3167 -1.0253  1.0088
 8842TIP3   OH247940   3.621   4.013  16.127  0.1568  0.2006  0.0470
 8842TIP3    H147941   3.648   4.043  16.040 -0.9300 -1.6077 -0.9725
 8842TIP3    H247942   3.568   3.935  16.110  0.8592 -0.8684  2.3933
 8843TIP3   OH247943   2.483   4.589   6.329 -0.2398 -0.1075  0.4981
 8843TIP3    H147944   2.413   4.567   6.390 -1.1667 -0.0972 -0.5354
 8843TIP3    H247945   2.472   4.682   6.312 -0.2761 -0.2053 -0.0313
 8844TIP3   OH247946   1.055   1.234  12.995  0.4897 -0.5252 -0.1953
 8844TIP3    H147947   1.074   1.145  12.965 -1.0591 -1.5604  1.7259
 8844TIP3    H247948   1.141   1.270  13.017  0.9607 -2.6102  1.7340
 8845TIP3   OH247949   1.860   1.019   3.437  0.2861  0.7045  0.1502
 8845TIP3    H147950   1.878   0.925   3.441  0.0065  0.6351 -0.1677
 8845TIP3    H247951   1.807   1.030   3.358  1.4116  1.3201 -0.5355
 8846TIP3   OH247952   0.507   0.279   1.810 -0.6716  0.2042 -0.1353
 8846TIP3    H147953   0.499   0.327   1.892 -1.6328  2.5874 -1.4846
 8846TIP3    H247954   0.420   0.287   1.769 -0.1148 -0.5418 -1.5525
 8847TIP3   OH247955   6.622   2.865   1.519  0.1850  0.5402  0.8133
 8847TIP3    H147956   6.603   2.890   1.428 -1.0853  1.3856  1.2874
 8847TIP3    H247957   6.645   2.773   1.514  0.8217  0.7462 -0.4564
 8848TIP3   OH247958   6.720   3.977  15.291  0.6250  0.1733  0.0214
 8848TIP3    H147959   6.709   3.975  15.196 -0.1153 -1.1230  0.1035
 8848TIP3    H247960   6.632   3.964  15.325  0.9015  0.5374  0.8830
 8849TIP3   OH247961   6.450   1.962   3.514  0.0195  0.3563  0.1765
 8849TIP3    H147962   6.465   1.967   3.608  0.2355 -1.0416  0.2395
 8849TIP3    H247963   6.357   1.979   3.502 -0.2757 -0.7638  0.7850
 8850TIP3   OH247964   2.765   2.208   4.907 -0.1294  0.6090  0.3291
 8850TIP3    H147965   2.802   2.290   4.940  1.2011  0.2379 -0.1647
 8850TIP3    H247966   2.733   2.163   4.985 -0.4055  1.3625  0.6630
 8851TIP3   OH247967   6.154   5.986  16.844  0.7291  0.1095 -0.3046
 8851TIP3    H147968   6.058   5.984  16.844  0.6841 -2.8527 -1.0977
 8851TIP3    H247969   6.177   6.036  16.766 -0.0753  2.2858  0.7713
 8852TIP3   OH247970   4.078   1.389   5.640 -0.2616  0.4698  0.1025
 8852TIP3    H147971   4.112   1.479   5.642  1.7357 -0.2539  0.6478
 8852TIP3    H247972   4.027   1.381   5.720  0.9229  0.6410  0.8998
 8853TIP3   OH247973   2.226   5.292   5.570 -0.1873  0.0501 -0.1042
 8853TIP3    H147974   2.282   5.215   5.568  0.0244  0.0765  2.2246
 8853TIP3    H247975   2.148   5.267   5.519  0.6559 -1.0217 -0.9020
 8854TIP3   OH247976   3.328   5.205   5.681  0.2767 -0.3394 -0.4474
 8854TIP3    H147977   3.337   5.169   5.593  0.5482 -0.9186 -0.1919
 8854TIP3    H247978   3.416   5.237   5.703  0.4360 -1.0197 -0.0478
 8855TIP3   OH247979   0.389   0.240   0.924 -0.0402 -0.5734  0.6695
 8855TIP3    H147980   0.432   0.206   0.845 -0.6255  0.8322 -0.3098
 8855TIP3    H247981   0.333   0.168   0.954  0.1844 -1.1335 -0.2082
 8856TIP3   OH247982   3.118   3.430  15.170 -0.5375  0.0793 -0.1196
 8856TIP3    H147983   3.111   3.334  15.166 -0.2358 -0.0261  1.5015
 8856TIP3    H247984   3.099   3.452  15.261  1.2366  1.4083 -0.0174
 8857TIP3   OH247985   1.509   6.499   5.032  0.1282 -0.4036  0.1294
 8857TIP3    H147986   1.559   6.463   4.959  0.4254  4.1240 -2.2798
 8857TIP3    H247987   1.418   6.501   5.001 -0.2045 -0.8945  1.0278
 8858TIP3   OH247988   1.797   3.331  17.012 -0.0680  0.4762 -0.5259
 8858TIP3    H147989   1.791   3.418  17.054 -1.8472  0.5904 -0.9330
 8858TIP3    H247990   1.792   3.349  16.919 -1.5435 -0.1206 -0.5776
 8859TIP3   OH247991   2.759   3.483  15.128  0.2404 -0.2566 -0.1875
 8859TIP3    H147992   2.790   3.399  15.093  0.1088 -0.4844  0.2271
 8859TIP3    H247993   2.689   3.509  15.069 -0.5208 -1.0319  0.3448
 8860TIP3   OH247994   6.111   0.643   2.703  0.1398 -0.6765  0.5009
 8860TIP3    H147995   6.110   0.555   2.666 -1.7865 -0.1672 -0.8220
 8860TIP3    H247996   6.174   0.691   2.650 -0.2597 -0.7792 -0.0767
 8861TIP3   OH247997   4.519   5.786  16.362 -0.5680  0.5535  0.1564
 8861TIP3    H147998   4.530   5.776  16.267  0.7828 -1.1754  0.4249
 8861TIP3    H247999   4.600   5.827  16.391  0.0625 -1.0404  0.7872
 8862TIP3   OH248000   3.922   6.162   1.550 -0.1886 -0.3587  0.0174
 8862TIP3    H148001   3.886   6.108   1.620 -0.3261 -0.2091  0.0616
 8862TIP3    H248002   4.012   6.132   1.541  0.3424  0.7466  1.3751
 8863TIP3   OH248003   5.768   3.366  13.021 -0.3790  0.1162 -0.2528
 8863TIP3    H148004   5.831   3.317  13.074  0.4391 -1.5543 -2.6206
 8863TIP3    H248005   5.802   3.456  13.021  1.4188 -0.5119 -0.5597
 8864TIP3   OH248006   4.353   3.016  10.999  0.1151 -0.9912  0.0188
 8864TIP3    H148007   4.350   2.950  11.069  1.4617 -2.0279 -0.8642
 8864TIP3    H248008   4.317   2.972  10.923 -0.6870 -0.0899 -0.1328
 8865TIP3   OH248009   0.538   5.290   0.333 -0.2900 -0.4557 -0.8637
 8865TIP3    H148010   0.558   5.301   0.240  0.3274 -0.5616 -0.7502
 8865TIP3    H248011   0.564   5.200   0.353  1.4503  0.1377 -0.1546
 8866TIP3   OH248012   5.377   1.393  16.635 -0.2823 -0.1866 -0.1183
 8866TIP3    H148013   5.320   1.462  16.603  0.6510 -0.4366 -2.4802
 8866TIP3    H248014   5.334   1.311  16.608 -0.5991 -0.5198  1.3012
 8867TIP3   OH248015   0.866   1.855   1.698 -0.1906 -0.9653 -0.2771
 8867TIP3    H148016   0.813   1.833   1.774 -0.0445 -0.0293  0.1068
 8867TIP3    H248017   0.832   1.800   1.628 -1.7916 -0.2500 -0.0892
 8868TIP3   OH248018   1.062   4.983   4.277  0.0355 -0.2038 -0.0868
 8868TIP3    H148019   1.109   5.046   4.332  1.9656 -0.2908 -1.5370
 8868TIP3    H248020   1.055   4.904   4.332 -0.7695  0.6537  1.0791
 8869TIP3   OH248021   0.360   3.547  12.637 -0.5243 -0.2007 -0.3891
 8869TIP3    H148022   0.334   3.569  12.548 -1.3070 -0.4327 -0.2293
 8869TIP3    H248023   0.284   3.570  12.691  0.9056  2.5152  0.6249
 8870TIP3   OH248024   2.396   3.772  12.243  0.3491  0.5354  0.5922
 8870TIP3    H148025   2.315   3.823  12.251  0.0195  0.2196 -0.5087
 8870TIP3    H248026   2.370   3.683  12.267  0.4934  0.5306  0.7326
 8871TIP3   OH248027   3.491   2.816  13.233  0.5251 -0.0940 -0.3645
 8871TIP3    H148028   3.456   2.905  13.238 -1.0836 -0.7712  1.0709
 8871TIP3    H248029   3.524   2.798  13.321 -0.7466 -1.5132 -0.1415
 8872TIP3   OH248030   0.395   3.125  13.240  0.4721  0.0488 -0.5873
 8872TIP3    H148031   0.375   3.215  13.267 -0.8689 -0.0869 -1.0580
 8872TIP3    H248032   0.472   3.101  13.291  1.9265  2.0540 -1.6879
 8873TIP3   OH248033   3.680   4.662   3.940 -0.0301 -0.0068 -0.5290
 8873TIP3    H148034   3.689   4.581   3.989  0.2650  0.0247 -0.5293
 8873TIP3    H248035   3.639   4.636   3.858  0.0839 -0.1590 -0.5382
 8874TIP3   OH248036   1.252   0.917  12.179 -0.2904  1.0883 -0.0184
 8874TIP3    H148037   1.319   0.903  12.246 -0.1544  0.3311 -0.3053
 8874TIP3    H248038   1.285   0.871  12.102 -1.8477 -0.6528  0.2809
 8875TIP3   OH248039   0.871   0.480   4.889  0.2087 -0.0187 -0.0250
 8875TIP3    H148040   0.787   0.523   4.871 -0.5646 -1.6131 -0.3233
 8875TIP3    H248041   0.859   0.439   4.974 -0.4480 -2.8401 -1.3772
 8876TIP3   OH248042   0.919   4.763   0.825  0.1830 -0.1982 -0.5176
 8876TIP3    H148043   0.892   4.715   0.747  0.6577  0.3285 -1.0145
 8876TIP3    H248044   1.004   4.725   0.848  0.3620  0.1126 -0.6631
 8877TIP3   OH248045   5.114   1.182  11.873  0.2892 -0.0039 -0.0898
 8877TIP3    H148046   5.113   1.089  11.848  0.3027  0.5948 -2.5685
 8877TIP3    H248047   5.054   1.224  11.812  1.2938  1.8152  0.0962
 8878TIP3   OH248048   4.693   1.156   1.995  0.5141  0.1347  0.0394
 8878TIP3    H148049   4.625   1.156   2.062  0.8506  0.6759  0.3916
 8878TIP3    H248050   4.665   1.223   1.932  0.2216 -0.3412 -0.3433
 8879TIP3   OH248051   0.500   5.724  10.985 -0.6409 -0.1535 -0.1464
 8879TIP3    H148052   0.565   5.794  10.976 -0.3352 -0.5906 -1.6944
 8879TIP3    H248053   0.521   5.663  10.914 -1.4223 -1.3975  0.6447
 8880TIP3   OH248054   4.608   0.714  16.567 -0.2057  0.2094  0.0987
 8880TIP3    H148055   4.630   0.770  16.492 -3.1864  0.1897 -0.9194
 8880TIP3    H248056   4.595   0.627  16.530  0.1286 -0.2315  0.9781
 8881TIP3   OH248057   2.409   0.278  14.362  0.2368  0.3474  0.2154
 8881TIP3    H148058   2.483   0.221  14.384 -0.1217 -0.2025  0.0112
 8881TIP3    H248059   2.412   0.347  14.428  1.2382  0.6118 -0.0913
 8882TIP3   OH248060   1.529   6.312   5.593 -0.3880 -0.1131 -0.0917
 8882TIP3    H148061   1.513   6.313   5.688 -0.5237  2.8355 -0.0677
 8882TIP3    H248062   1.604   6.254   5.582  1.6590  1.8345  2.2513
 8883TIP3   OH248063   5.010   0.194  13.457  0.0024  0.5391  0.4691
 8883TIP3    H148064   4.917   0.218  13.458 -0.5679 -1.3740  2.5968
 8883TIP3    H248065   5.018   0.135  13.382 -0.7623  0.0146  0.7739
 8884TIP3   OH248066   5.258   2.841  13.801 -0.2302  0.0171 -0.2575
 8884TIP3    H148067   5.175   2.856  13.756 -1.0988  2.5257  1.9683
 8884TIP3    H248068   5.320   2.899  13.757 -0.2841  0.0633 -0.2728
 8885TIP3   OH248069   4.755   2.322   0.377 -0.3649  0.3531 -0.0499
 8885TIP3    H148070   4.847   2.300   0.392  0.1523  1.4755 -1.3988
 8885TIP3    H248071   4.738   2.396   0.435 -0.1538  0.7026 -0.4274
 8886TIP3   OH248072   6.334   2.597  14.234  0.0971  0.6784 -0.1789
 8886TIP3    H148073   6.422   2.627  14.211  0.5089 -0.2329  0.1628
 8886TIP3    H248074   6.326   2.615  14.327  0.3545 -0.2412  0.0339
 8887TIP3   OH248075   5.122   5.020  14.661  0.3109  0.1058 -0.3989
 8887TIP3    H148076   5.042   4.976  14.687  0.8218 -0.9926 -0.6204
 8887TIP3    H248077   5.164   5.044  14.744  0.4465 -0.6308 -0.2427
 8888TIP3   OH248078   5.271   0.483   6.372  0.6041 -0.0893  0.4537
 8888TIP3    H148079   5.242   0.519   6.288  0.6365  0.5041  0.6869
 8888TIP3    H248080   5.303   0.559   6.421 -0.2217 -0.2877  1.3385
 8889TIP3   OH248081   5.978   1.056   3.344 -0.7884  0.7083  0.4079
 8889TIP3    H148082   5.997   0.969   3.379 -1.9737 -0.0755 -0.7979
 8889TIP3    H248083   5.917   1.094   3.407 -1.4458  0.0507  0.1880
 8890TIP3   OH248084   4.734   5.168  15.822 -0.3685  0.9045 -0.1105
 8890TIP3    H148085   4.705   5.163  15.913  0.1705  1.5719  0.1075
 8890TIP3    H248086   4.654   5.181  15.772 -0.7320 -0.0659  0.2055
 8891TIP3   OH248087   3.976   2.106   5.155 -0.4773 -0.2534  0.0322
 8891TIP3    H148088   3.933   2.137   5.234  0.6468 -0.3802  0.7134
 8891TIP3    H248089   3.978   2.183   5.098 -3.2283 -0.6840 -0.8058
 8892TIP3   OH248090   3.509   3.005  11.035  0.2647  0.2585  0.5773
 8892TIP3    H148091   3.594   2.964  11.017 -0.5033 -0.7810 -0.8560
 8892TIP3    H248092   3.531   3.090  11.072  1.9559  0.5432 -0.9511
 8893TIP3   OH248093   4.479   1.149   5.718  0.5937  0.7083  0.0988
 8893TIP3    H148094   4.574   1.156   5.718  0.5535  1.3043  0.0678
 8893TIP3    H248095   4.452   1.191   5.636  0.3644 -0.4720 -0.4648
 8894TIP3   OH248096   4.991   0.168   0.805  0.5798 -0.2408  0.1718
 8894TIP3    H148097   4.927   0.098   0.798 -0.8838  1.0442  0.0296
 8894TIP3    H248098   5.002   0.200   0.716  0.0891  0.6668  0.4256
 8895TIP3   OH248099   0.660   2.252  11.850 -0.3773  0.1626  0.5652
 8895TIP3    H148100   0.718   2.227  11.922 -0.6203  0.6395  0.9301
 8895TIP3    H248101   0.584   2.195  11.859  1.3240 -2.8500 -1.8426
 8896TIP3   OH248102   0.307   4.928  15.373  0.3049 -0.3421 -0.2216
 8896TIP3    H148103   0.356   4.892  15.299 -1.0227  1.9024 -2.3679
 8896TIP3    H248104   0.370   4.983  15.420  1.2505 -2.0657  0.6176
 8897TIP3   OH248105   3.411   1.355   3.386 -0.2251 -0.0050  0.0687
 8897TIP3    H148106   3.481   1.325   3.445 -2.0080 -0.7810  1.9228
 8897TIP3    H248107   3.437   1.322   3.300  0.8364 -1.7968  1.0086
 8898TIP3   OH248108   3.272   0.074  13.349  0.1322 -0.5679 -0.3878
 8898TIP3    H148109   3.276   0.077  13.444 -3.1485  2.7265 -0.1192
 8898TIP3    H248110   3.321   0.151  13.320 -0.8201 -0.2249 -1.1603
 8899TIP3   OH248111   2.447   0.422  17.095 -0.7279 -0.5018 -0.1865
 8899TIP3    H148112   2.395   0.402  17.018 -0.5483 -0.0807 -0.4235
 8899TIP3    H248113   2.536   0.396  17.072  0.0133  2.6991 -1.4472
 8900TIP3   OH248114   6.365   1.055  11.622  0.2385 -0.1884  0.3788
 8900TIP3    H148115   6.342   0.994  11.552 -3.0993 -0.2713  1.3708
 8900TIP3    H248116   6.397   1.000  11.693  3.1221 -0.1428 -0.7220
 8901TIP3   OH248117   1.637   2.158   1.138  0.2214  0.0896 -0.0521
 8901TIP3    H148118   1.603   2.070   1.127  1.7904 -0.5514 -0.0821
 8901TIP3    H248119   1.708   2.165   1.073  0.1702  1.3457 -0.0047
 8902TIP3   OH248120   0.892   5.893  13.413 -0.6283  0.3903  0.3434
 8902TIP3    H148121   0.879   5.893  13.508 -2.2933  1.3051  0.1619
 8902TIP3    H248122   0.972   5.843  13.400  0.8171  2.0144  2.3655
 8903TIP3   OH248123   5.049   5.230   3.035  0.7781  0.1652 -0.2296
 8903TIP3    H148124   4.989   5.155   3.023  0.2774  0.1818  1.7831
 8903TIP3    H248125   5.136   5.191   3.033  0.5447 -0.3976  0.1444
 8904TIP3   OH248126   2.636   4.654   5.496 -0.3604 -0.0221 -0.3912
 8904TIP3    H148127   2.705   4.595   5.466 -0.5894  1.0549 -3.3019
 8904TIP3    H248128   2.683   4.725   5.539  0.2773  0.0683 -1.2112
 8905TIP3   OH248129   1.274   0.738   4.506  1.0517 -0.7791 -0.6782
 8905TIP3    H148130   1.235   0.657   4.473  2.7439 -2.0693  0.3061
 8905TIP3    H248131   1.282   0.724   4.600 -0.4398  1.3862 -0.1438
 8906TIP3   OH248132   6.054   3.849  15.985  0.4704 -0.7617 -0.3210
 8906TIP3    H148133   6.125   3.865  15.922  1.5503  0.8141  1.1819
 8906TIP3    H248134   6.066   3.917  16.051  0.7457 -3.5599  2.7643
 8907TIP3   OH248135   2.583   4.313   5.897  0.1368  0.2937  0.4663
 8907TIP3    H148136   2.556   4.385   5.840  1.9582  0.2281 -0.5274
 8907TIP3    H248137   2.512   4.306   5.961 -0.1861  2.8808  0.5156
 8908TIP3   OH248138   0.424   5.489  14.642 -0.0428  0.5815 -0.5932
 8908TIP3    H148139   0.433   5.545  14.719 -1.7203  1.4776 -0.9945
 8908TIP3    H248140   0.505   5.438  14.640  0.2003  0.7676  1.5657
 8909TIP3   OH248141   4.238   2.599  15.380 -0.2305  0.3393 -0.2392
 8909TIP3    H148142   4.281   2.637  15.457 -1.5323 -1.6437  1.5784
 8909TIP3    H248143   4.162   2.654  15.365  1.2182  2.0971 -1.6306
 8910TIP3   OH248144   3.648   2.990   5.148  0.1285 -0.1498 -1.0078
 8910TIP3    H148145   3.563   3.031   5.166  0.4953  0.2032 -0.0280
 8910TIP3    H248146   3.665   2.935   5.225 -0.0385 -1.6560 -1.9963
 8911TIP3   OH248147   2.570   3.979  14.187  0.0697  0.3963 -0.1185
 8911TIP3    H148148   2.582   4.074  14.189  0.8256  0.3886 -2.0709
 8911TIP3    H248149   2.586   3.951  14.278 -0.1521  2.1097  0.4920
 8912TIP3   OH248150   3.273   4.660  10.565 -0.0264  0.2837  0.2250
 8912TIP3    H148151   3.257   4.734  10.507 -2.1431  0.9027  1.4649
 8912TIP3    H248152   3.319   4.698  10.640  1.4654 -0.2407 -0.4058
 8913TIP3   OH248153   2.563   3.559  11.960 -0.3190 -0.5029  0.2085
 8913TIP3    H148154   2.543   3.531  11.871 -2.2389 -0.8632  0.7142
 8913TIP3    H248155   2.643   3.611  11.951 -1.1820  0.5833 -1.9331
 8914TIP3   OH248156   6.397   3.874  11.768  0.0362  0.3470 -0.1052
 8914TIP3    H148157   6.482   3.894  11.806 -0.1229 -1.2230  1.2180
 8914TIP3    H248158   6.357   3.959  11.750  1.0867  1.1227  1.0922
 8915TIP3   OH248159   0.821   1.867   4.033 -0.5410 -0.5060  0.2869
 8915TIP3    H148160   0.904   1.891   4.076  0.2664 -0.8387 -1.0213
 8915TIP3    H248161   0.786   1.951   4.002 -0.9091 -0.3160  1.2014
 8916TIP3   OH248162   3.031   3.073  11.343  0.0814 -0.1957 -0.2393
 8916TIP3    H148163   3.083   3.095  11.266 -1.9755  0.3839 -1.5408
 8916TIP3    H248164   3.062   2.986  11.369  0.2172 -0.8326 -2.3176
 8917TIP3   OH248165   0.517   6.499   1.360  0.2119 -0.7324 -0.1422
 8917TIP3    H148166   0.427   6.471   1.347  0.4646 -1.2826 -0.7522
 8917TIP3    H248167   0.524   6.579   1.308  0.2629 -1.0650 -0.6547
 8918TIP3   OH248168   2.641   3.694   3.537  0.1659 -0.0477 -0.1427
 8918TIP3    H148169   2.685   3.778   3.545  0.0188  0.1307 -1.1092
 8918TIP3    H248170   2.554   3.709   3.575  0.5493 -0.1048  0.7765
 8919TIP3   OH248171   4.828   6.576  12.074 -0.2876 -0.2137  0.1759
 8919TIP3    H148172   4.811   6.520  12.150 -1.4825 -0.8860 -0.5484
 8919TIP3    H248173   4.771   6.652  12.086  1.6837  1.1773  1.4066
 8920TIP3   OH248174   3.557   5.800   3.539  0.3737 -0.6044  0.3337
 8920TIP3    H148175   3.525   5.787   3.628  2.1452 -1.9858  0.8310
 8920TIP3    H248176   3.552   5.713   3.499 -2.6324  0.3816 -1.7969
 8921TIP3   OH248177   1.476   4.793   5.944  0.7998 -0.1435 -0.0725
 8921TIP3    H148178   1.525   4.859   5.894  0.7479 -1.0498 -1.3569
 8921TIP3    H248179   1.452   4.726   5.880  0.9221 -1.4748  1.2191
 8922TIP3   OH248180   3.585   0.402   1.400 -0.4066 -0.9710  0.8163
 8922TIP3    H148181   3.673   0.409   1.362 -0.4078 -0.8007  0.8429
 8922TIP3    H248182   3.528   0.446   1.337 -0.6958 -2.3291  0.0817
 8923TIP3   OH248183   2.541   6.148   4.376  0.3997  0.2811  0.4241
 8923TIP3    H148184   2.594   6.173   4.452  0.9198 -1.0232  0.5282
 8923TIP3    H248185   2.591   6.181   4.301  1.0979 -0.4416  0.5517
 8924TIP3   OH248186   4.105   3.085   3.604  0.0946 -0.4678 -0.0090
 8924TIP3    H148187   4.111   2.996   3.568  2.2226 -0.4457  0.1603
 8924TIP3    H248188   4.185   3.128   3.575 -1.5131  1.9261 -1.3326
 8925TIP3   OH248189   3.899   0.544  16.132  0.0405 -0.0652 -0.1027
 8925TIP3    H148190   3.962   0.543  16.204  1.4409 -0.4578 -1.2944
 8925TIP3    H248191   3.856   0.629  16.139 -1.6688 -1.0381  2.6801
 8926TIP3   OH248192   4.642   2.081  16.767 -0.2816 -0.8483 -0.2909
 8926TIP3    H148193   4.662   2.030  16.845  3.8051 -0.2067 -0.6956
 8926TIP3    H248194   4.678   2.168  16.786 -3.6583  0.8969 -1.0765
 8927TIP3   OH248195   2.617   5.677   0.219  0.2461 -0.1680 -0.2451
 8927TIP3    H148196   2.687   5.730   0.180  1.2457 -0.0828  1.5581
 8927TIP3    H248197   2.547   5.740   0.238  0.0939 -0.0746 -1.0814
 8928TIP3   OH248198   1.643   3.970  12.316 -0.3583 -0.1172  0.2291
 8928TIP3    H148199   1.694   3.919  12.379 -1.4408  0.5318  1.6631
 8928TIP3    H248200   1.672   4.060  12.329 -1.0389  0.1010  0.2372
 8929TIP3   OH248201   6.206   5.745  14.818 -0.8145  0.5679 -0.2604
 8929TIP3    H148202   6.147   5.819  14.801  0.3449  1.2372 -1.6094
 8929TIP3    H248203   6.148   5.669  14.824 -1.7815  1.0069 -2.7787
 8930TIP3   OH248204   2.295   6.272   6.224  0.4845  0.4190  0.5059
 8930TIP3    H148205   2.282   6.366   6.242 -0.4198  0.8077 -1.7245
 8930TIP3    H248206   2.376   6.269   6.173  1.0562 -0.1620  1.4323
 8931TIP3   OH248207   5.667   3.806  14.021 -0.0419  0.5639 -0.2140
 8931TIP3    H148208   5.701   3.768  13.940 -1.5782 -1.1324 -0.1169
 8931TIP3    H248209   5.581   3.766  14.033  0.0782  0.8386  2.1946
 8932TIP3   OH248210   0.244   6.299   3.908  0.2629  0.5707 -0.0023
 8932TIP3    H148211   0.167   6.277   3.960  0.8110  0.8344  0.9492
 8932TIP3    H248212   0.313   6.312   3.973  1.5434 -1.3176 -0.9295
 8933TIP3   OH248213   1.420   6.753  14.570 -0.0168 -0.1696 -0.1764
 8933TIP3    H148214   1.450   6.670  14.534  0.8730 -0.4459  1.1243
 8933TIP3    H248215   1.362   6.789  14.503 -0.7848 -2.0449 -0.5772
 8934TIP3   OH248216   2.207   0.239   2.509  0.3334  0.0801 -0.1012
 8934TIP3    H148217   2.230   0.280   2.593  0.2375  0.3003 -0.1817
 8934TIP3    H248218   2.289   0.202   2.477  0.6767  1.2500 -0.5995
 8935TIP3   OH248219   5.907   4.237  14.200  0.1838 -0.5162 -0.8387
 8935TIP3    H148220   5.841   4.175  14.171  0.5648 -1.3766  0.0852
 8935TIP3    H248221   5.864   4.287  14.270 -0.4040  0.8733 -2.1454
 8936TIP3   OH248222   5.970   1.456  16.754  0.0801  0.2630 -0.4102
 8936TIP3    H148223   5.907   1.404  16.804  0.3482  0.8102  0.5418
 8936TIP3    H248224   5.918   1.500  16.687 -0.9969  2.3143  1.5898
 8937TIP3   OH248225   1.060   1.756  12.097  0.0561 -0.9140  0.8738
 8937TIP3    H148226   0.997   1.779  12.165  0.0307 -0.1061  0.5878
 8937TIP3    H248227   1.140   1.802  12.121 -0.2453  0.2003 -0.1652
 8938TIP3   OH248228   0.019   0.355   4.499 -0.3061  0.4629 -0.2859
 8938TIP3    H148229   0.001   0.437   4.452 -2.0432 -0.6873 -1.7473
 8938TIP3    H248230   0.094   0.317   4.455 -2.0873 -0.7445 -2.4752
 8939TIP3   OH248231   1.386   5.566   3.186 -0.0835  0.1465  0.3392
 8939TIP3    H148232   1.300   5.606   3.173  0.5287  0.9677 -1.5049
 8939TIP3    H248233   1.426   5.616   3.257 -1.0654 -0.1511  1.1087
 8940TIP3   OH248234   4.560   1.393   2.868 -0.5721 -0.6970 -0.3157
 8940TIP3    H148235   4.639   1.425   2.823 -1.2612  0.4948 -0.7203
 8940TIP3    H248236   4.559   1.299   2.849  0.4424 -0.6331 -0.7789
 8941TIP3   OH248237   1.731   5.581  11.915  0.2296 -0.4989  0.0493
 8941TIP3    H148238   1.739   5.599  12.008 -2.0499 -1.5140  0.5037
 8941TIP3    H248239   1.699   5.664  11.878  0.8630 -0.1812  0.2046
 8942TIP3   OH248240   4.223   5.421   1.648 -0.2049  0.8612 -0.5886
 8942TIP3    H148241   4.155   5.462   1.594  0.2500  1.6870 -0.5534
 8942TIP3    H248242   4.229   5.331   1.615 -1.3348  0.7613 -0.5625
 8943TIP3   OH248243   0.457   4.068  16.478 -0.1362 -0.0302  0.1254
 8943TIP3    H148244   0.552   4.064  16.489 -0.1559 -0.7394  0.0793
 8943TIP3    H248245   0.443   4.079  16.384 -0.1204 -1.4355 -0.0631
 8944TIP3   OH248246   0.787   5.776   2.752 -0.7572 -0.5371  0.2466
 8944TIP3    H148247   0.791   5.734   2.666  0.3469 -0.2929  0.1701
 8944TIP3    H248248   0.770   5.868   2.733  2.6998  0.1856  0.0447
 8945TIP3   OH248249   1.960   1.451   0.617  0.1144  0.0218  0.7184
 8945TIP3    H148250   1.960   1.509   0.693  0.3416  0.6443  0.2533
 8945TIP3    H248251   1.954   1.363   0.654  2.0821  0.1903  1.5547
 8946TIP3   OH248252   6.395   3.884  16.158  0.0170  0.1869 -0.0722
 8946TIP3    H148253   6.403   3.895  16.253 -2.4604 -1.1721  0.3771
 8946TIP3    H248254   6.421   3.969  16.122 -1.3606  1.5885  2.0116
 8947TIP3   OH248255   0.019   5.703  11.727  0.2700  0.1314  0.2477
 8947TIP3    H148256  -0.055   5.712  11.786  0.8166 -0.3591  1.0328
 8947TIP3    H248257   0.065   5.787  11.733 -0.0662  0.3399 -0.0375
 8948TIP3   OH248258   5.945   1.580   4.096 -0.1012 -0.2286  0.3519
 8948TIP3    H148259   6.007   1.510   4.113  0.9807  0.3810 -0.9424
 8948TIP3    H248260   5.996   1.649   4.053 -1.3194  0.9807  0.7346
 8949TIP3   OH248261   5.798   6.633  12.191  0.0124 -0.1411 -0.1399
 8949TIP3    H148262   5.803   6.540  12.167  0.0341 -0.6740  1.7620
 8949TIP3    H248263   5.754   6.674  12.117 -1.8918 -2.0303 -0.1636
 8950TIP3   OH248264   1.424   4.492  11.343  0.2680 -0.0773 -0.0847
 8950TIP3    H148265   1.497   4.517  11.287  0.3126 -0.2298 -0.0954
 8950TIP3    H248266   1.464   4.438  11.411  0.3910  1.0117  0.7308
 8951TIP3   OH248267   6.603   6.111  13.834  0.0255 -0.3085  0.1179
 8951TIP3    H148268   6.646   6.060  13.764 -1.4576 -1.7086  0.1669
 8951TIP3    H248269   6.519   6.136  13.797 -0.3965 -0.2728  1.0881
 8952TIP3   OH248270   6.374   4.875  11.826 -0.1292 -0.3055  0.8740
 8952TIP3    H148271   6.304   4.880  11.891  0.3777  1.0052  1.3674
 8952TIP3    H248272   6.328   4.875  11.742 -0.7514  0.5035  1.1927
 8953TIP3   OH248273   5.489   6.741  13.237 -0.0274 -0.6672  0.0936
 8953TIP3    H148274   5.427   6.670  13.218 -1.0591  0.5738 -1.4555
 8953TIP3    H248275   5.514   6.775  13.151  0.4252  0.8552  0.7852
 8954TIP3   OH248276   5.125   3.960   4.012 -0.4544 -0.3718 -0.4699
 8954TIP3    H148277   5.109   3.866   4.023  0.2970 -0.3386  1.2156
 8954TIP3    H248278   5.179   3.984   4.087  0.7504  1.1007 -1.7519
 8955TIP3   OH248279   0.785   6.158  12.977 -0.6133 -0.8924  0.7941
 8955TIP3    H148280   0.805   6.091  13.042  0.0545  0.1362  1.6783
 8955TIP3    H248281   0.704   6.127  12.936 -1.1099 -1.5381  2.1681
 8956TIP3   OH248282   2.226   4.244   5.311  0.4215  0.4996  0.0352
 8956TIP3    H148283   2.259   4.201   5.390  0.8784  1.2199  0.2469
 8956TIP3    H248284   2.132   4.231   5.315  0.3617  1.0821  1.0548
 8957TIP3   OH248285   2.647   6.650  11.539 -0.5601  0.1679  0.5672
 8957TIP3    H148286   2.620   6.559  11.531 -0.1341 -0.0796  1.7142
 8957TIP3    H248287   2.606   6.680  11.621  1.4118  0.2010  1.6052
 8958TIP3   OH248288   5.073   6.328  15.098  0.3310  0.3856  0.2280
 8958TIP3    H148289   5.139   6.265  15.128 -1.0045  0.6481  4.3855
 8958TIP3    H248290   4.994   6.275  15.086 -0.0392  0.7978  0.7774
 8959TIP3   OH248291   2.641   4.746  11.813  0.0295  0.5262 -0.5832
 8959TIP3    H148292   2.732   4.774  11.822 -0.3031  1.2765  0.7497
 8959TIP3    H248293   2.646   4.651  11.806  0.8711  0.4862  0.3679
 8960TIP3   OH248294   1.688   2.037   2.655  0.5015  0.5026  0.4625
 8960TIP3    H148295   1.663   2.089   2.731  0.4057  0.0762  0.7300
 8960TIP3    H248296   1.605   2.011   2.615  0.3588 -2.3608  2.3374
 8961TIP3   OH248297   6.416   3.544   5.913 -0.0525  0.2320  0.3282
 8961TIP3    H148298   6.491   3.496   5.946  0.1558 -1.4347 -2.2646
 8961TIP3    H248299   6.352   3.477   5.889 -1.4527  1.4859  0.3818
 8962TIP3   OH248300   6.249   3.858   6.065  0.2960  0.5144  0.3212
 8962TIP3    H148301   6.196   3.916   6.121 -1.3330 -0.8886  0.3423
 8962TIP3    H248302   6.221   3.770   6.090 -0.8965 -0.1948 -2.9889
 8963TIP3   OH248303   2.342   5.659   4.019 -0.3221 -0.6330  0.0883
 8963TIP3    H148304   2.265   5.621   3.976 -0.2288 -0.2482 -0.4219
 8963TIP3    H248305   2.307   5.705   4.095 -0.5533 -0.7810  0.0732
 8964TIP3   OH248306   5.525   2.142  17.243 -0.0700  0.1750 -0.1112
 8964TIP3    H148307   5.518   2.212  17.308 -0.3892 -0.6509  0.7639
 8964TIP3    H248308   5.611   2.104  17.258  0.0556  0.2926 -0.5108
 8965TIP3   OH248309   3.027   3.116  17.242  0.3857  0.6184 -0.6820
 8965TIP3    H148310   3.081   3.074  17.309 -1.7650 -0.3435  0.5486
 8965TIP3    H248311   3.050   3.209  17.248  1.2978  0.3464  0.3501
 8966TIP3   OH248312   4.539   0.403   4.598 -0.3890  0.1264 -0.0877
 8966TIP3    H148313   4.516   0.338   4.664 -0.2566  0.4129  0.2443
 8966TIP3    H248314   4.620   0.442   4.630 -1.6673  2.1071  0.9513
 8967TIP3   OH248315   6.304   1.558  15.326 -0.7314  0.4548 -0.4347
 8967TIP3    H148316   6.358   1.556  15.247 -1.7190  2.3278 -1.2199
 8967TIP3    H248317   6.226   1.507  15.303 -1.1906  1.3115 -0.8506
 8968TIP3   OH248318   2.782   1.265   3.470  0.7590  0.4514  0.2342
 8968TIP3    H148319   2.716   1.201   3.496  1.9200 -0.7984  0.1889
 8968TIP3    H248320   2.832   1.222   3.401  1.6920  1.3245  0.3418
 8969TIP3   OH248321   2.640   5.852   3.700  0.3708 -0.3032  0.1920
 8969TIP3    H148322   2.607   5.794   3.631  0.3334  1.0424 -0.9706
 8969TIP3    H248323   2.575   5.922   3.706  0.5281 -0.2401  1.3972
 8970TIP3   OH248324   1.248   2.998   3.306 -0.0807 -0.0540  0.1152
 8970TIP3    H148325   1.333   2.971   3.272 -0.1598  0.4507 -0.5015
 8970TIP3    H248326   1.210   2.918   3.343  0.5655 -0.3279  0.2031
 8971TIP3   OH248327   3.731   1.198  16.398  0.5671  0.1832  0.0797
 8971TIP3    H148328   3.795   1.227  16.332  0.1795 -0.8374 -0.7831
 8971TIP3    H248329   3.650   1.241  16.373  0.3785 -0.3414 -0.2256
 8972TIP3   OH248330   3.316   4.381  14.491 -0.0944  0.0369  0.5213
 8972TIP3    H148331   3.251   4.452  14.481 -1.8287 -1.6117 -0.5656
 8972TIP3    H248332   3.324   4.343  14.404  1.4193 -0.6304  0.9130
 8973TIP3   OH248333   2.406   1.845   4.138 -0.6186 -0.0614  0.3622
 8973TIP3    H148334   2.492   1.880   4.164 -0.7504  0.4740  0.0899
 8973TIP3    H248335   2.420   1.751   4.131 -0.3181 -0.1040  1.3528
 8974TIP3   OH248336   1.062   5.618  14.961  0.2502 -0.5051  0.0230
 8974TIP3    H148337   1.051   5.647  14.870  1.8533  0.2757  0.0349
 8974TIP3    H248338   1.128   5.678  14.997  0.6498 -1.6561  1.2942
 8975TIP3   OH248339   1.012   6.779   1.475 -0.2702 -0.3304  0.0973
 8975TIP3    H148340   1.100   6.807   1.449  0.0680 -1.0667  0.4411
 8975TIP3    H248341   1.014   6.684   1.467 -1.1908 -0.3183 -0.3702
 8976TIP3   OH248342   2.354   4.732   4.141  0.2522 -0.2185 -0.9966
 8976TIP3    H148343   2.314   4.653   4.104  0.3253 -0.1842 -1.1475
 8976TIP3    H248344   2.351   4.717   4.236 -1.4101  0.4121 -0.9279
 8977TIP3   OH248345   4.507   6.042   1.739 -0.0581 -0.4958 -0.1124
 8977TIP3    H148346   4.518   6.087   1.823 -2.1260  0.2200 -0.1632
 8977TIP3    H248347   4.498   5.950   1.762  2.7163 -0.7964  0.1195
 8978TIP3   OH248348   0.841   6.626  16.094  1.0334  0.3889  0.0174
 8978TIP3    H148349   0.898   6.687  16.046  1.7883  0.1501  0.5892
 8978TIP3    H248350   0.807   6.677  16.167  0.9624  0.3727 -0.0041
 8979TIP3   OH248351   2.715   4.435  11.531 -0.3498 -0.2143 -0.2031
 8979TIP3    H148352   2.675   4.491  11.597 -2.3340 -0.6611 -0.9538
 8979TIP3    H248353   2.667   4.352  11.537  0.1782 -0.6384 -1.4498
 8980TIP3   OH248354   3.527   5.601   3.971  0.0870  0.1137  0.1421
 8980TIP3    H148355   3.608   5.550   3.978  0.8192  1.3126  0.6364
 8980TIP3    H248356   3.498   5.613   4.062 -0.8514 -0.5967 -0.0454
 8981TIP3   OH248357   4.137   5.809   1.205 -0.2621  0.1978  0.0990
 8981TIP3    H148358   4.111   5.835   1.117  1.2852  0.1140 -0.4190
 8981TIP3    H248359   4.218   5.857   1.221  0.5740 -1.3162  0.6481
 8982TIP3   OH248360   4.765   1.745  10.830 -0.4957 -0.0163 -0.0674
 8982TIP3    H148361   4.849   1.758  10.874 -1.0746  0.3440  0.9764
 8982TIP3    H248362   4.787   1.736  10.737  0.8732 -1.7866  0.3667
 8983TIP3   OH248363   1.686   0.586   0.539  0.0734 -0.1133  0.3347
 8983TIP3    H148364   1.671   0.654   0.604  1.0317 -0.8688  1.3848
 8983TIP3    H248365   1.707   0.508   0.590  0.3040 -0.8716 -0.8675
 8984TIP3   OH248366   1.282   3.857  16.552  0.0526 -0.4297  0.2135
 8984TIP3    H148367   1.245   3.804  16.482 -1.8164  0.4256  0.4935
 8984TIP3    H248368   1.305   3.793  16.620  0.6392 -1.1329 -0.6205
 8985TIP3   OH248369   5.243   1.846  11.919  0.2131  0.1350  0.0781
 8985TIP3    H148370   5.229   1.823  12.011  3.1230 -2.7598  0.0165
 8985TIP3    H248371   5.200   1.776  11.870  1.6515 -0.3514 -0.5572
 8986TIP3   OH248372   5.704   5.270   2.701 -0.2678  0.2099  0.0030
 8986TIP3    H148373   5.736   5.225   2.623  1.8720 -0.4938  1.1991
 8986TIP3    H248374   5.723   5.362   2.686 -2.1231  0.4527 -1.2741
 8987TIP3   OH248375   5.046   2.118   3.323  0.5775  0.0167  0.0490
 8987TIP3    H148376   5.141   2.114   3.328  0.6686 -1.1068 -1.8401
 8987TIP3    H248377   5.017   2.027   3.329 -0.3216  0.2865 -0.0248
 8988TIP3   OH248378   3.027   0.019   2.731 -0.2886  0.6807  0.0898
 8988TIP3    H148379   2.950  -0.032   2.759 -0.2881  0.0471 -1.0285
 8988TIP3    H248380   2.992   0.105   2.709 -0.3225  1.1339  1.7936
 8989TIP3   OH248381   6.301   3.012   6.545 -0.2724 -0.1011 -0.1257
 8989TIP3    H148382   6.360   2.942   6.517 -0.2188  0.2277 -0.8623
 8989TIP3    H248383   6.214   2.972   6.544 -0.2642 -0.1072 -0.7288
 8990TIP3   OH248384   2.846   5.610  16.555 -0.2917 -0.2691  0.3677
 8990TIP3    H148385   2.919   5.638  16.610 -1.2782 -0.5100  1.8645
 8990TIP3    H248386   2.862   5.518  16.538  0.4492  0.0056 -0.4678
 8991TIP3   OH248387   6.276   1.386   2.029 -0.4508 -0.0285  0.1750
 8991TIP3    H148388   6.333   1.459   2.055  0.6806 -1.1567  0.9709
 8991TIP3    H248389   6.195   1.428   2.002  0.5676  1.6061 -0.4955
 8992TIP3   OH248390   6.284   5.112   1.073 -0.2374  0.2205 -0.7005
 8992TIP3    H148391   6.227   5.185   1.094 -1.3106 -0.7498 -0.1450
 8992TIP3    H248392   6.365   5.130   1.121 -0.4554  1.0859 -0.6481
 8993TIP3   OH248393   4.723   5.472  11.933  0.0394 -0.2315  0.0754
 8993TIP3    H148394   4.803   5.485  11.881 -0.6977  0.3304 -0.9621
 8993TIP3    H248395   4.689   5.560  11.948 -0.3676 -0.4612  0.5509
 8994TIP3   OH248396   2.308   5.142  17.085  0.4283 -0.4001  0.1837
 8994TIP3    H148397   2.382   5.091  17.120  1.5470  1.5523  0.8378
 8994TIP3    H248398   2.350   5.210  17.033 -1.0201 -0.1654 -0.6957
 8995TIP3   OH248399   3.501   1.242   3.161  0.3537  0.2674 -0.0799
 8995TIP3    H148400   3.572   1.191   3.200  0.4618 -0.0638 -0.6874
 8995TIP3    H248401   3.545   1.304   3.104  0.1405 -0.5343 -1.1542
 8996TIP3   OH248402   0.019   0.184  11.117 -0.4498  0.5894  0.1604
 8996TIP3    H148403  -0.010   0.241  11.046 -0.5013 -0.7891 -0.9861
 8996TIP3    H248404  -0.060   0.135  11.141  0.2954 -1.5074 -1.3523
 8997TIP3   OH248405   4.506   3.768   1.546  0.1872 -0.1306 -0.1446
 8997TIP3    H148406   4.583   3.824   1.545  0.2612 -0.2363 -1.0860
 8997TIP3    H248407   4.529   3.694   1.602  0.8699 -0.2979 -0.6394
 8998TIP3   OH248408   2.580   2.361  10.826  0.2554 -0.1516  0.0798
 8998TIP3    H148409   2.665   2.337  10.789  0.6869  0.3181  0.7325
 8998TIP3    H248410   2.553   2.437  10.776  0.6321  0.2200  0.4341
 8999TIP3   OH248411   1.715   0.076  16.737  0.2984 -0.1294 -0.0749
 8999TIP3    H148412   1.668   0.058  16.818  0.5583 -1.8082 -0.2529
 8999TIP3    H248413   1.674   0.154  16.701  2.1924  2.6389  3.2036
 9000TIP3   OH248414   0.716   1.694  13.334 -0.3122 -0.1707  0.0625
 9000TIP3    H148415   0.688   1.756  13.402 -0.5362  1.1376 -1.1765
 9000TIP3    H248416   0.641   1.690  13.274 -0.1485 -1.3772 -0.0781
 9001TIP3   OH248417   3.466   3.084   5.798 -0.2485 -0.2878  0.1173
 9001TIP3    H148418   3.449   3.089   5.892 -0.8888  1.5857 -0.0394
 9001TIP3    H248419   3.386   3.119   5.758 -0.0097 -1.1218 -1.1250
 9002TIP3   OH248420   5.720   6.636  13.377  0.3557 -0.5616 -0.1112
 9002TIP3    H148421   5.708   6.607  13.467  1.2722  0.3459  0.3125
 9002TIP3    H248422   5.635   6.671  13.351  0.1020 -0.7867  0.4045
 9003TIP3   OH248423   1.335   0.693  12.904  0.1740 -0.7615  0.5941
 9003TIP3    H148424   1.246   0.663  12.887 -0.1957  0.4805  0.1859
 9003TIP3    H248425   1.391   0.631  12.858 -0.5095 -1.1494  0.2623
 9004TIP3   OH248426   1.096   3.166  14.493 -0.1087 -0.0988 -0.0389
 9004TIP3    H148427   1.178   3.135  14.455 -0.0316 -0.3046  0.2859
 9004TIP3    H248428   1.028   3.117  14.447  0.0314 -1.1235  0.7843
 9005TIP3   OH248429   1.684   5.014  14.232 -0.4874 -0.0328  0.3322
 9005TIP3    H148430   1.603   4.980  14.194 -0.0502 -0.1824 -0.4846
 9005TIP3    H248431   1.731   4.937  14.264 -0.0095 -0.1060 -0.5120
 9006TIP3   OH248432   4.776   3.903  16.081 -0.2268  0.4873 -0.1184
 9006TIP3    H148433   4.870   3.901  16.064 -0.4341  0.4536 -1.3624
 9006TIP3    H248434   4.738   3.847  16.013 -1.3373  2.3291 -1.1032
 9007TIP3   OH248435   2.269   6.272   0.019  0.0331  0.2697 -0.1269
 9007TIP3    H148436   2.226   6.357   0.027 -1.0093 -0.0974 -1.4389
 9007TIP3    H248437   2.363   6.292   0.013 -0.1788  1.2930 -0.0393
 9008TIP3   OH248438   2.762   2.629   1.805  0.4430  0.3602 -0.2997
 9008TIP3    H148439   2.775   2.579   1.885  0.5708 -0.6013 -0.9108
 9008TIP3    H248440   2.669   2.650   1.804  0.4941  0.6248  0.2382
 9009TIP3   OH248441   3.312   3.259   4.242  0.3346  0.4299  0.1251
 9009TIP3    H148442   3.329   3.249   4.149  1.3863  0.8803  0.2563
 9009TIP3    H248443   3.217   3.266   4.249  0.2339  0.0818 -0.8798
 9010TIP3   OH248444   5.766   5.071   3.404  0.3588 -0.2059  0.0266
 9010TIP3    H148445   5.786   5.101   3.316 -0.0109 -0.9047 -0.3059
 9010TIP3    H248446   5.801   5.139   3.461  0.2426  0.4539 -0.6699
 9011TIP3   OH248447   4.978   1.745  11.543  0.1654  0.2252  0.4119
 9011TIP3    H148448   4.894   1.736  11.499 -0.4352  0.2009  1.5074
 9011TIP3    H248449   5.039   1.773  11.475 -0.6188 -0.2573 -0.5030
 9012TIP3   OH248450   0.601   4.389  14.558 -0.1718  0.6183  0.4051
 9012TIP3    H148451   0.620   4.443  14.635  3.0044 -0.8811  0.8293
 9012TIP3    H248452   0.686   4.353  14.532 -1.7917 -2.5921 -1.0364
 9013TIP3   OH248453   6.467   5.528   0.814 -0.0316 -1.0917 -0.5038
 9013TIP3    H148454   6.438   5.449   0.859  1.2412 -0.9478  0.6533
 9013TIP3    H248455   6.425   5.524   0.728  1.6374 -4.1184 -1.3277
 9014TIP3   OH248456   2.315   5.543  17.087  0.2919 -0.1733 -0.2161
 9014TIP3    H148457   2.343   5.452  17.076  0.1330 -0.3249  0.5990
 9014TIP3    H248458   2.234   5.538  17.138 -0.3389  0.3663 -1.1325
 9015TIP3   OH248459   2.615   3.263  15.696 -0.2586  0.2193 -0.0003
 9015TIP3    H148460   2.704   3.248  15.663  0.4361  1.8279  1.0046
 9015TIP3    H248461   2.563   3.193  15.658  1.5032 -0.9437 -0.3791
 9016TIP3   OH248462   0.577   6.603   0.362 -0.5816 -0.1076  0.0003
 9016TIP3    H148463   0.555   6.538   0.429  0.3005 -0.6639 -0.2303
 9016TIP3    H248464   0.495   6.649   0.345 -1.3064 -1.3563 -0.0303
 9017TIP3   OH248465   3.285   0.787   0.936  0.3137 -0.4902 -0.1306
 9017TIP3    H148466   3.339   0.865   0.933 -0.1905 -0.1587 -0.6278
 9017TIP3    H248467   3.249   0.786   1.025 -2.0760  1.4994 -0.9806
 9018TIP3   OH248468   6.218   0.516  11.759 -0.1309  0.0400 -0.4548
 9018TIP3    H148469   6.256   0.436  11.795 -0.6796 -0.0546 -0.0758
 9018TIP3    H248470   6.133   0.524  11.802 -0.0451  0.8729 -0.4271
 9019TIP3   OH248471   2.420   3.232   4.712 -0.2200 -0.1465 -0.0144
 9019TIP3    H148472   2.351   3.228   4.646 -0.4183  0.5257  0.1476
 9019TIP3    H248473   2.397   3.307   4.767 -2.6278 -3.2171  3.6632
 9020TIP3   OH248474   6.075   2.544   1.965 -0.2000  0.6545 -0.3963
 9020TIP3    H148475   6.055   2.476   1.901 -1.2535 -0.2215  0.8132
 9020TIP3    H248476   6.126   2.499   2.033  0.5794  1.4829 -0.4042
 9021TIP3   OH248477   1.632   3.724   0.277 -0.4736 -0.0657 -0.3237
 9021TIP3    H148478   1.580   3.668   0.220 -1.7056  0.5370  0.1862
 9021TIP3    H248479   1.656   3.668   0.351  1.7130 -1.0604 -1.6623
 9022TIP3   OH248480   2.349   2.375  15.162 -0.3914 -0.2614 -0.5310
 9022TIP3    H148481   2.264   2.372  15.117 -0.2378  2.6162 -1.2204
 9022TIP3    H248482   2.391   2.455  15.128  0.2131  1.5556  3.8430
 9023TIP3   OH248483   6.327   5.994   2.684  0.2731 -0.3039 -0.0420
 9023TIP3    H148484   6.267   6.059   2.721 -0.2592 -1.4102  1.1357
 9023TIP3    H248485   6.387   6.045   2.629 -0.7604  1.0352  0.0023
 9024TIP3   OH248486   5.760   2.877  11.992 -0.1389  0.6294 -0.4433
 9024TIP3    H148487   5.834   2.937  11.982  0.8134 -0.4707 -0.2572
 9024TIP3    H248488   5.689   2.918  11.943  1.2030  0.7186 -2.4429
 9025TIP3   OH248489   5.451   6.333  13.355 -0.0948 -0.0548 -0.2410
 9025TIP3    H148490   5.470   6.389  13.280  0.7884 -0.3934 -0.2806
 9025TIP3    H248491   5.379   6.277  13.324 -0.7295  0.7866 -0.3221
 9026TIP3   OH248492   0.423   2.129   3.856 -0.2747  0.0422  0.2573
 9026TIP3    H148493   0.504   2.105   3.810  0.3905 -0.1961  1.5086
 9026TIP3    H248494   0.364   2.056   3.837  0.1576 -0.2999  0.1877
 9027TIP3   OH248495   5.036   5.501   6.124  0.3275 -0.9324  0.2424
 9027TIP3    H148496   4.981   5.453   6.063 -0.1897 -1.6573  1.2609
 9027TIP3    H248497   5.073   5.434   6.182  0.5940 -0.2390  0.8957
 9028TIP3   OH248498   3.095   2.488   3.430 -0.0257 -0.0774 -0.3362
 9028TIP3    H148499   3.049   2.501   3.347  0.3955  1.1554 -0.3918
 9028TIP3    H248500   3.032   2.515   3.497  0.2250  0.5721 -0.3553
 9029TIP3   OH248501   5.178   2.951  12.685 -0.0002 -0.5484  0.3652
 9029TIP3    H148502   5.176   2.972  12.591 -0.8285 -0.9430  0.2811
 9029TIP3    H248503   5.246   2.885  12.694  1.4887  0.9411  0.3692
 9030TIP3   OH248504   2.675   1.307   0.774 -0.0625  0.5381 -0.1505
 9030TIP3    H148505   2.659   1.300   0.868  1.4941  0.6175  0.1576
 9030TIP3    H248506   2.618   1.379   0.746 -0.5331  0.5327  0.7393
 9031TIP3   OH248507   0.899   1.886   1.315 -0.5266 -0.4401 -0.0728
 9031TIP3    H148508   0.870   1.977   1.307  0.4643 -0.0941  0.0150
 9031TIP3    H248509   0.832   1.844   1.369 -0.5767  0.4633  0.6048
 9032TIP3   OH248510   1.472   1.213   2.961  0.3304 -0.3921  0.6449
 9032TIP3    H148511   1.443   1.274   3.029 -0.3637 -1.1810  1.0696
 9032TIP3    H248512   1.451   1.257   2.878  0.7594  0.3728  0.9290
 9033TIP3   OH248513   4.839   1.414   2.060  0.2394  0.1052  0.3846
 9033TIP3    H148514   4.772   1.478   2.083 -0.8646 -0.5508 -0.8254
 9033TIP3    H248515   4.789   1.340   2.024  1.6503  0.3109 -2.2396
 9034TIP3   OH248516   0.347   4.511  12.438  0.1109  0.1480 -0.9445
 9034TIP3    H148517   0.298   4.471  12.510 -3.8445  2.3033 -2.0957
 9034TIP3    H248518   0.414   4.564  12.481 -0.6762 -0.3643  1.0312
 9035TIP3   OH248519   2.708   3.909   5.916  0.5246  0.0209  0.4330
 9035TIP3    H148520   2.709   3.969   5.990  1.3046 -0.4677  0.8394
 9035TIP3    H248521   2.761   3.835   5.945  0.6190 -0.2994 -0.5161
 9036TIP3   OH248522   6.211   6.465   5.634  0.1440 -0.1407 -0.0939
 9036TIP3    H148523   6.287   6.506   5.594  0.1290  1.6312  1.5352
 9036TIP3    H248524   6.157   6.435   5.561  1.7661 -0.2632 -1.2797
 9037TIP3   OH248525   6.490   4.979  13.123  0.3643 -0.0545  0.7021
 9037TIP3    H148526   6.533   4.893  13.122 -0.1634 -0.3266  1.1188
 9037TIP3    H248527   6.428   4.975  13.050  1.5005  0.5853 -0.3340
 9038TIP3   OH248528   5.699   6.751  15.695  0.5453  0.2371 -0.1809
 9038TIP3    H148529   5.741   6.690  15.756  0.8238  2.1581  1.6815
 9038TIP3    H248530   5.606   6.733  15.702  0.5967  0.2873  0.6617
 9039TIP3   OH248531   0.929   1.762  10.531 -0.4171 -0.7722  0.2069
 9039TIP3    H148532   1.002   1.762  10.469 -0.5850 -1.2132  0.0021
 9039TIP3    H248533   0.934   1.848  10.573  1.1705 -1.3695  1.3392
 9040TIP3   OH248534   1.830   5.082  11.939 -0.1269  0.0184  0.5481
 9040TIP3    H148535   1.740   5.103  11.964 -0.3391  1.5547 -1.2628
 9040TIP3    H248536   1.882   5.155  11.972  0.0233  0.5268 -0.7529
 9041TIP3   OH248537   2.571   2.281  13.088 -0.1801 -0.2402  0.0097
 9041TIP3    H148538   2.661   2.259  13.111 -1.2123 -2.4240  2.5531
 9041TIP3    H248539   2.565   2.264  12.994  1.7728 -1.2413  0.0188
 9042TIP3   OH248540   6.472   1.945  12.825  0.3159  0.3781  0.0144
 9042TIP3    H148541   6.472   2.030  12.869 -0.7002  0.3910  0.0123
 9042TIP3    H248542   6.559   1.910  12.841 -0.1548  0.1326  2.5254
 9043TIP3   OH248543   2.037   5.213  13.770  0.0868 -0.2187 -0.5903
 9043TIP3    H148544   2.084   5.167  13.840  0.7041 -0.7473 -1.3337
 9043TIP3    H248545   1.983   5.145  13.730 -0.6757  0.2030 -0.2848
 9044TIP3   OH248546   6.549   6.152   2.596  0.1987  0.1333 -0.2799
 9044TIP3    H148547   6.586   6.236   2.621  1.6684 -0.4518 -0.4271
 9044TIP3    H248548   6.571   6.142   2.503  1.3616 -1.0761  0.1082
 9045TIP3   OH248549   0.413   6.350  13.968 -0.1669 -0.2665  0.5476
 9045TIP3    H148550   0.472   6.400  14.024  3.1488 -0.2288 -2.6252
 9045TIP3    H248551   0.457   6.266  13.956 -2.4096 -1.5274  0.5072
 9046TIP3   OH248552   4.622   5.586  14.367  1.0784 -0.7723 -0.1675
 9046TIP3    H148553   4.562   5.661  14.366 -1.1386 -2.3075  2.8467
 9046TIP3    H248554   4.604   5.540  14.285  1.5469  1.2065 -1.4515
 9047TIP3   OH248555   1.431   0.816   5.015 -0.3457  0.0269  1.0350
 9047TIP3    H148556   1.523   0.842   5.015 -0.5661  0.9576 -0.4972
 9047TIP3    H248557   1.384   0.897   5.033 -0.9788  0.4758 -2.0068
 9048TIP3   OH248558   0.586   5.533  15.651  0.2754  0.0985 -0.8004
 9048TIP3    H148559   0.609   5.560  15.562  2.1560  1.8613  0.1336
 9048TIP3    H248560   0.646   5.461  15.671  0.6500  0.4634 -0.5859
 9049TIP3   OH248561   3.857   6.369  16.951  0.1217  0.4204 -0.0438
 9049TIP3    H148562   3.920   6.330  17.012 -0.2996 -1.0667 -0.4967
 9049TIP3    H248563   3.847   6.303  16.882 -1.7924  0.6447 -0.0535
 9050TIP3   OH248564   2.932   3.231  16.482 -0.9299  0.0141  0.0391
 9050TIP3    H148565   2.921   3.152  16.428 -0.8852 -0.5345  0.8182
 9050TIP3    H248566   3.020   3.223  16.519 -0.9499  0.4014  0.1755
 9051TIP3   OH248567   3.910   2.972   5.730 -0.1631  0.5457 -0.6701
 9051TIP3    H148568   3.850   3.006   5.663  0.3328  1.7459 -0.5335
 9051TIP3    H248569   3.875   2.886   5.752 -0.3381  0.1045 -2.4788
 9052TIP3   OH248570   4.161   1.559  12.490  0.5416 -0.6133  0.0817
 9052TIP3    H148571   4.213   1.481  12.469  1.5827  0.1313 -0.1975
 9052TIP3    H248572   4.226   1.623  12.518 -0.4066 -0.2285  1.5408
 9053TIP3   OH248573   2.569   5.155  11.080  1.0322 -0.5860 -0.0424
 9053TIP3    H148574   2.510   5.099  11.130 -0.7564  0.1854 -1.1568
 9053TIP3    H248575   2.568   5.238  11.128  2.8877 -1.1451  1.0564
 9054TIP3   OH248576   2.096   0.635  13.943 -0.6180 -0.3573 -0.2428
 9054TIP3    H148577   2.094   0.706  13.879  0.8050 -1.3569 -1.4876
 9054TIP3    H248578   2.185   0.637  13.978 -0.0124 -2.3762 -1.4258
 9055TIP3   OH248579   3.688   0.416   4.610 -0.2610  0.6590  0.6178
 9055TIP3    H148580   3.675   0.410   4.705 -0.5213 -0.4351  0.5197
 9055TIP3    H248581   3.641   0.342   4.574  3.0494 -1.3210 -0.0396
 9056TIP3   OH248582   1.469   2.292  14.539 -0.4561 -0.5233  0.4882
 9056TIP3    H148583   1.443   2.257  14.453  0.3262 -0.4676  0.2108
 9056TIP3    H248584   1.479   2.386  14.524  0.1686 -0.5822  0.5020
 9057TIP3   OH248585   5.848   0.136   4.521  0.3781 -0.5258 -0.6701
 9057TIP3    H148586   5.857   0.224   4.486  1.6917 -1.1055 -1.9134
 9057TIP3    H248587   5.906   0.133   4.597 -0.6828  0.0552  0.1737
 9058TIP3   OH248588   2.935   0.900  15.963 -0.0591 -0.1245 -0.1602
 9058TIP3    H148589   2.973   0.957  15.896 -2.4297  0.5399 -1.0305
 9058TIP3    H248590   2.896   0.828  15.914 -1.6951  0.2832  0.4758
 9059TIP3   OH248591   0.424   5.468   0.011 -0.3470  0.6912 -0.1564
 9059TIP3    H148592   0.408   5.532   0.080 -0.1012  0.2680  0.3042
 9059TIP3    H248593   0.520   5.460   0.008 -0.4020 -0.7676  0.8579
 9060TIP3   OH248594   1.312   3.162   1.812 -0.4516 -0.0700  0.0046
 9060TIP3    H148595   1.276   3.185   1.726  0.4948 -1.9040 -0.9512
 9060TIP3    H248596   1.404   3.187   1.806 -0.5327  0.4109  0.7423
 9061TIP3   OH248597   5.169   5.086  11.445  0.3937  0.1312  0.3100
 9061TIP3    H148598   5.118   5.044  11.376 -0.3000 -0.4329  1.1326
 9061TIP3    H248599   5.103   5.122  11.505  0.9744  1.9515 -0.0888
 9062TIP3   OH248600   6.720   4.557   5.641 -0.4099  0.5818 -0.3548
 9062TIP3    H148601   6.746   4.630   5.585 -1.7003  0.7935 -0.7206
 9062TIP3    H248602   6.637   4.586   5.680 -1.3934 -0.9822 -1.1645
 9063TIP3   OH248603   0.957   5.236   3.495 -0.3290 -0.5240 -0.2464
 9063TIP3    H148604   0.956   5.250   3.401 -0.7333  0.5832 -0.0855
 9063TIP3    H248605   0.973   5.323   3.533  2.4050 -1.2902  0.6507
 9064TIP3   OH248606   6.512   4.130  13.909  0.0800  0.1019 -0.1476
 9064TIP3    H148607   6.596   4.177  13.905  0.9172 -1.0957  1.6453
 9064TIP3    H248608   6.517   4.066  13.839  0.4256  0.4276 -0.4247
 9065TIP3   OH248609   0.836   3.035   3.872 -0.5115  0.4265 -0.2369
 9065TIP3    H148610   0.906   3.074   3.924  0.5729 -0.8326 -0.6867
 9065TIP3    H248611   0.775   3.107   3.854  0.7095  1.5691  0.1023
 9066TIP3   OH248612   0.348   6.241  10.840  0.4832 -0.1812 -0.2541
 9066TIP3    H148613   0.280   6.277  10.897  0.8823  0.0533  0.0770
 9066TIP3    H248614   0.359   6.151  10.871  1.2966  0.1995  0.6062
 9067TIP3   OH248615   2.569   0.797  13.601 -0.5783 -0.2114  0.7140
 9067TIP3    H148616   2.642   0.734  13.604  0.8751  1.2547 -1.4294
 9067TIP3    H248617   2.606   0.878  13.635 -0.3761  1.1918 -2.4774
 9068TIP3   OH248618   5.533   6.265   4.219 -0.1059  0.3009 -0.5691
 9068TIP3    H148619   5.592   6.333   4.248  0.2969 -0.3801  0.2611
 9068TIP3    H248620   5.580   6.220   4.149 -0.5388  1.1107 -1.4038
 9069TIP3   OH248621   4.246   1.673   3.678  0.2442 -0.0851 -0.0116
 9069TIP3    H148622   4.205   1.738   3.735  0.5107  0.7013 -0.7052
 9069TIP3    H248623   4.334   1.708   3.662  0.2275 -0.3872 -0.7714
 9070TIP3   OH248624   6.299   4.902  12.946  0.2270 -0.0756 -0.0190
 9070TIP3    H148625   6.227   4.880  12.886  0.3879  2.3505 -1.2407
 9070TIP3    H248626   6.298   4.832  13.011 -3.3624 -0.0923  0.1261
 9071TIP3   OH248627   1.795   0.661   2.447  0.2648 -0.3027  0.1774
 9071TIP3    H148628   1.863   0.721   2.417  0.3315  1.5686  3.6261
 9071TIP3    H248629   1.718   0.716   2.461 -0.9003 -1.7613 -0.2016
 9072TIP3   OH248630   3.654   1.258   3.478  0.1698  0.0165  0.2850
 9072TIP3    H148631   3.633   1.173   3.441  0.4645 -0.0586  0.2914
 9072TIP3    H248632   3.749   1.259   3.485  0.1682  0.3526  0.2713
 9073TIP3   OH248633   3.336   4.436  13.906 -0.4723  0.0009 -0.0878
 9073TIP3    H148634   3.284   4.471  13.978 -0.6306 -1.3975  0.5268
 9073TIP3    H248635   3.308   4.344  13.899  2.1454 -0.9216  0.5236
 9074TIP3   OH248636   1.738   3.270   0.688 -0.0354  0.1103  0.3113
 9074TIP3    H148637   1.782   3.219   0.619 -2.3963 -0.0459 -1.1822
 9074TIP3    H248638   1.729   3.358   0.651 -2.2694 -0.2381 -0.1022
 9075TIP3   OH248639   6.295   4.506  16.797 -0.3677  0.5439  0.7371
 9075TIP3    H148640   6.389   4.509  16.778 -0.3292  0.9726  0.9744
 9075TIP3    H248641   6.266   4.596  16.786 -1.1849  0.0696 -1.4147
 9076TIP3   OH248642   0.858   4.106  15.226 -0.1090 -0.5967 -0.1317
 9076TIP3    H148643   0.772   4.075  15.196  0.2538 -1.3380 -0.4327
 9076TIP3    H248644   0.901   4.134  15.146 -0.1694  0.0376  0.0557
 9077TIP3   OH248645   4.363   0.758   5.213  0.6987 -0.2937  0.3555
 9077TIP3    H148646   4.360   0.852   5.192 -0.3815 -0.2471  0.6507
 9077TIP3    H248647   4.284   0.722   5.172  0.6110 -0.9038  1.0480
 9078TIP3   OH248648   2.958   1.924   4.852  0.0524  0.1524  0.2590
 9078TIP3    H148649   2.890   1.960   4.795  0.0004  0.0055  0.2280
 9078TIP3    H248650   2.980   1.839   4.812 -2.1012 -1.3801  2.0794
 9079TIP3   OH248651   5.051   3.893  16.098  0.1921  0.3951  0.0648
 9079TIP3    H148652   5.136   3.862  16.068 -0.2288  0.1499 -0.9256
 9079TIP3    H248653   5.052   3.880  16.193  1.0385 -0.1204 -0.0083
 9080TIP3   OH248654   5.482   3.020   4.154 -0.1943  0.3228 -0.1625
 9080TIP3    H148655   5.483   2.993   4.062 -0.4311  0.4972 -0.2157
 9080TIP3    H248656   5.453   2.943   4.202 -1.6930  0.7233 -0.3946
 9081TIP3   OH248657   4.428   0.067   4.235 -0.1993  0.0257  0.3483
 9081TIP3    H148658   4.412   0.088   4.143 -0.1572 -1.3740 -0.0015
 9081TIP3    H248659   4.408   0.148   4.282 -0.1268  0.7952 -0.8962
 9082TIP3   OH248660   5.095   3.897  14.456 -0.2811  0.1989 -0.0305
 9082TIP3    H148661   5.186   3.867  14.457 -0.0391  0.8787 -0.7551
 9082TIP3    H248662   5.051   3.835  14.399  0.3833  1.5648 -2.1808
 9083TIP3   OH248663   2.135   4.501   5.925  0.2359 -0.2466 -0.1802
 9083TIP3    H148664   2.156   4.540   6.009 -2.4331  0.6729  0.1661
 9083TIP3    H248665   2.178   4.557   5.860 -0.1162  0.8228  0.4847
 9084TIP3   OH248666   6.709   1.397  15.083  0.4661 -0.1528 -0.4993
 9084TIP3    H148667   6.748   1.357  15.161 -1.5856 -3.8929 -1.1683
 9084TIP3    H248668   6.746   1.349  15.010 -1.0132  0.1615 -1.5038
 9085TIP3   OH248669   4.215   2.759   2.431  0.7713  0.5763 -0.2268
 9085TIP3    H148670   4.194   2.827   2.367  0.6867  1.3279  0.5656
 9085TIP3    H248671   4.133   2.711   2.443  1.5287 -1.6367 -2.9736
 9086TIP3   OH248672   1.856   0.506  13.970 -0.1807  0.4494 -0.0769
 9086TIP3    H148673   1.938   0.556  13.974 -0.5477  1.0031  0.8992
 9086TIP3    H248674   1.845   0.486  13.877  0.4779  1.3456 -0.3691
 9087TIP3   OH248675   2.737   1.001   0.094 -0.6604 -0.5515 -0.0332
 9087TIP3    H148676   2.826   1.000   0.130 -0.5244 -0.3776 -0.3643
 9087TIP3    H248677   2.741   1.064   0.022 -1.0899 -0.4303  0.0475
 9088TIP3   OH248678   2.945   4.777  12.940 -0.2097 -0.3613  0.4398
 9088TIP3    H148679   2.873   4.836  12.964 -0.7052 -1.1108  0.8643
 9088TIP3    H248680   3.011   4.791  13.008 -0.8382 -1.1493  1.2386
 9089TIP3   OH248681   2.153   4.052   1.246  0.0906 -0.0880 -0.2033
 9089TIP3    H148682   2.099   4.028   1.321  0.4145 -2.0418 -0.5291
 9089TIP3    H248683   2.235   4.084   1.283 -0.1524 -0.0179  0.2780
 9090TIP3   OH248684   6.392   6.138  13.038 -0.0147  0.4459  0.0709
 9090TIP3    H148685   6.366   6.202  13.104  0.5502 -0.4833  1.2242
 9090TIP3    H248686   6.310   6.109  12.999 -0.2735  1.9241 -0.5499
 9091TIP3   OH248687   2.762   3.531  15.909  0.0642  0.2633  0.2719
 9091TIP3    H148688   2.685   3.473  15.906 -0.6291  1.1061  1.1483
 9091TIP3    H248689   2.736   3.607  15.857  0.9088 -0.1153 -0.7347
 9092TIP3   OH248690   3.323   6.222  15.714  0.4744 -0.2784 -0.0870
 9092TIP3    H148691   3.284   6.296  15.761  1.1147 -0.0126  0.0430
 9092TIP3    H248692   3.366   6.171  15.782 -2.0984 -2.2306  0.2308
 9093TIP3   OH248693   2.960   4.525  17.225  0.4746  0.1469 -0.4966
 9093TIP3    H148694   2.938   4.502  17.135 -0.0497  0.7337 -0.5249
 9093TIP3    H248695   2.937   4.618  17.233  4.3083  1.3373 -0.9724
 9094TIP3   OH248696   0.562   0.161  16.528  0.3311 -0.1947 -0.1148
 9094TIP3    H148697   0.618   0.084  16.526 -0.2125 -0.6312 -2.9182
 9094TIP3    H248698   0.481   0.131  16.568 -0.1117 -1.3263 -1.7684
 9095TIP3   OH248699   3.215   6.394  13.632 -0.3081  0.0089  0.1037
 9095TIP3    H148700   3.154   6.320  13.628  1.5080 -1.6241  0.7873
 9095TIP3    H248701   3.191   6.450  13.559 -1.2975 -1.6366 -0.8845
 9096TIP3   OH248702   3.180   2.010   3.457 -0.1110 -0.4502 -0.3157
 9096TIP3    H148703   3.180   1.937   3.519 -0.6495 -0.5570 -0.4385
 9096TIP3    H248704   3.273   2.032   3.446  0.1720 -1.9780 -1.2771
 9097TIP3   OH248705   4.861   1.782   5.965 -0.4814 -0.6136  0.4625
 9097TIP3    H148706   4.941   1.734   5.988  1.5587  2.4672  0.3216
 9097TIP3    H248707   4.849   1.844   6.036 -2.1578 -0.2657 -0.0833
 9098TIP3   OH248708   6.163   3.735  16.391 -0.3077  0.1247 -0.6110
 9098TIP3    H148709   6.242   3.744  16.444 -0.2457 -0.0241 -0.6798
 9098TIP3    H248710   6.144   3.825  16.362 -1.0985  0.4302  0.7507
 9099TIP3   OH248711   3.588   0.210  16.134 -0.2012 -0.6841 -0.4984
 9099TIP3    H148712   3.558   0.161  16.057 -1.4166  0.5860 -0.8788
 9099TIP3    H248713   3.530   0.181  16.205 -0.7655  0.0020 -0.6693
 9100TIP3   OH248714   0.700   3.620   5.042 -0.2137  0.3169  0.0695
 9100TIP3    H148715   0.630   3.598   5.104  0.2308 -0.4400  0.3143
 9100TIP3    H248716   0.778   3.630   5.097  0.2563 -0.7006 -0.3890
 9101TIP3   OH248717   0.073   4.605  14.490 -0.0082 -0.2123 -0.0172
 9101TIP3    H148718   0.165   4.585  14.474 -0.3921 -2.4466  0.2053
 9101TIP3    H248719   0.031   4.597  14.405 -0.0010  0.8585 -0.1283
 9102TIP3   OH248720   5.883   3.426   0.048  0.2689 -0.4364 -0.5028
 9102TIP3    H148721   5.959   3.471   0.084 -1.3565  2.4443 -0.4288
 9102TIP3    H248722   5.830   3.402   0.124 -0.2643  0.1812 -0.6719
 9103TIP3   OH248723   3.275   5.207   2.188 -0.0731 -0.4418 -0.0378
 9103TIP3    H148724   3.339   5.277   2.175 -0.8685  1.0755  3.1543
 9103TIP3    H248725   3.328   5.129   2.203  0.8893 -0.1103 -1.4903
 9104TIP3   OH248726   1.646   6.081  13.238  0.5225 -0.0686  0.1212
 9104TIP3    H148727   1.731   6.044  13.218  1.1189  1.0819  0.4368
 9104TIP3    H248728   1.593   6.067  13.159  0.6906 -1.6181  0.2595
 9105TIP3   OH248729   3.922   1.022   5.009 -0.4013 -0.5038  0.2171
 9105TIP3    H148730   3.961   1.095   5.057 -0.5260 -0.1242 -0.2559
 9105TIP3    H248731   3.996   0.980   4.965 -0.0625 -1.7135  1.8313
 9106TIP3   OH248732   0.982   0.364   5.594  0.3930  0.1277  0.4451
 9106TIP3    H148733   0.989   0.339   5.686 -0.2193 -0.5481  0.3191
 9106TIP3    H248734   0.930   0.444   5.595 -1.3864 -0.9802  0.5636
 9107TIP3   OH248735   0.708   1.763   1.483  0.2606  0.1893  0.7539
 9107TIP3    H148736   0.688   1.671   1.496 -1.0118  0.4707  0.9384
 9107TIP3    H248737   0.637   1.796   1.430  0.7914  1.0373  0.5475
 9108TIP3   OH248738   3.584   6.019   4.715  0.7698  0.1693  0.1975
 9108TIP3    H148739   3.490   6.005   4.720  0.7237  0.4799  0.2270
 9108TIP3    H248740   3.597   6.060   4.629  0.8350  0.4431  0.3366
 9109TIP3   OH248741   0.360   4.580  12.166 -0.1137  0.2891  0.0427
 9109TIP3    H148742   0.318   4.513  12.112 -2.9672  1.5197  0.5402
 9109TIP3    H248743   0.338   4.556  12.256  1.6641  0.1381  0.4695
 9110TIP3   OH248744   1.630   5.459   3.126 -0.0040 -0.3016  0.1109
 9110TIP3    H148745   1.707   5.513   3.144 -0.5631  0.3364  0.6678
 9110TIP3    H248746   1.556   5.517   3.144 -0.6164 -0.8428 -0.6081
 9111TIP3   OH248747   3.243   5.084  12.529 -0.1831 -0.1324 -0.4737
 9111TIP3    H148748   3.191   5.150  12.483 -0.7503 -0.0268  0.3095
 9111TIP3    H248749   3.185   5.050  12.597  0.6503 -0.2615  0.1905
 9112TIP3   OH248750   6.048   4.577  11.880 -0.1279 -0.6633  0.1793
 9112TIP3    H148751   6.072   4.556  11.790 -0.4321 -0.8837  0.1479
 9112TIP3    H248752   6.120   4.630  11.913  1.6722 -3.3762  0.8954
 9113TIP3   OH248753   1.150   6.176   1.558 -0.4452  0.3973  0.3877
 9113TIP3    H148754   1.167   6.096   1.507  0.4109  0.1168  1.0656
 9113TIP3    H248755   1.058   6.171   1.581 -0.6480  0.1266 -0.4557
 9114TIP3   OH248756   1.815   4.908   1.254  0.2274  0.2007 -0.1120
 9114TIP3    H148757   1.793   4.953   1.335  0.4469  1.4087 -0.7049
 9114TIP3    H248758   1.732   4.869   1.225 -0.1961  1.0706 -0.1008
 9115TIP3   OH248759   5.185   6.674  14.550  0.1251 -0.4060  0.1077
 9115TIP3    H148760   5.222   6.598  14.595  1.5850  0.1088 -0.1554
 9115TIP3    H248761   5.209   6.748  14.605 -0.3627 -0.0271 -0.1850
 9116TIP3   OH248762   3.749   0.480  11.416  0.8957 -0.5616 -0.1739
 9116TIP3    H148763   3.661   0.454  11.444  1.1034 -0.7330  0.3401
 9116TIP3    H248764   3.742   0.574  11.399  1.0974 -0.1109  1.9251
 9117TIP3   OH248765   5.579   2.459  12.769  0.1526  0.6775  0.2471
 9117TIP3    H148766   5.635   2.531  12.738  1.6938  0.1944  1.7593
 9117TIP3    H248767   5.627   2.380  12.745 -0.1719  0.2255  1.0703
 9118TIP3   OH248768   0.115   0.613  15.924 -0.3450  0.4433 -0.4283
 9118TIP3    H148769   0.078   0.697  15.898  1.6655  1.3035 -0.6985
 9118TIP3    H248770   0.176   0.591  15.854 -1.9077 -2.0439 -1.1260
 9119TIP3   OH248771   3.438   4.359  10.723 -0.1011  0.0762 -0.5432
 9119TIP3    H148772   3.447   4.264  10.720 -1.3879 -0.0578 -0.3639
 9119TIP3    H248773   3.427   4.385  10.632 -2.8440 -0.2876 -0.3740
 9120TIP3   OH248774   4.116   1.805   0.364  0.0251  0.8296  0.1294
 9120TIP3    H148775   4.200   1.825   0.403  0.4065  0.0358 -0.2447
 9120TIP3    H248776   4.118   1.849   0.279  0.6906 -0.3642 -0.5130
 9121TIP3   OH248777   5.007   0.723  16.919 -0.5776 -0.1812 -0.6699
 9121TIP3    H148778   5.067   0.711  16.846  1.7056  2.3389  0.6024
 9121TIP3    H248779   4.980   0.815  16.912 -1.1809 -0.2026  1.0121
 9122TIP3   OH248780   0.881   3.658   2.694  0.2049  0.1251 -0.1207
 9122TIP3    H148781   0.818   3.586   2.691 -1.3566  1.4305 -0.2843
 9122TIP3    H248782   0.848   3.721   2.630  0.6509  1.6547  1.0981
 9123TIP3   OH248783   4.188   2.123  15.634 -0.0029 -0.2441  0.4939
 9123TIP3    H148784   4.200   2.186  15.564  3.5986 -2.1357 -0.8298
 9123TIP3    H248785   4.207   2.172  15.715  3.9076  0.2761 -0.5668
 9124TIP3   OH248786   3.973   6.432  16.163 -0.0197  0.3351 -0.4169
 9124TIP3    H148787   3.994   6.489  16.089 -1.0433 -0.3522 -1.2483
 9124TIP3    H248788   3.994   6.344  16.133  0.9012  0.1724  0.6282
 9125TIP3   OH248789   3.428   6.495  14.937  0.1478 -0.0228  0.1084
 9125TIP3    H148790   3.474   6.559  14.883  0.5286 -1.0387 -0.8003
 9125TIP3    H248791   3.336   6.510  14.917  0.2844 -0.4319 -0.9018
 9126TIP3   OH248792   3.901   4.846  10.794  1.3927 -0.2159  0.1046
 9126TIP3    H148793   3.818   4.892  10.809  1.5270 -0.2915  1.1534
 9126TIP3    H248794   3.968   4.910  10.819  1.6808  0.0175 -1.2030
 9127TIP3   OH248795   5.981   1.765   1.788  0.3283 -0.4810 -0.1227
 9127TIP3    H148796   5.914   1.792   1.726  0.7534  0.0215 -0.3691
 9127TIP3    H248797   5.959   1.812   1.869 -0.2217 -1.1325  0.1151
 9128TIP3   OH248798   4.917   2.962  13.193  0.0417  0.0152  0.9951
 9128TIP3    H148799   4.947   2.933  13.107 -1.5846  0.4959  0.2423
 9128TIP3    H248800   4.990   2.940  13.252  0.8299 -1.1151 -0.3391
 9129TIP3   OH248801   0.057   3.698  15.386 -0.0852  0.0097 -0.0262
 9129TIP3    H148802   0.143   3.668  15.357 -0.7370 -1.4289 -0.5568
 9129TIP3    H248803   0.053   3.790  15.357  0.6952 -0.3382 -1.3356
 9130TIP3   OH248804   1.332   0.305   0.568  0.1456 -0.1912  0.7848
 9130TIP3    H148805   1.287   0.224   0.594  0.4775 -0.2281  1.2605
 9130TIP3    H248806   1.332   0.358   0.647 -2.4801  1.4469 -0.1743
 9131TIP3   OH248807   4.937   3.979  13.070 -0.1853 -0.4913  0.0454
 9131TIP3    H148808   4.938   3.894  13.027  0.0228  0.1304 -1.2287
 9131TIP3    H248809   4.857   4.021  13.038  0.3666  0.2840 -0.3303
 9132TIP3   OH248810   0.700   3.225  14.397 -0.2584  0.4693 -0.4301
 9132TIP3    H148811   0.626   3.285  14.410  0.2697  0.9348  0.5527
 9132TIP3    H248812   0.743   3.259  14.318  0.2865  1.6841  0.3545
 9133TIP3   OH248813   0.346   1.722   4.004  0.3095  0.2260 -0.5894
 9133TIP3    H148814   0.269   1.767   4.039  1.1466  1.1048  0.1806
 9133TIP3    H248815   0.312   1.640   3.968 -0.8566  0.1997  0.5163
 9134TIP3   OH248816   6.518   4.543  15.018  0.2066  0.0789  0.5114
 9134TIP3    H148817   6.556   4.473  15.071 -0.1175 -2.0029 -1.8160
 9134TIP3    H248818   6.592   4.601  14.999  0.6243  0.0579  1.9464
 9135TIP3   OH248819   6.207   5.158  11.942 -0.3780 -0.2550  0.5623
 9135TIP3    H148820   6.195   5.234  11.999  0.7621  0.4056 -0.0414
 9135TIP3    H248821   6.302   5.148  11.935 -0.5026 -1.8691  0.7832
 9136TIP3   OH248822   1.775   2.309  16.931  0.5586  0.1202  0.3101
 9136TIP3    H148823   1.752   2.242  16.867  0.3232 -0.6004  1.1259
 9136TIP3    H248824   1.770   2.264  17.016 -0.5101  1.3926  0.9570
 9137TIP3   OH248825   6.365   6.189  11.868 -0.4062 -0.1269 -0.2871
 9137TIP3    H148826   6.434   6.126  11.888 -0.0880  0.0753 -0.7153
 9137TIP3    H248827   6.393   6.229  11.785 -1.0148 -0.0088 -0.4378
 9138TIP3   OH248828   1.173   3.335  17.038  0.1269  0.0936  0.2398
 9138TIP3    H148829   1.238   3.405  17.049 -0.8153  0.9765  0.3495
 9138TIP3    H248830   1.222   3.262  17.000  0.5320  1.8302 -2.8414
 9139TIP3   OH248831   5.531   6.278   5.238  0.8599 -0.0962 -0.1658
 9139TIP3    H148832   5.448   6.264   5.194  0.9414  1.3031 -0.8210
 9139TIP3    H248833   5.567   6.190   5.251 -1.2392 -0.8091  1.2266
 9140TIP3   OH248834   1.939   3.293  11.384 -0.2837  0.3360 -0.3965
 9140TIP3    H148835   1.986   3.213  11.406  0.9300  1.1157 -0.0623
 9140TIP3    H248836   1.962   3.310  11.292 -2.2653 -0.8300 -1.1644
 9141TIP3   OH248837   4.905   4.878  12.887 -0.1602  0.8966  0.4992
 9141TIP3    H148838   4.852   4.810  12.846  1.4351  1.2897 -2.5068
 9141TIP3    H248839   4.843   4.948  12.907 -1.2587  0.0804  0.0351
 9142TIP3   OH248840   0.357   5.446   4.633  0.2968  0.0306  0.2406
 9142TIP3    H148841   0.408   5.367   4.619 -0.1891 -0.4180  0.9437
 9142TIP3    H248842   0.416   5.504   4.681  0.5249 -0.0422  0.0539
 9143TIP3   OH248843   5.085   4.836   4.578  0.9399 -0.0462 -0.5984
 9143TIP3    H148844   5.045   4.776   4.516  1.5136  1.4073 -2.4621
 9143TIP3    H248845   5.011   4.879   4.621  0.5378 -0.9262 -0.3860
 9144TIP3   OH248846   6.059   3.831  12.225  0.3304 -0.5761 -0.2217
 9144TIP3    H148847   5.982   3.783  12.196 -0.8421  0.5904  0.8790
 9144TIP3    H248848   6.081   3.793  12.310  0.0105  0.1630  0.1892
 9145TIP3   OH248849   4.911   2.634  13.698  0.0712  0.4741  0.2247
 9145TIP3    H148850   4.872   2.663  13.780 -0.1375  0.4939  0.1179
 9145TIP3    H248851   4.989   2.585  13.725 -1.1741 -1.4131  0.5599
 9146TIP3   OH248852   2.218   4.632  13.671  0.2382  0.3219 -0.2590
 9146TIP3    H148853   2.296   4.591  13.634 -0.0318 -0.0097 -0.4611
 9146TIP3    H248854   2.202   4.708  13.614 -0.3292 -0.3337 -1.0043
 9147TIP3   OH248855   1.348   2.325   0.935 -0.4533  0.0835 -0.7066
 9147TIP3    H148856   1.302   2.247   0.902  0.9500 -1.2960  0.4453
 9147TIP3    H248857   1.412   2.345   0.867  0.4306 -0.9337 -0.1991
 9148TIP3   OH248858   3.538   4.373   1.931 -0.0749 -0.6252 -0.0489
 9148TIP3    H148859   3.571   4.460   1.953  0.7631 -0.6905 -1.0087
 9148TIP3    H248860   3.447   4.374   1.960  0.3436  0.0589  1.2930
 9149TIP3   OH248861   4.123   4.250  15.801  0.2299  0.1421 -0.0874
 9149TIP3    H148862   4.069   4.180  15.765 -1.1946  1.4538 -0.6101
 9149TIP3    H248863   4.201   4.205  15.834 -0.9185 -1.7717  0.2232
 9150TIP3   OH248864   0.519   0.815   3.981 -0.2716  0.1372  0.2164
 9150TIP3    H148865   0.446   0.767   4.019 -0.4268 -0.3619 -0.6826
 9150TIP3    H248866   0.568   0.848   4.056 -1.0159 -0.1294  0.8332
 9151TIP3   OH248867   5.250   5.619  15.036  0.8286 -0.4444 -0.6440
 9151TIP3    H148868   5.247   5.584  14.947  0.5848 -1.3868 -0.2720
 9151TIP3    H248869   5.165   5.660  15.050  1.0295  0.1008 -0.9976
 9152TIP3   OH248870   3.636   2.524   3.602 -0.5075  0.4889 -0.8168
 9152TIP3    H148871   3.545   2.533   3.573 -0.2141  0.6841 -1.7050
 9152TIP3    H248872   3.647   2.430   3.618 -1.4892  0.6869  1.4878
 9153TIP3   OH248873   4.121   6.635   0.518  0.2843 -0.3210  0.1753
 9153TIP3    H148874   4.080   6.704   0.465  1.1808 -0.4181 -0.6735
 9153TIP3    H248875   4.069   6.557   0.500 -0.7053  0.0992  1.0990
 9154TIP3   OH248876   4.424   3.619  11.751  0.3829 -0.5730  0.2928
 9154TIP3    H148877   4.498   3.570  11.787 -0.7483 -2.3119  0.3148
 9154TIP3    H248878   4.387   3.665  11.826 -1.4894 -3.5633  1.3659
 9155TIP3   OH248879   4.148   0.128  14.857  0.3280  0.7307 -0.8535
 9155TIP3    H148880   4.151   0.066  14.784 -0.0411  0.5092 -0.6787
 9155TIP3    H248881   4.239   0.156  14.867  0.7648 -0.8291 -0.0433
 9156TIP3   OH248882   0.284   2.760   0.697  0.3794  0.1225  0.0677
 9156TIP3    H148883   0.307   2.805   0.616  0.6340  0.7781  0.4997
 9156TIP3    H248884   0.323   2.813   0.766  0.6268 -0.7250  0.5924
 9157TIP3   OH248885   3.570   6.672  13.215  0.0104 -0.3012  0.2720
 9157TIP3    H148886   3.638   6.627  13.164  0.8153 -0.0575  1.0890
 9157TIP3    H248887   3.595   6.765  13.210 -0.4258 -0.1809  0.3466
 9158TIP3   OH248888   5.825   4.268  12.516 -0.3178  0.5194  0.8012
 9158TIP3    H148889   5.764   4.203  12.480  1.4177 -1.0359  0.4941
 9158TIP3    H248890   5.816   4.344  12.458 -2.3892  0.5975  1.1525
 9159TIP3   OH248891   2.440   4.171   0.635  0.5585  0.6229  0.4027
 9159TIP3    H148892   2.501   4.198   0.567  1.0864  0.1737  0.6928
 9159TIP3    H248893   2.375   4.118   0.589  0.1957  1.3588  0.0394
 9160TIP3   OH248894   4.979   5.743  15.724  0.1904 -0.4896  0.8969
 9160TIP3    H148895   4.948   5.793  15.799 -0.6476 -1.1719  1.0226
 9160TIP3    H248896   4.973   5.803  15.650  1.0668  0.2028  1.3674
 9161TIP3   OH248897   6.651   5.559   1.020 -0.0255  0.3319  0.4086
 9161TIP3    H148898   6.656   5.467   1.048  0.8429  0.3545  0.3361
 9161TIP3    H248899   6.591   5.556   0.944  1.9212 -0.5926 -1.1925
 9162TIP3   OH248900   0.292   5.521  15.892 -0.3874  0.6772 -0.1363
 9162TIP3    H148901   0.303   5.514  15.797  2.1850  1.9766 -0.0124
 9162TIP3    H248902   0.207   5.564  15.903 -0.8377  0.3232 -1.7963
 9163TIP3   OH248903   1.977   1.579   0.845  0.1459  0.3315 -0.2119
 9163TIP3    H148904   2.016   1.644   0.903 -0.2413  0.4644 -0.0920
 9163TIP3    H248905   1.886   1.574   0.874  0.7036 -2.0507  1.3802
 9164TIP3   OH248906   2.925   1.938  10.414  0.0487 -0.0558  0.7008
 9164TIP3    H148907   2.913   2.007  10.478  0.4319 -0.2329  0.9664
 9164TIP3    H248908   2.937   1.983  10.330 -2.2963  0.1456  0.4220
 9165TIP3   OH248909   6.549   2.090   0.825  0.3298 -0.5648  0.7790
 9165TIP3    H148910   6.491   2.162   0.850 -0.6195 -0.4110 -1.5943
 9165TIP3    H248911   6.549   2.031   0.901 -1.0610  0.5993  1.7221
 9166TIP3   OH248912   6.539   5.302  16.739 -0.3127 -0.4947 -0.2170
 9166TIP3    H148913   6.507   5.389  16.715 -1.1213 -0.6222  0.3693
 9166TIP3    H248914   6.609   5.320  16.803 -1.0041 -0.2894  0.4972
 9167TIP3   OH248915   1.142   2.670  13.600  0.0591  0.7473  0.4691
 9167TIP3    H148916   1.229   2.655  13.636  0.6324 -0.3484 -1.2739
 9167TIP3    H248917   1.139   2.617  13.520 -1.4460  2.3758 -0.6421
 9168TIP3   OH248918   1.796   1.298  12.604  0.1564 -0.1450 -0.6560
 9168TIP3    H148919   1.838   1.354  12.670 -0.5174 -0.2142 -0.1523
 9168TIP3    H248920   1.830   1.210  12.621  1.3803  0.1241 -1.5838
 9169TIP3   OH248921   2.552   0.480  14.895 -0.0176  0.4898  0.4944
 9169TIP3    H148922   2.581   0.391  14.915  1.1090  0.3461 -1.4477
 9169TIP3    H248923   2.456   0.475  14.898  0.0165 -0.8815  0.1184
 9170TIP3   OH248924   3.416   4.202  16.193  0.4029 -0.3190 -0.2599
 9170TIP3    H148925   3.424   4.220  16.287 -0.0433  0.6416 -0.3924
 9170TIP3    H248926   3.495   4.152  16.171  0.9697  0.2399  0.4462
 9171TIP3   OH248927   3.426   4.007  11.550 -0.8121  0.0148 -0.0068
 9171TIP3    H148928   3.489   4.071  11.585 -2.3117  1.2955  0.4633
 9171TIP3    H248929   3.447   4.001  11.457 -0.6450  1.2252 -0.0608
 9172TIP3   OH248930   2.360   4.248   1.380  0.3601  0.3157  0.5157
 9172TIP3    H148931   2.351   4.263   1.474 -1.4882 -0.7143  0.5346
 9172TIP3    H248932   2.454   4.236   1.367  0.4584 -1.8591  2.6215
 9173TIP3   OH248933   5.493   0.412   5.392 -0.2976  0.2246  0.0974
 9173TIP3    H148934   5.536   0.443   5.472 -1.6222  0.9008  0.5723
 9173TIP3    H248935   5.524   0.322   5.381  0.6404  0.4407  0.8335
 9174TIP3   OH248936   6.065   6.041  13.313  0.1388 -0.5990  0.2065
 9174TIP3    H148937   6.091   5.984  13.241  0.5935 -2.1880  1.5501
 9174TIP3    H248938   5.995   6.095  13.277 -0.0156 -1.7054 -1.2725
 9175TIP3   OH248939   2.312   0.714  13.699 -0.7069  0.1292 -0.4545
 9175TIP3    H148940   2.299   0.800  13.738  0.3539 -0.4807  1.3689
 9175TIP3    H248941   2.388   0.726  13.641  1.9344 -0.2822  2.6298
 9176TIP3   OH248942   1.711   3.165  11.106  0.1758 -0.2736 -0.7711
 9176TIP3    H148943   1.638   3.186  11.049  0.1710 -0.2346 -0.7505
 9176TIP3    H248944   1.786   3.211  11.068  0.1355 -0.1007 -0.6444
 9177TIP3   OH248945   6.392   5.303  15.301 -0.7072 -0.3002 -0.1697
 9177TIP3    H148946   6.380   5.363  15.227 -0.6118 -0.0820 -0.0095
 9177TIP3    H248947   6.422   5.359  15.372 -0.8885 -0.4953  0.0610
 9178TIP3   OH248948   0.440   6.274   4.675  0.4798  0.4809  0.3294
 9178TIP3    H148949   0.445   6.299   4.582 -0.2603 -0.8442 -0.1079
 9178TIP3    H248950   0.487   6.190   4.679  0.3566  0.4455  1.1243
 9179TIP3   OH248951   0.715   1.335  13.880  0.2814  0.5484 -0.0929
 9179TIP3    H148952   0.733   1.428  13.895  0.4387  0.7296 -1.3105
 9179TIP3    H248953   0.756   1.316  13.795  2.1922 -1.1805  1.1320
 9180TIP3   OH248954   2.050   0.039   0.806 -0.0804  0.0602  0.2889
 9180TIP3    H148955   2.084   0.064   0.892  1.5956  0.8465 -0.5624
 9180TIP3    H248956   2.027   0.122   0.764  0.4375 -0.2040 -0.5362
 9181TIP3   OH248957   0.611   6.502   5.665  0.1490  0.3167  0.0609
 9181TIP3    H148958   0.578   6.450   5.591 -0.2259  2.6785 -1.5578
 9181TIP3    H248959   0.536   6.555   5.692 -0.0583 -1.2709  3.0112
 9182TIP3   OH248960   3.961   3.580  17.121 -0.3200  0.7624 -0.3698
 9182TIP3    H148961   4.056   3.573  17.106 -0.3611  0.0437 -0.3186
 9182TIP3    H248962   3.948   3.542  17.208 -0.6030  1.2596 -0.1928
 9183TIP3   OH248963   5.285   0.602  12.245  0.1909  0.3452  1.0929
 9183TIP3    H148964   5.256   0.691  12.261  1.6828  0.9479  0.6444
 9183TIP3    H248965   5.380   0.609  12.236  0.1456 -0.9402 -1.1745
 9184TIP3   OH248966   0.065   6.635   2.529  0.4987  0.3597  0.0219
 9184TIP3    H148967   0.058   6.721   2.571 -0.8603  0.9692 -1.3632
 9184TIP3    H248968   0.021   6.646   2.445  1.2984 -1.3995 -0.6658
 9185TIP3   OH248969   4.774   1.174   5.386  0.0659 -0.3106 -0.2198
 9185TIP3    H148970   4.852   1.141   5.432 -1.8769 -0.8716  2.9534
 9185TIP3    H248971   4.756   1.258   5.427 -1.9485 -0.9818  0.3548
 9186TIP3   OH248972   5.255   2.773   4.059  0.0009  0.0752  0.3381
 9186TIP3    H148973   5.166   2.777   4.094  0.0228 -0.3244  0.4383
 9186TIP3    H248974   5.311   2.794   4.134  0.0261 -0.3599  0.4424
 9187TIP3   OH248975   5.804   6.105   3.921 -0.3989 -0.4725  0.1441
 9187TIP3    H148976   5.878   6.164   3.935  0.5177 -1.5669  0.0910
 9187TIP3    H248977   5.816   6.037   3.987 -0.9393 -1.0655 -0.3564
 9188TIP3   OH248978   1.425   4.145   0.431 -0.7439  0.9242  0.0492
 9188TIP3    H148979   1.435   4.050   0.433 -0.9041  0.9049  1.9243
 9188TIP3    H248980   1.472   4.173   0.353  1.2600 -0.5193  0.6575
 9189TIP3   OH248981   3.659   4.244  13.459 -0.2268 -0.5587  0.0110
 9189TIP3    H148982   3.742   4.252  13.507 -1.1101  0.9970  1.4015
 9189TIP3    H248983   3.613   4.174  13.505 -0.0947 -0.7334 -0.1208
 9190TIP3   OH248984   0.128   4.459  15.766 -0.3841 -0.2783  0.8420
 9190TIP3    H148985   0.086   4.544  15.755 -0.5797 -0.5526 -0.7591
 9190TIP3    H248986   0.196   4.474  15.832 -0.1199  1.2259  0.2569
 9191TIP3   OH248987   4.859   0.715  13.811  0.0013 -0.3993  0.0110
 9191TIP3    H148988   4.796   0.666  13.759  0.3927 -1.4380  0.5044
 9191TIP3    H248989   4.837   0.807  13.794 -0.8411 -0.7333 -0.7890
 9192TIP3   OH248990   0.995   1.465   1.378  0.4252 -0.0832  0.2295
 9192TIP3    H148991   0.969   1.458   1.469  2.0793  2.6210  1.0418
 9192TIP3    H248992   1.066   1.402   1.368  1.6640  1.0418  1.4805
 9193TIP3   OH248993   5.632   2.688   1.741  0.0518  0.2831 -0.4038
 9193TIP3    H148994   5.565   2.755   1.723  0.3334  0.9137  0.8346
 9193TIP3    H248995   5.643   2.643   1.657  0.8851  2.7057 -1.6658
 9194TIP3   OH248996   1.058   5.853   4.305  0.3225 -0.5113  0.6862
 9194TIP3    H148997   1.135   5.868   4.251  0.0276 -0.4949  0.2627
 9194TIP3    H248998   0.985   5.854   4.243 -0.1688  0.9086  1.2530
 9195TIP3   OH248999   6.310   0.015   3.399  0.2788 -0.3784 -0.4587
 9195TIP3    H149000   6.238  -0.020   3.451 -0.6316 -0.0492 -1.4628
 9195TIP3    H249001   6.359   0.070   3.460 -2.7217  2.8015 -0.6043
 9196TIP3   OH249002   1.712   0.867   1.133  0.3408  0.3035  0.3219
 9196TIP3    H149003   1.619   0.866   1.156  0.6774  1.3584  1.9701
 9196TIP3    H249004   1.749   0.936   1.189  1.7118  1.5410 -1.9525
 9197TIP3   OH249005   6.516   0.402  15.102 -0.2697 -0.4121 -0.5267
 9197TIP3    H149006   6.589   0.437  15.051  0.9353 -0.4302  1.1276
 9197TIP3    H249007   6.557   0.345  15.167 -1.7583 -0.3897  0.4692
 9198TIP3   OH249008   3.076   0.847  14.988 -0.1806 -0.5948  0.1690
 9198TIP3    H149009   3.116   0.791  15.053 -0.6148 -3.1234 -1.5958
 9198TIP3    H249010   3.130   0.926  14.987  1.7160 -1.8127  1.3327
 9199TIP3   OH249011   6.435   0.629   3.435 -0.5752  0.1532  0.0082
 9199TIP3    H149012   6.378   0.584   3.497 -0.2410  1.2663  1.1835
 9199TIP3    H249013   6.440   0.719   3.469  0.7686  0.4196 -0.8362
 9200TIP3   OH249014   1.371   3.272  16.127 -0.5076 -0.4738  0.2361
 9200TIP3    H149015   1.441   3.337  16.127 -0.3561 -0.5397 -2.2195
 9200TIP3    H249016   1.398   3.208  16.062 -2.2779 -1.1476  0.1144
 9201TIP3   OH249017   4.376   0.892  11.600 -0.2528 -0.2677 -0.2320
 9201TIP3    H149018   4.293   0.869  11.557  0.6514 -2.7487 -0.7675
 9201TIP3    H249019   4.434   0.818  11.582  2.5353  1.9229 -0.9441
 9202TIP3   OH249020   5.859   0.962  13.104  0.1156 -0.5185 -0.0999
 9202TIP3    H149021   5.900   1.048  13.091 -0.5692 -0.1106  0.3671
 9202TIP3    H249022   5.913   0.902  13.053  1.3411 -0.0121  0.5516
 9203TIP3   OH249023   6.623   0.544   2.304  0.0208 -0.8039 -0.0435
 9203TIP3    H149024   6.612   0.450   2.320  0.0700 -0.8539 -0.2906
 9203TIP3    H249025   6.674   0.548   2.222 -1.7718 -0.5729 -1.2111
 9204TIP3   OH249026   1.038   2.978   0.070 -0.1723 -0.5199  0.1992
 9204TIP3    H149027   1.132   2.977   0.088 -0.3227 -0.4532  0.9972
 9204TIP3    H249028   1.021   3.068   0.041 -0.4684  0.3152  2.7530
 9205TIP3   OH249029   1.840   3.758   3.931 -0.1493 -0.0914  0.6719
 9205TIP3    H149030   1.899   3.700   3.978  1.5017  2.0897  1.4522
 9205TIP3    H249031   1.812   3.822   3.996  0.2789  1.5999 -0.7250
 9206TIP3   OH249032   1.375   0.000  14.846 -0.1823  0.6176  0.3225
 9206TIP3    H149033   1.386  -0.022  14.753  0.2381 -0.9972  0.7198
 9206TIP3    H249034   1.342  -0.080  14.886 -0.6847  1.3911  1.5226
 9207TIP3   OH249035   5.770   6.294   0.514  0.5949 -0.1804  0.1513
 9207TIP3    H149036   5.760   6.388   0.530  0.4198 -0.0937 -0.4500
 9207TIP3    H249037   5.810   6.288   0.428 -1.1304 -0.6695 -0.6764
 9208TIP3   OH249038   0.958   6.232  14.461 -0.1029 -0.1308  0.2522
 9208TIP3    H149039   1.046   6.269  14.471 -0.0677  0.2685 -1.3070
 9208TIP3    H249040   0.901   6.307  14.449 -0.5678 -0.4228  0.6097
 9209TIP3   OH249041   3.209   4.185  13.864 -0.2854  0.5557 -0.6830
 9209TIP3    H149042   3.227   4.104  13.912 -0.7711  0.7328 -0.1791
 9209TIP3    H249043   3.139   4.161  13.803  0.4169  0.3003 -1.3996
 9210TIP3   OH249044   3.000   4.024   2.870  0.1836  0.2903  0.1350
 9210TIP3    H149045   3.083   3.996   2.907 -0.0008 -1.0500 -0.4231
 9210TIP3    H249046   2.934   3.992   2.931  0.0695  2.1933  1.1017
 9211TIP3   OH249047   6.533   2.034  12.545  0.1122  0.1764 -0.7364
 9211TIP3    H149048   6.479   2.012  12.620 -0.6332  1.4173 -0.8839
 9211TIP3    H249049   6.519   1.963  12.483 -1.6979  0.6533 -0.9368
 9212TIP3   OH249050   2.738   5.233   5.620  0.3520 -0.3092  0.2973
 9212TIP3    H149051   2.681   5.301   5.657 -0.9060 -1.9109  1.4358
 9212TIP3    H249052   2.792   5.279   5.556 -2.2927  1.2834 -0.9270
 9213TIP3   OH249053   4.044   1.828   4.422  0.3074  0.0715  0.3324
 9213TIP3    H149054   4.114   1.785   4.374  0.0859  1.0801 -0.9281
 9213TIP3    H249055   4.084   1.905   4.461  0.2658 -0.2442  1.0352
 9214TIP3   OH249056   0.234   6.288  13.126  0.4026 -0.6391  0.5341
 9214TIP3    H149057   0.196   6.360  13.177  0.3639 -1.3756  1.5685
 9214TIP3    H249058   0.197   6.300  13.038  0.5996  0.7444  0.6027
 9215TIP3   OH249059   6.327   3.223  17.112 -0.5089  0.6650 -0.4845
 9215TIP3    H149060   6.318   3.221  17.207  0.1186 -2.1643 -0.4029
 9215TIP3    H249061   6.266   3.292  17.083 -1.2631  1.0660  1.8790
 9216TIP3   OH249062   2.471   6.675   5.037  0.0262  0.3620 -0.0345
 9216TIP3    H149063   2.461   6.590   4.994 -0.0038 -0.2647  1.1532
 9216TIP3    H249064   2.537   6.661   5.104 -0.1228  1.2230  0.3154
 9217TIP3   OH249065   4.918   5.724   3.326  0.0635 -0.4450  0.2210
 9217TIP3    H149066   4.863   5.672   3.385 -1.2104 -1.2110 -1.5277
 9217TIP3    H249067   4.983   5.765   3.383 -1.3922 -0.7210  2.1916
 9218TIP3   OH249068   2.633   3.443  14.092 -0.4483 -0.0344 -0.6394
 9218TIP3    H149069   2.721   3.472  14.114 -0.6927  0.9669 -0.9294
 9218TIP3    H249070   2.635   3.430  13.997 -1.1830  2.1481 -1.0057
 9219TIP3   OH249071   6.261   5.112  15.115  0.1179  0.2267  0.1365
 9219TIP3    H149072   6.189   5.174  15.126  0.9166  1.0215  1.0861
 9219TIP3    H249073   6.328   5.142  15.177  0.8979 -1.0343 -0.0662
 9220TIP3   OH249074   1.329   5.135  15.071 -0.4632 -0.0323 -0.3108
 9220TIP3    H149075   1.252   5.190  15.082 -0.7353 -0.4215 -0.2558
 9220TIP3    H249076   1.362   5.121  15.160 -1.6176 -1.6860 -0.0925
 9221TIP3   OH249077   5.650   5.884  11.445  0.2958 -0.7372  0.4543
 9221TIP3    H149078   5.696   5.889  11.529 -0.5918  0.1806  0.9133
 9221TIP3    H249079   5.572   5.832  11.465  0.4172 -1.0846  0.0284
 9222TIP3   OH249080   4.748   4.912   1.810 -0.5566 -0.1486 -0.6830
 9222TIP3    H149081   4.757   4.831   1.759  1.1099 -0.7358  0.4421
 9222TIP3    H249082   4.838   4.941   1.825 -1.0104  0.4426  1.1867
 9223TIP3   OH249083   3.611   1.001  15.199  0.0561  0.2705 -0.0813
 9223TIP3    H149084   3.637   1.010  15.107 -0.3521 -1.1800 -0.3566
 9223TIP3    H249085   3.518   0.978  15.196 -0.8912  3.4607  0.8367
 9224TIP3   OH249086   1.606   0.538  17.053 -0.2561  0.3588 -0.0641
 9224TIP3    H149087   1.669   0.574  17.115 -2.4614 -0.6622  2.9925
 9224TIP3    H249088   1.574   0.458  17.094 -0.7378 -1.3200 -3.3338
 9225TIP3   OH249089   3.351   3.864  15.539 -0.0914 -0.6732 -0.3496
 9225TIP3    H149090   3.271   3.912  15.560 -0.4950 -1.6787  0.4879
 9225TIP3    H249091   3.328   3.772  15.554  2.0360 -0.8420  2.8832
 9226TIP3   OH249092   3.764   5.412   5.053  0.5155  0.4619 -0.0470
 9226TIP3    H149093   3.765   5.476   5.124  1.4116  0.3437  0.0569
 9226TIP3    H249094   3.786   5.329   5.095 -1.9570 -0.2055  0.0587
 9227TIP3   OH249095   4.032   5.078   0.957 -0.0789 -0.2720 -0.2104
 9227TIP3    H149096   4.063   4.999   0.912  1.3610  0.4055 -0.4722
 9227TIP3    H249097   3.970   5.117   0.896 -0.4967 -0.9901 -0.2545
 9228TIP3   OH249098   1.323   5.236   4.782  0.3570 -0.0834  0.0632
 9228TIP3    H149099   1.309   5.144   4.760  1.8810 -0.4119  0.3921
 9228TIP3    H249100   1.269   5.284   4.720 -1.4920 -1.2140  0.6990
 9229TIP3   OH249101   5.374   3.344   5.560 -0.0452  0.3412  0.4116
 9229TIP3    H149102   5.455   3.296   5.539 -0.1923 -0.2339  1.1040
 9229TIP3    H249103   5.399   3.401   5.632 -0.4952 -0.5964  1.3304
 9230TIP3   OH249104   3.910   0.077   0.740  0.1772 -0.5107  0.3671
 9230TIP3    H149105   3.822   0.078   0.704  0.3949 -1.7658 -0.2730
 9230TIP3    H249106   3.905   0.021   0.817 -0.1887  1.8132  2.1450
 9231TIP3   OH249107   4.328   6.381   5.229 -0.0246 -0.0557  0.0819
 9231TIP3    H149108   4.236   6.360   5.244  0.1731  0.4106  2.3533
 9231TIP3    H249109   4.331   6.477   5.226  0.5604  0.0192  1.8283
 9232TIP3   OH249110   3.139   5.329   0.531 -0.3509 -0.2595  0.5059
 9232TIP3    H149111   3.194   5.406   0.541 -1.7388  0.7532  0.5706
 9232TIP3    H249112   3.089   5.345   0.451 -1.1630 -0.7450  0.9004
 9233TIP3   OH249113   4.656   6.494   3.342  0.8427 -0.0370 -0.0489
 9233TIP3    H149114   4.663   6.400   3.330 -1.6148 -0.3217  0.2174
 9233TIP3    H249115   4.563   6.513   3.331  1.0153  2.1294  1.5183
 9234TIP3   OH249116   3.697   5.911   3.243  0.3627  0.1587 -0.0285
 9234TIP3    H149117   3.683   5.826   3.202 -1.0297  0.5787 -0.4742
 9234TIP3    H249118   3.762   5.954   3.187  0.0326 -0.0771 -0.5955
 9235TIP3   OH249119   0.745   3.343  15.526 -0.4056 -0.1746 -0.0071
 9235TIP3    H149120   0.670   3.403  15.528  0.1142  0.4642  1.2579
 9235TIP3    H249121   0.761   3.329  15.433 -1.1648  0.8618 -0.3227
 9236TIP3   OH249122   1.445   2.549   3.395  0.2084 -0.7022  0.4264
 9236TIP3    H149123   1.398   2.499   3.462 -0.7769 -1.0982 -0.5144
 9236TIP3    H249124   1.514   2.595   3.442 -0.7266 -0.6272  1.7744
 9237TIP3   OH249125   5.871   6.215   5.433 -0.0947 -0.0998 -0.0079
 9237TIP3    H149126   5.843   6.259   5.514 -1.0893 -0.2605 -0.2470
 9237TIP3    H249127   5.872   6.122   5.455  1.0319 -0.0499  0.2116
 9238TIP3   OH249128   5.101   3.212  15.056  0.1440 -0.3438  0.1921
 9238TIP3    H149129   5.174   3.271  15.075 -0.0603 -0.3590  1.0878
 9238TIP3    H249130   5.092   3.159  15.135 -0.4272 -0.7785 -0.1582
 9239TIP3   OH249131   4.171   1.125   3.185  0.4448 -0.2049  0.2502
 9239TIP3    H149132   4.186   1.031   3.181  2.2712  0.0611 -2.6623
 9239TIP3    H249133   4.250   1.160   3.226  1.1178  0.1959 -1.3147
 9240TIP3   OH249134   4.268   0.488  11.682 -0.4112 -0.2241 -0.6370
 9240TIP3    H149135   4.342   0.432  11.706  2.2887  2.0730 -2.8046
 9240TIP3    H249136   4.269   0.488  11.586 -2.6354  0.7006 -0.7148
 9241TIP3   OH249137   2.055   6.499   5.859 -0.3749  0.4966 -0.2090
 9241TIP3    H149138   2.093   6.414   5.836  1.6972  1.1949  0.4065
 9241TIP3    H249139   2.045   6.496   5.954 -3.1747 -0.1357 -0.4623
 9242TIP3   OH249140   0.015   4.257  14.604 -0.1031  0.0677 -0.2139
 9242TIP3    H149141   0.108   4.262  14.626  0.2457  0.1560 -1.6646
 9242TIP3    H249142  -0.027   4.319  14.664  0.8697  0.6638 -0.1386
 9243TIP3   OH249143   4.419   4.875   0.126 -0.7983 -0.9393 -0.1579
 9243TIP3    H149144   4.324   4.881   0.132 -0.7180 -0.1987  0.4868
 9243TIP3    H249145   4.449   4.884   0.217  0.1053  3.3706 -0.6716
 9244TIP3   OH249146   3.298   1.270  16.904  0.5048 -0.0013  0.1516
 9244TIP3    H149147   3.267   1.342  16.958  1.7039 -0.0165  0.8870
 9244TIP3    H249148   3.329   1.312  16.823  0.5995  0.2447  0.3134
 9245TIP3   OH249149   2.107   1.385   4.207 -0.0966  0.2395 -0.7011
 9245TIP3    H149150   2.029   1.431   4.173  0.5325  1.6321 -0.3303
 9245TIP3    H249151   2.154   1.358   4.128 -0.0577  0.9799 -0.9415
 9246TIP3   OH249152   5.385   1.732   1.458 -0.6022  0.1996 -0.5276
 9246TIP3    H149153   5.387   1.679   1.537  1.3716  0.6426 -0.2313
 9246TIP3    H249154   5.342   1.676   1.393  2.2630 -2.2857 -0.5086
 9247TIP3   OH249155   5.138   3.721   2.004 -0.1831 -0.9304  0.9394
 9247TIP3    H149156   5.076   3.699   2.073 -2.4227  1.1008 -0.3124
 9247TIP3    H249157   5.104   3.677   1.926 -0.6792  0.9694  0.0277
 9248TIP3   OH249158   5.215   0.057   5.957  0.0775 -0.1532  0.3105
 9248TIP3    H149159   5.123   0.062   5.983 -0.1116 -2.4676  0.3646
 9248TIP3    H249160   5.242   0.147   5.944 -1.5903  0.7395  2.3961
 9249TIP3   OH249161   4.259   2.396   0.149 -0.1190 -0.1720 -0.3019
 9249TIP3    H149162   4.346   2.372   0.181 -0.4390  0.6979  1.2932
 9249TIP3    H249163   4.264   2.490   0.134 -0.4059 -0.3306 -1.5545
 9250TIP3   OH249164   6.280   2.587   2.497 -0.8391  0.3357  0.2556
 9250TIP3    H149165   6.258   2.525   2.566 -1.9225  1.8716  1.3620
 9250TIP3    H249166   6.197   2.603   2.452 -0.4835  0.6556 -0.2964
 9251TIP3   OH249167   2.384   1.150   4.220  0.4309  0.0597 -0.1461
 9251TIP3    H149168   2.471   1.115   4.203  0.1641 -3.2899  3.7729
 9251TIP3    H249169   2.327   1.102   4.160  0.9509  0.0372 -0.6322
 9252TIP3   OH249170   0.530   1.128   5.243 -0.3431 -0.2491 -0.2938
 9252TIP3    H149171   0.435   1.140   5.254 -0.4715 -0.4707 -1.0937
 9252TIP3    H249172   0.558   1.083   5.323 -0.6816  0.9661  0.5411
 9253TIP3   OH249173   0.391   2.350   3.479 -0.6819 -0.4758  0.6909
 9253TIP3    H149174   0.437   2.407   3.418  1.2142 -2.5381  0.0658
 9253TIP3    H249175   0.422   2.377   3.566 -2.8829  2.0149  0.8435
 9254TIP3   OH249176   4.921   4.207  13.559  0.1824 -0.3650  0.2932
 9254TIP3    H149177   4.925   4.121  13.518  2.0936 -0.9635  1.5892
 9254TIP3    H249178   4.907   4.190  13.652 -2.8127  0.9167  0.1737
 9255TIP3   OH249179   4.051   3.572   1.089 -0.2627 -0.0552  0.8655
 9255TIP3    H149180   4.062   3.557   1.183  0.8740  0.2882  0.8108
 9255TIP3    H249181   4.051   3.484   1.050 -2.7296 -0.3270  1.3292
 9256TIP3   OH249182   3.982   5.103   3.084  0.7831 -0.2363  0.1183
 9256TIP3    H149183   3.968   5.174   3.021  1.5522 -0.6376 -0.5109
 9256TIP3    H249184   3.927   5.128   3.159 -0.8308 -0.1788 -1.0149
 9257TIP3   OH249185   1.942   5.382   1.643 -0.1364 -0.3023  0.1809
 9257TIP3    H149186   1.893   5.339   1.713  0.3384  0.4932  1.0303
 9257TIP3    H249187   2.034   5.376   1.671  0.1481 -0.7508 -0.8139
 9258TIP3   OH249188   6.610   3.874   6.388 -0.0365  0.1852  0.4863
 9258TIP3    H149189   6.614   3.889   6.294  0.3033  2.4939  0.8198
 9258TIP3    H249190   6.655   3.791   6.401 -1.9446 -1.3054 -1.5683
 9259TIP3   OH249191   1.581   3.455  16.414 -0.1690 -0.9660  0.0334
 9259TIP3    H149192   1.538   3.404  16.482 -1.0410 -0.9020 -0.4541
 9259TIP3    H249193   1.671   3.466  16.445 -0.5007 -1.1009  1.0747
 9260TIP3   OH249194   1.744   0.217  11.282 -0.4573  0.0055  0.3463
 9260TIP3    H149195   1.776   0.303  11.257  1.4974 -0.9205 -0.4968
 9260TIP3    H249196   1.755   0.163  11.203  0.3281 -1.5243  1.4491
 9261TIP3   OH249197   4.757   4.274  15.058  0.0801 -0.3532 -0.6992
 9261TIP3    H149198   4.669   4.258  15.092  0.8746  0.7530  2.1909
 9261TIP3    H249199   4.746   4.343  14.993 -1.0431  1.0236  0.8764
 9262TIP3   OH249200   1.088   1.729   0.620 -0.4586 -0.7565 -0.4833
 9262TIP3    H149201   1.073   1.654   0.564 -0.1702 -1.2386  0.0729
 9262TIP3    H249202   1.162   1.703   0.677  1.3275  0.8505 -1.9198
 9263TIP3   OH249203   5.127   1.880   5.098 -0.8125  0.5709  0.6228
 9263TIP3    H149204   5.091   1.966   5.077 -2.0723  0.4882  2.3028
 9263TIP3    H249205   5.128   1.877   5.193  0.3205 -0.8409  0.5939
 9264TIP3   OH249206   3.981   6.121   3.395 -0.4256  0.1982  0.4169
 9264TIP3    H149207   3.919   6.052   3.421 -1.2497 -0.0669 -2.0430
 9264TIP3    H249208   3.932   6.202   3.406 -1.2452  0.0011 -1.3479
 9265TIP3   OH249209   4.955   2.066  13.891  0.5378  0.6384  0.2800
 9265TIP3    H149210   4.863   2.061  13.865  0.3882 -0.2622  0.9130
 9265TIP3    H249211   4.953   2.102  13.980  1.0271  3.4802 -0.7678
 9266TIP3   OH249212   5.604   5.728  12.260 -0.6790 -0.3914  0.0602
 9266TIP3    H149213   5.620   5.637  12.234 -2.1316 -0.4968 -0.5349
 9266TIP3    H249214   5.679   5.776  12.225 -0.2102 -1.2509 -0.1575
 9267TIP3   OH249215   3.582   2.143  11.341 -0.0020  0.4100 -0.2116
 9267TIP3    H149216   3.591   2.206  11.270 -0.1979  1.0363  0.3155
 9267TIP3    H249217   3.553   2.062  11.298  1.1595  0.3884 -1.0173
 9268TIP3   OH249218   1.892   0.983   6.584 -0.5349  0.1899 -0.1986
 9268TIP3    H149219   1.850   0.907   6.544  1.1430  0.0492 -1.8532
 9268TIP3    H249220   1.974   0.993   6.536  0.2071  1.8786  1.2884
 9269TIP3   OH249221   3.924   5.199  13.415 -0.5786  0.7577 -0.6451
 9269TIP3    H149222   3.938   5.177  13.323 -1.2748 -0.6474 -0.4288
 9269TIP3    H249223   4.010   5.189  13.455 -0.5854 -0.1845 -0.8449
 9270TIP3   OH249224   2.212   0.275  13.245  0.1810 -0.1691 -0.7949
 9270TIP3    H149225   2.267   0.197  13.253 -1.1690 -0.9950  1.5894
 9270TIP3    H249226   2.268   0.347  13.274  0.5949 -0.7026 -0.2395
 9271TIP3   OH249227   3.959   4.281   5.369  0.3970  0.3451 -0.5544
 9271TIP3    H149228   4.008   4.199   5.371 -0.2936 -0.0950 -1.0221
 9271TIP3    H249229   3.869   4.255   5.387  0.4224  1.2281  0.9296
 9272TIP3   OH249230   4.608   4.912   3.423  0.2240  0.3044 -0.5224
 9272TIP3    H149231   4.603   5.006   3.406 -0.5483  0.1997 -0.9020
 9272TIP3    H249232   4.518   4.881   3.416  0.4400 -0.4298 -0.1727
 9273TIP3   OH249233   0.916   1.839  11.629 -0.5802  0.4992  0.3611
 9273TIP3    H149234   0.941   1.899  11.559 -0.9271  0.0903 -0.1242
 9273TIP3    H249235   0.982   1.852  11.697  0.7319 -0.2647 -0.7085
 9274TIP3   OH249236   3.207   2.853  15.062 -0.1597  0.3473  0.3956
 9274TIP3    H149237   3.130   2.891  15.104 -0.0563  1.6397 -0.5406
 9274TIP3    H249238   3.171   2.806  14.986 -0.0245  1.0398 -0.1017
 9275TIP3   OH249239   0.435   1.380  14.118  0.2634 -0.5080  0.4984
 9275TIP3    H149240   0.488   1.348  14.045 -0.6993  0.3600 -0.6322
 9275TIP3    H249241   0.496   1.386  14.191  1.1064 -2.0606 -0.0366
 9276TIP3   OH249242   4.819   4.182  13.908 -0.1123  0.3196 -0.6508
 9276TIP3    H149243   4.885   4.250  13.899  0.7824 -0.2881  0.9062
 9276TIP3    H249244   4.866   4.101  13.889 -0.8853  0.0315 -1.3807
 9277TIP3   OH249245   3.518   4.611  13.537  0.4818 -0.2258 -0.2056
 9277TIP3    H149246   3.538   4.693  13.583  1.0799  0.6924 -1.9936
 9277TIP3    H249247   3.449   4.636  13.475 -0.4829 -1.4867  0.3230
 9278TIP3   OH249248   0.665   3.836   4.283  0.4750  0.3061  0.1737
 9278TIP3    H149249   0.678   3.875   4.196 -0.0528 -0.7408 -0.3968
 9278TIP3    H249250   0.618   3.903   4.332 -0.9131  0.2181 -0.9599
 9279TIP3   OH249251   0.834   5.445  15.422 -0.0856 -0.0498 -0.6029
 9279TIP3    H149252   0.742   5.469  15.412 -0.2800 -0.8488 -0.8641
 9279TIP3    H249253   0.859   5.413  15.335  0.2448 -0.4530 -0.3626
 9280TIP3   OH249254   4.050   2.315  14.783  0.0949 -0.1988 -0.3545
 9280TIP3    H149255   4.078   2.404  14.803 -1.0220 -0.1896  1.4002
 9280TIP3    H249256   4.012   2.320  14.695 -0.3992  1.1611 -0.0739
 9281TIP3   OH249257   0.117   0.090   2.638 -0.2305 -0.2642 -0.5654
 9281TIP3    H149258   0.053   0.151   2.677 -0.2363 -1.0061  0.6449
 9281TIP3    H249259   0.196   0.142   2.628 -0.0849 -0.1492  0.9144
 9282TIP3   OH249260   3.566   0.312   1.911 -0.1411 -0.7845 -0.2789
 9282TIP3    H149261   3.549   0.218   1.918  0.3078 -1.0180 -1.9272
 9282TIP3    H249262   3.495   0.346   1.857 -0.1266 -0.2317  0.0397
 9283TIP3   OH249263   4.985   3.485   5.437 -0.7968 -0.1435  0.5521
 9283TIP3    H149264   5.077   3.476   5.412 -0.3780 -0.7254  2.1417
 9283TIP3    H249265   4.959   3.571   5.403  0.1482 -0.2258 -0.4329
 9284TIP3   OH249266   3.371   1.947  11.484 -0.0885 -0.2032 -0.2024
 9284TIP3    H149267   3.388   2.039  11.463 -2.8595  0.2710 -0.7648
 9284TIP3    H249268   3.313   1.950  11.560  0.5784 -1.5490  0.3912
 9285TIP3   OH249269   3.952   3.538   0.666 -0.3851  0.1500 -0.0329
 9285TIP3    H149270   3.932   3.508   0.577 -1.7367  0.1589  0.2606
 9285TIP3    H249271   3.871   3.526   0.715  0.0795  1.0056  0.9830
 9286TIP3   OH249272   3.711   1.805   1.468  0.1020  0.0505 -0.2378
 9286TIP3    H149273   3.687   1.819   1.377  1.4523  0.9655 -0.4781
 9286TIP3    H249274   3.632   1.827   1.518 -0.2859  0.6603 -1.1139
 9287TIP3   OH249275   4.045   1.777   0.760  0.0957 -0.0383  0.0338
 9287TIP3    H149276   4.037   1.738   0.673 -1.2468  0.9064 -0.3070
 9287TIP3    H249277   4.089   1.860   0.746  0.1431 -0.0174  0.2949
 9288TIP3   OH249278   1.945   3.843  12.400 -0.0445 -0.1096  0.3999
 9288TIP3    H149279   1.980   3.832  12.311  0.4494 -0.6364  0.6506
 9288TIP3    H249280   1.911   3.756  12.422 -3.2035  0.7691 -0.5104
 9289TIP3   OH249281   5.377   3.097   5.405  0.0128 -0.0218  0.1123
 9289TIP3    H149282   5.463   3.063   5.379 -1.0921 -2.7252 -0.3991
 9289TIP3    H249283   5.364   3.066   5.494 -0.7012 -0.2673 -0.0656
 9290TIP3   OH249284   2.011   1.936  10.704  0.1440  0.2230  0.1013
 9290TIP3    H149285   1.944   2.002  10.724 -0.2054  0.3140 -1.3204
 9290TIP3    H249286   2.020   1.887  10.786 -0.8652  0.9083  0.6542
 9291TIP3   OH249287   0.135   5.015   6.709 -0.3368 -0.6089 -0.4704
 9291TIP3    H149288   0.203   5.077   6.734 -0.8397  0.2428 -1.1556
 9291TIP3    H249289   0.136   5.017   6.613 -2.6166  0.9154 -0.5338
 9292TIP3   OH249290   6.351   5.539  13.479  0.7147 -0.8294 -0.1236
 9292TIP3    H149291   6.321   5.506  13.563  0.0478  0.6282  0.2438
 9292TIP3    H249292   6.431   5.588  13.500  0.4504 -0.3146 -0.3004
 9293TIP3   OH249293   3.958   3.689   1.768  0.5606 -0.1302  0.0498
 9293TIP3    H149294   4.037   3.695   1.714  0.7773 -0.3865  0.3287
 9293TIP3    H249295   3.951   3.596   1.790  0.0614 -0.1381 -0.1466
 9294TIP3   OH249296   5.047   1.245   0.816 -0.3987  0.5852 -0.4651
 9294TIP3    H149297   4.991   1.176   0.780 -1.7977  2.6337 -2.5249
 9294TIP3    H249298   5.127   1.242   0.763  0.1154 -0.2420  0.3236
 9295TIP3   OH249299   5.048   0.329  14.403  0.2860 -0.4551  0.2458
 9295TIP3    H149300   5.131   0.338  14.356  1.2595 -1.6454  1.6714
 9295TIP3    H249301   5.048   0.402  14.466  0.8387 -1.1496  1.0691
 9296TIP3   OH249302   5.219   5.803   0.289 -0.2035 -0.8998 -0.2744
 9296TIP3    H149303   5.138   5.752   0.281  0.1639 -1.5272 -0.0989
 9296TIP3    H249304   5.253   5.781   0.376  0.9983 -1.9407 -0.9659
 9297TIP3   OH249305   1.602   0.836  10.928 -0.2234  0.1450  0.0314
 9297TIP3    H149306   1.508   0.851  10.921 -0.3829 -0.5059  0.6392
 9297TIP3    H249307   1.635   0.850  10.839 -1.1272 -1.1190 -0.5427
 9298TIP3   OH249308   1.444   6.676   5.885 -0.1416  0.4620 -0.7454
 9298TIP3    H149309   1.472   6.626   5.809 -1.1756 -3.7009  1.2776
 9298TIP3    H249310   1.353   6.699   5.867 -1.0623 -2.3083 -0.1613
 9299TIP3   OH249311   1.244   2.650  15.481  0.7672 -0.1017 -0.1601
 9299TIP3    H149312   1.160   2.657  15.435  0.6130 -0.1536  0.1093
 9299TIP3    H249313   1.224   2.598  15.559  0.8404  0.7280  0.4193
 9300TIP3   OH249314   1.718   0.503  13.494  0.2458 -0.7308 -0.1355
 9300TIP3    H149315   1.651   0.439  13.469 -1.7634  0.6109  1.4900
 9300TIP3    H249316   1.668   0.581  13.518  2.2030 -0.2896  3.0594
 9301TIP3   OH249317   2.106   3.164   3.124 -0.4335 -0.2307  0.2625
 9301TIP3    H149318   2.160   3.129   3.194 -0.5181 -0.9730 -0.0353
 9301TIP3    H249319   2.050   3.091   3.098 -1.3737  0.4395  0.3620
 9302TIP3   OH249320   3.069   1.070  16.342 -0.0331  0.1297 -0.4137
 9302TIP3    H149321   3.119   1.023  16.275  1.4310 -0.0793  0.7731
 9302TIP3    H249322   2.983   1.027  16.343  0.3814 -0.7544 -1.2043
 9303TIP3   OH249323   5.395   1.723   5.267  0.4754  0.2394  0.4037
 9303TIP3    H149324   5.334   1.656   5.298  0.3666  0.0318 -0.2418
 9303TIP3    H249325   5.370   1.737   5.176  0.3413  1.3390  0.5968
 9304TIP3   OH249326   6.621   0.268   0.959 -0.3938  0.3331  0.5047
 9304TIP3    H149327   6.548   0.208   0.945  0.5649 -0.5168 -1.2276
 9304TIP3    H249328   6.653   0.246   1.046 -0.0349 -1.7991 -0.0936
 9305TIP3   OH249329   3.221   5.105   1.733  0.5614 -0.6670 -0.0573
 9305TIP3    H149330   3.196   5.156   1.655  2.1620 -0.2313 -0.3309
 9305TIP3    H249331   3.166   5.141   1.803 -0.1665 -0.3443 -0.7723
 9306TIP3   OH249332   0.992   3.455  12.499  0.3113 -0.4501  0.5006
 9306TIP3    H149333   1.057   3.457  12.569 -0.4945 -0.3201  1.2675
 9306TIP3    H249334   0.957   3.544  12.496  0.5499 -0.3790 -0.2745
 9307TIP3   OH249335   3.480   2.791   6.117 -0.3832  0.1387  0.4572
 9307TIP3    H149336   3.399   2.767   6.162 -0.8245  0.8998  0.0747
 9307TIP3    H249337   3.549   2.769   6.180 -0.8597 -0.7005  0.7069
 9308TIP3   OH249338   4.927   4.491   1.117  0.1748  0.1006 -0.0658
 9308TIP3    H149339   4.836   4.519   1.113  0.1032  0.1618  1.5291
 9308TIP3    H249340   4.959   4.502   1.027 -1.6513 -0.9145 -0.8893
 9309TIP3   OH249341   1.047   4.112   3.986  0.3103  0.2357  0.0847
 9309TIP3    H149342   1.025   4.203   4.002  1.3280  0.4613  0.2474
 9309TIP3    H249343   1.030   4.068   4.069  2.8399  0.8844  1.0458
 9310TIP3   OH249344   2.792   4.589  15.317 -0.0598  0.5400 -0.0971
 9310TIP3    H149345   2.700   4.611  15.302 -0.2668  0.9444  1.5009
 9310TIP3    H249346   2.800   4.497  15.293 -0.7977  0.5926 -0.5688
 9311TIP3   OH249347   2.153   5.707  13.165 -0.3549 -0.0961 -0.1173
 9311TIP3    H149348   2.229   5.763  13.181 -0.2107 -0.4411  0.4469
 9311TIP3    H249349   2.110   5.701  13.250 -0.1752 -1.1148 -0.0883
 9312TIP3   OH249350   2.304   3.097   1.104 -0.3054 -0.1664  0.6065
 9312TIP3    H149351   2.393   3.065   1.093 -0.3267 -0.1722  0.4375
 9312TIP3    H249352   2.285   3.143   1.022 -0.6464 -0.6225  0.4248
 9313TIP3   OH249353   4.728   5.711   5.695 -0.3826 -0.1177 -0.2919
 9313TIP3    H149354   4.676   5.651   5.642 -1.5793  0.8203 -0.2337
 9313TIP3    H249355   4.798   5.740   5.637 -1.1821  0.2501 -1.0934
 9314TIP3   OH249356   2.428   1.641  15.150  0.0010  0.2689 -0.0929
 9314TIP3    H149357   2.463   1.676  15.232 -2.5861  0.1578  1.1718
 9314TIP3    H249358   2.372   1.569  15.178 -0.2759 -0.3364 -2.0755
 9315TIP3   OH249359   3.935   6.605   4.945  0.4655  0.7065  0.4984
 9315TIP3    H149360   3.909   6.690   4.980  2.3273  1.7393 -0.4548
 9315TIP3    H249361   3.912   6.610   4.852  2.0582  0.8494  0.0854
 9316TIP3   OH249362   1.093   2.002   2.688  0.0948  0.2054 -0.3929
 9316TIP3    H149363   1.100   1.975   2.597 -1.0128  1.3550 -0.8485
 9316TIP3    H249364   1.156   2.073   2.697  1.1397 -0.7420  0.1181
 9317TIP3   OH249365   5.205   1.587  14.019 -0.5029 -0.0502 -0.3204
 9317TIP3    H149366   5.235   1.497  14.030 -2.0153 -0.5952 -0.4185
 9317TIP3    H249367   5.256   1.638  14.082 -0.7390 -1.2473  0.8753
 9318TIP3   OH249368   0.490   3.624   2.093  0.2524 -0.0084 -0.4130
 9318TIP3    H149369   0.560   3.559   2.099  0.8765  0.7889  1.9623
 9318TIP3    H249370   0.535   3.704   2.066 -0.1495 -0.0350 -1.1721
 9319TIP3   OH249371   5.990   1.528  14.642 -0.0260 -0.0759 -0.2710
 9319TIP3    H149372   5.915   1.496  14.591 -1.4968  0.9468  1.1648
 9319TIP3    H249373   6.025   1.601  14.591  0.8632 -1.3701 -1.5939
 9320TIP3   OH249374   2.468   3.593   4.318  0.4119 -0.2024 -0.2671
 9320TIP3    H149375   2.427   3.559   4.238  1.2754 -1.0650 -0.3683
 9320TIP3    H249376   2.517   3.670   4.288 -2.0757  1.6478  0.0747
 9321TIP3   OH249377   1.287   1.866   4.623  0.0483 -0.6517  0.5022
 9321TIP3    H149378   1.350   1.848   4.554 -0.7176 -0.2577 -0.3163
 9321TIP3    H249379   1.250   1.780   4.644 -0.3771 -0.6559 -0.2335
 9322TIP3   OH249380   1.122   4.021  11.689 -0.6058  0.7631 -0.6938
 9322TIP3    H149381   1.067   3.986  11.618  1.2941 -2.2527 -0.8506
 9322TIP3    H249382   1.203   3.971  11.683 -0.3053  0.4191  3.5528
 9323TIP3   OH249383   1.174   3.183  11.196 -0.0125 -0.1754  0.1280
 9323TIP3    H149384   1.242   3.247  11.216  0.2188  0.5158 -2.5455
 9323TIP3    H249385   1.184   3.164  11.103 -2.5099 -1.2242 -0.0190
 9324TIP3   OH249386   5.732   5.406  12.392  0.3168 -0.2699  0.1831
 9324TIP3    H149387   5.823   5.436  12.388 -0.3738  1.9303 -1.9034
 9324TIP3    H249388   5.697   5.446  12.471  0.4411  1.3492 -0.5451
 9325TIP3   OH249389   2.653   6.556   5.915 -1.0299  0.4331 -0.2984
 9325TIP3    H149390   2.722   6.570   5.851  0.8773  0.8082  1.7034
 9325TIP3    H249391   2.599   6.635   5.912 -0.3943  0.8478 -0.7637
 9326TIP3   OH249392   4.115   0.365   5.967 -0.4714 -0.2851 -0.0452
 9326TIP3    H149393   4.099   0.438   6.026  0.5344  0.3542 -0.5350
 9326TIP3    H249394   4.120   0.405   5.880 -1.1408 -1.1016 -0.4732
 9327TIP3   OH249395   2.178   6.643  15.159  0.0858 -0.7655 -0.3045
 9327TIP3    H149396   2.259   6.592  15.156 -0.3428 -1.4355 -2.2948
 9327TIP3    H249397   2.110   6.581  15.130 -0.7640  0.4104 -0.8965
 9328TIP3   OH249398   3.084   5.797   3.250  0.2132 -0.1929 -0.0629
 9328TIP3    H149399   3.070   5.703   3.264 -2.6509  0.1929  0.3918
 9328TIP3    H249400   3.008   5.838   3.290  0.9442  2.2826 -1.0426
 9329TIP3   OH249401   4.154   4.080  11.675  0.3221 -0.1639  0.9357
 9329TIP3    H149402   4.219   4.075  11.606 -0.0029 -1.0005  0.6830
 9329TIP3    H249403   4.076   4.037  11.639 -1.1534  2.6769  0.3902
 9330TIP3   OH249404   1.837   1.622   4.236  0.5835  0.1870 -0.0828
 9330TIP3    H149405   1.847   1.554   4.169  1.7307 -1.4655  1.6841
 9330TIP3    H249406   1.850   1.704   4.188  2.1278 -0.9619 -1.7975
 9331TIP3   OH249407   5.938   1.695  13.116  0.0091 -0.4195  0.8323
 9331TIP3    H149408   5.939   1.786  13.087 -0.9947 -1.1483 -1.7112
 9331TIP3    H249409   5.845   1.671  13.118  0.1780 -1.1290  2.5338
 9332TIP3   OH249410   4.411   3.248   4.123 -0.2260  0.5339 -0.4555
 9332TIP3    H149411   4.398   3.184   4.053 -0.5167 -0.4380  0.4702
 9332TIP3    H249412   4.352   3.320   4.100 -0.9680 -0.1564 -0.7597
 9333TIP3   OH249413   4.752   2.886  16.182 -0.4585 -0.0920 -0.1776
 9333TIP3    H149414   4.817   2.817  16.164  1.8722  2.2790 -1.6684
 9333TIP3    H249415   4.676   2.860  16.130 -0.2221 -2.2118  0.4114
 9334TIP3   OH249416   5.905   3.839  14.173  0.2495 -0.0486  0.0879
 9334TIP3    H149417   5.879   3.888  14.251  0.5370  3.1846 -1.6523
 9334TIP3    H249418   5.823   3.826  14.125  0.4730  1.2771 -0.7211
 9335TIP3   OH249419   0.808   2.579  11.734  0.6745 -1.0537 -0.0508
 9335TIP3    H149420   0.758   2.505  11.700 -0.1647 -1.2912  1.6014
 9335TIP3    H249421   0.744   2.650  11.741  0.7691 -1.0594  1.1155
 9336TIP3   OH249422   6.759   3.385  12.152 -0.2442 -0.0287 -0.1274
 9336TIP3    H149423   6.778   3.307  12.205 -2.6577  0.2753  1.3490
 9336TIP3    H249424   6.743   3.454  12.217 -2.4580  0.5775 -1.2275
 9337TIP3   OH249425   1.932   4.526   5.625  0.3046  0.4738 -0.3560
 9337TIP3    H149426   1.986   4.558   5.697  0.3764  0.8595 -0.5771
 9337TIP3    H249427   1.965   4.573   5.548 -0.0157  0.3433 -0.5744
 9338TIP3   OH249428   1.307   5.203  13.997  0.1502 -0.4215  0.1864
 9338TIP3    H149429   1.287   5.192  13.904 -0.7377  0.3183  0.2774
 9338TIP3    H249430   1.391   5.159  14.009 -0.1780 -1.3438 -0.7680
 9339TIP3   OH249431   2.364   3.626  15.754  0.0610 -0.3174 -0.3132
 9339TIP3    H149432   2.306   3.700  15.735  1.0044  0.1280 -1.6811
 9339TIP3    H249433   2.334   3.591  15.837 -0.7114  1.3204  0.1218
 9340TIP3   OH249434   6.026   4.869  15.928 -0.0194 -0.7077  0.0730
 9340TIP3    H149435   5.971   4.946  15.945 -0.7603 -1.3319  0.6172
 9340TIP3    H249436   6.068   4.887  15.844 -2.0843 -0.7518 -1.0572
 9341TIP3   OH249437   0.446   2.258   5.331  0.2723 -0.3191  0.2896
 9341TIP3    H149438   0.416   2.349   5.327  0.8529 -0.1609 -0.9601
 9341TIP3    H249439   0.392   2.218   5.399 -1.9796  0.2205 -1.0972
 9342TIP3   OH249440   4.531   2.556  10.656 -0.0605 -0.0857  0.3730
 9342TIP3    H149441   4.599   2.563  10.723  0.8493 -1.4528 -0.3843
 9342TIP3    H249442   4.538   2.638  10.607 -0.2876  0.6358  1.5012
 9343TIP3   OH249443   3.892   2.674  12.497  0.5433  0.1790  0.0407
 9343TIP3    H149444   3.851   2.605  12.549  1.9487 -0.8075 -0.0757
 9343TIP3    H249445   3.951   2.718  12.558  1.5480 -0.4142 -0.4643
 9344TIP3   OH249446   3.543   0.933  12.789 -0.5595  0.3807  0.4167
 9344TIP3    H149447   3.603   0.904  12.858  0.2892  1.0243 -0.0225
 9344TIP3    H249448   3.544   0.862  12.725  0.7500  0.9171 -0.1924
 9345TIP3   OH249449   1.820   3.632  16.885 -0.3566  0.2613  0.0230
 9345TIP3    H149450   1.890   3.609  16.823  0.2534  1.4765  0.2278
 9345TIP3    H249451   1.827   3.727  16.895 -0.8088  0.1645  1.5300
 9346TIP3   OH249452   2.041   1.619  14.258  0.1735  0.3712 -0.4051
 9346TIP3    H149453   2.043   1.715  14.247 -1.2834  0.4417 -0.2792
 9346TIP3    H249454   1.948   1.598  14.266  0.5126 -0.9893  0.2543
 9347TIP3   OH249455   2.434   0.065  12.006  0.9070 -0.1051 -0.0142
 9347TIP3    H149456   2.480   0.144  12.034 -0.7308  0.6301  0.7432
 9347TIP3    H249457   2.365   0.096  11.948  1.0745 -1.1367 -0.7972
 9348TIP3   OH249458   4.433   6.081  16.331 -0.1756  0.3199  0.4860
 9348TIP3    H149459   4.514   6.092  16.281 -0.2855 -2.9631 -0.5993
 9348TIP3    H249460   4.458   6.098  16.422  2.1047 -1.8120  0.3431
 9349TIP3   OH249461   0.411   2.544   3.229 -0.2907  0.0577 -0.0851
 9349TIP3    H149462   0.413   2.449   3.232 -0.5872  0.0562  0.1076
 9349TIP3    H249463   0.412   2.565   3.135  0.6885 -0.1066 -0.1228
 9350TIP3   OH249464   1.761   4.044   1.964  0.0868  0.1311 -0.5028
 9350TIP3    H149465   1.838   4.094   1.990 -0.4569  1.0209 -0.5693
 9350TIP3    H249466   1.687   4.101   1.984 -0.6935 -1.3552  1.1440
 9351TIP3   OH249467   2.474   0.848  15.587  0.1849 -0.4464  0.1269
 9351TIP3    H149468   2.556   0.814  15.625  0.7421  2.0414  1.3477
 9351TIP3    H249469   2.452   0.923  15.642 -1.0457  1.0698 -2.3022
 9352TIP3   OH249470   1.934   1.110   5.190 -0.2126 -0.3530 -0.1715
 9352TIP3    H149471   1.871   1.091   5.120 -0.1431 -1.7828  0.1276
 9352TIP3    H249472   1.899   1.189   5.232 -0.6167  0.1377 -1.3753
 9353TIP3   OH249473   3.556   5.742   5.523 -0.3957 -0.1249 -0.0469
 9353TIP3    H149474   3.565   5.751   5.618  0.7891  1.6073 -0.2829
 9353TIP3    H249475   3.554   5.647   5.508 -1.1551 -0.4391  1.7261
 9354TIP3   OH249476   1.183   0.259  12.138 -0.3299 -0.4328  0.3243
 9354TIP3    H149477   1.258   0.270  12.080 -1.6109 -1.8277 -1.7339
 9354TIP3    H249478   1.198   0.321  12.210  2.0451  0.3265 -0.7402
 9355TIP3   OH249479   5.454   6.529   0.554 -0.1997 -0.5528 -0.4480
 9355TIP3    H149480   5.414   6.443   0.539 -0.2905 -0.5167 -0.4176
 9355TIP3    H249481   5.386   6.578   0.602 -0.2739 -0.3577 -0.7526
 9356TIP3   OH249482   5.724   3.647  14.454  0.4728  0.5096 -0.3601
 9356TIP3    H149483   5.762   3.646  14.542 -0.3802 -1.4573  0.0402
 9356TIP3    H249484   5.695   3.737  14.442 -1.1264  0.4481  2.1873
 9357TIP3   OH249485   5.375   3.059   5.759 -0.2146 -0.0022 -0.3989
 9357TIP3    H149486   5.328   2.998   5.817  2.7060 -2.0288  0.0541
 9357TIP3    H249487   5.417   3.121   5.819  3.0764 -2.2942 -0.1008
 9358TIP3   OH249488   0.787   6.265  16.569  0.1401  0.3496 -0.2168
 9358TIP3    H149489   0.720   6.268  16.500  0.7235  0.0083 -0.8011
 9358TIP3    H249490   0.863   6.226  16.527  0.8637  1.1510  0.3225
 9359TIP3   OH249491   0.915   0.715   3.030 -0.0975 -0.0190 -0.2982
 9359TIP3    H149492   0.820   0.716   3.042 -0.1744  1.9613 -0.7977
 9359TIP3    H249493   0.951   0.748   3.112  0.1593 -0.6416 -0.1549
 9360TIP3   OH249494   6.672   4.855   3.869  0.0171  0.0554  0.2641
 9360TIP3    H149495   6.617   4.907   3.928  1.6543  1.3339  0.7786
 9360TIP3    H249496   6.728   4.920   3.826 -1.1449 -0.8277 -2.8388
 9361TIP3   OH249497   2.546   3.211   5.695 -0.0336 -0.1528 -0.7110
 9361TIP3    H149498   2.496   3.171   5.623 -0.5093 -1.0493  0.0981
 9361TIP3    H249499   2.488   3.203   5.771  0.9992 -0.4109  0.0611
 9362TIP3   OH249500   4.463   3.158   3.614  0.3606  0.2305 -0.3115
 9362TIP3    H149501   4.467   3.078   3.560 -1.5295 -0.4043  0.4034
 9362TIP3    H249502   4.534   3.147   3.677 -0.3325 -1.3179  0.2752
 9363TIP3   OH249503   3.210   2.463  16.868 -0.2085  0.2640  0.5689
 9363TIP3    H149504   3.213   2.392  16.804  1.7866  1.6366 -1.0004
 9363TIP3    H249505   3.124   2.502  16.856 -0.1269  0.0715 -0.8261
 9364TIP3   OH249506   1.110   1.803   5.853  0.0735  0.0997  0.4720
 9364TIP3    H149507   1.204   1.806   5.836 -0.2671 -0.3377 -1.7916
 9364TIP3    H249508   1.091   1.711   5.870 -0.2474 -0.2235 -1.4056
 9365TIP3   OH249509   4.149   5.066   4.384  0.1885 -0.3772 -0.4918
 9365TIP3    H149510   4.208   5.007   4.431  1.0207  0.7445 -0.0748
 9365TIP3    H249511   4.194   5.084   4.301  0.3428  0.3115 -0.2647
 9366TIP3   OH249512   4.660   0.969  17.177  0.5406 -0.1628  0.4491
 9366TIP3    H149513   4.601   1.041  17.155  0.5415 -0.1685  0.4285
 9366TIP3    H249514   4.622   0.893  17.134  0.9353 -0.0339 -0.1335
 9367TIP3   OH249515   4.892   3.357  12.025 -0.0622 -0.2391  0.6523
 9367TIP3    H149516   4.848   3.341  11.941  1.2303 -0.6853  0.0340
 9367TIP3    H249517   4.907   3.270  12.061  0.4846 -0.1034  0.7543
 9368TIP3   OH249518   2.567   5.038   6.051 -0.6325  0.3012  0.1773
 9368TIP3    H149519   2.590   5.130   6.036  0.9949 -0.0512  0.3465
 9368TIP3    H249520   2.530   5.009   5.968 -1.3593  1.1428  0.1819
 9369TIP3   OH249521   3.394   3.129  13.669 -0.5697 -0.2167 -0.1810
 9369TIP3    H149522   3.486   3.104  13.664 -0.1782  0.6402  1.8185
 9369TIP3    H249523   3.353   3.058  13.718 -0.8807 -0.3371 -0.6090
 9370TIP3   OH249524   3.168   5.813  10.301  0.0606  0.4396 -0.2437
 9370TIP3    H149525   3.221   5.846  10.373 -2.2912 -1.2288  2.4649
 9370TIP3    H249526   3.086   5.863  10.306 -1.2136 -1.5507  0.1293
 9371TIP3   OH249527   4.204   3.696   3.238 -0.9389 -0.8991 -0.2688
 9371TIP3    H149528   4.220   3.631   3.307  1.2852 -0.9608 -0.7870
 9371TIP3    H249529   4.229   3.779   3.278 -1.9192 -0.5997 -0.2537
 9372TIP3   OH249530   2.602   6.244   0.598 -0.3601  0.2487 -0.1330
 9372TIP3    H149531   2.517   6.276   0.628 -1.1667 -0.0913 -1.9518
 9372TIP3    H249532   2.594   6.237   0.503  1.5376 -0.2884 -0.3067
 9373TIP3   OH249533   5.124   2.265   0.769  0.0634 -0.3055 -0.0722
 9373TIP3    H149534   5.132   2.265   0.865  2.2085 -0.1167 -0.2193
 9373TIP3    H249535   5.089   2.352   0.749  0.5103  0.0168  0.4912
 9374TIP3   OH249536   0.932   0.355  13.956  0.0972 -0.5805 -0.5611
 9374TIP3    H149537   0.972   0.286  14.007  1.3239  0.5200  0.0329
 9374TIP3    H249538   0.851   0.317  13.921 -2.2444 -0.6962  4.1910
 9375TIP3   OH249539   5.784   6.505  12.902 -0.0056  0.2302  0.5071
 9375TIP3    H149540   5.704   6.466  12.868  0.6692 -0.2434 -0.5910
 9375TIP3    H249541   5.819   6.556  12.829  1.4654 -0.7863  0.4627
 9376TIP3   OH249542   0.504   6.107  11.879 -0.3704  0.5294 -1.0043
 9376TIP3    H149543   0.474   6.183  11.929  0.1112 -0.7661  1.4244
 9376TIP3    H249544   0.562   6.144  11.813  0.8747  2.2644  0.9122
 9377TIP3   OH249545   4.319   2.068   0.241 -0.1374  0.1247 -0.3366
 9377TIP3    H149546   4.319   1.993   0.183  2.2030 -0.5228  0.3928
 9377TIP3    H249547   4.340   2.142   0.184  1.3489 -0.3846 -0.4927
 9378TIP3   OH249548   0.058   4.452   4.606  0.0522 -0.1644 -0.4969
 9378TIP3    H149549   0.124   4.416   4.665  0.5037 -1.6316 -1.8307
 9378TIP3    H249550   0.090   4.540   4.585  0.2197  0.1237  0.8862
 9379TIP3   OH249551   0.290   1.284   1.929  0.0801  0.0161 -0.0328
 9379TIP3    H149552   0.257   1.282   2.019 -0.9123 -1.8204 -0.3854
 9379TIP3    H249553   0.237   1.218   1.883  1.4904 -0.0542 -1.6298
 9380TIP3   OH249554   0.766   1.931  15.815  0.8238  0.7828  0.3981
 9380TIP3    H149555   0.679   1.929  15.854  0.1475  2.2945 -0.8911
 9380TIP3    H249556   0.816   1.993  15.868  0.6853  0.9337  0.3527
 9381TIP3   OH249557   4.030   1.819  16.679  0.2759 -0.6253  0.4106
 9381TIP3    H149558   4.090   1.878  16.724 -1.2462  0.5091  1.0317
 9381TIP3    H249559   4.069   1.732  16.689  1.2962 -0.0532  1.6505
 9382TIP3   OH249560   6.570   4.542   2.290  0.1043 -0.0732 -0.4042
 9382TIP3    H149561   6.645   4.483   2.298 -1.5232 -2.2696 -0.5570
 9382TIP3    H249562   6.499   4.498   2.337 -0.7666  2.6493  1.0742
 9383TIP3   OH249563   0.596   5.906   3.804 -0.5801  0.1553  0.0691
 9383TIP3    H149564   0.670   5.898   3.744  0.7390  0.7632  1.5454
 9383TIP3    H249565   0.524   5.861   3.760  0.9598 -1.4627 -0.9328
 9384TIP3   OH249566   1.029   2.718   4.205 -0.3826 -0.1122 -0.1128
 9384TIP3    H149567   1.060   2.808   4.206 -4.4291  1.5131 -0.9950
 9384TIP3    H249568   0.989   2.707   4.119  1.2363 -3.3575 -0.6226
 9385TIP3   OH249569   2.412   1.956   2.382 -0.8606 -0.0990  0.0516
 9385TIP3    H149570   2.365   1.968   2.465 -1.9950  0.1202 -0.6052
 9385TIP3    H249571   2.489   1.905   2.406 -0.8483  0.4813  1.3473
 9386TIP3   OH249572   0.182   2.989   1.874 -0.1752  0.1971  0.1697
 9386TIP3    H149573   0.194   3.081   1.848  0.1580  0.0082 -0.3574
 9386TIP3    H249574   0.131   2.951   1.802 -0.3591 -0.0216  0.4148
 9387TIP3   OH249575   5.132   5.166   1.259 -0.1786 -0.1146  0.8224
 9387TIP3    H149576   5.217   5.210   1.258  0.0077 -0.4805  0.5907
 9387TIP3    H249577   5.150   5.079   1.296 -0.3977 -0.2985  0.5033
 9388TIP3   OH249578   3.275   4.447  17.145  0.1283 -0.2485  0.2390
 9388TIP3    H149579   3.227   4.465  17.064 -0.8917 -0.3271  0.8049
 9388TIP3    H249580   3.244   4.360  17.172  0.3479 -0.1634  0.7771
 9389TIP3   OH249581   2.518   5.344   5.702  0.0568 -0.1963  0.4919
 9389TIP3    H149582   2.482   5.430   5.681  1.1431 -0.1879 -1.5978
 9389TIP3    H249583   2.464   5.313   5.775 -0.3196  2.2569  1.3594
 9390TIP3   OH249584   5.428   4.983   2.223 -0.1294 -0.0230  0.4980
 9390TIP3    H149585   5.516   4.965   2.191 -0.4895  0.2181 -0.6709
 9390TIP3    H249586   5.410   4.913   2.285  1.1739  0.3523  1.3417
 9391TIP3   OH249587   2.068   3.873  15.006  0.3421 -0.0161 -0.0253
 9391TIP3    H149588   2.068   3.801  15.069  0.3976  0.9000  1.0610
 9391TIP3    H249589   2.137   3.852  14.944  2.0939  0.3020  1.7266
 9392TIP3   OH249590   4.854   4.188   5.922  0.1297  0.4235 -0.3890
 9392TIP3    H149591   4.830   4.181   6.015  0.7946 -0.1471 -0.2523
 9392TIP3    H249592   4.832   4.102   5.886 -0.7179  0.8474 -0.9108
 9393TIP3   OH249593   2.132   1.785   0.979  0.4072  0.3780 -0.4265
 9393TIP3    H149594   2.209   1.773   0.924  1.0021  0.4848  0.3687
 9393TIP3    H249595   2.165   1.777   1.068 -0.7273 -0.9966 -0.0864
 9394TIP3   OH249596   5.643   3.129   0.912  0.2340 -0.9725  0.5972
 9394TIP3    H149597   5.718   3.086   0.872  0.2094  1.2386 -2.0957
 9394TIP3    H249598   5.571   3.112   0.852 -0.6606 -0.3218  1.4556
 9395TIP3   OH249599   4.437   0.377   5.016  0.5204  0.2267  0.0073
 9395TIP3    H149600   4.345   0.379   5.043  0.8595 -0.9907  1.4164
 9395TIP3    H249601   4.486   0.395   5.096  1.5275 -0.0572 -0.5239
 9396TIP3   OH249602   6.144   1.088   4.270  0.1462  0.1164  0.5214
 9396TIP3    H149603   6.154   1.073   4.364 -0.3870  1.6975  0.8727
 9396TIP3    H249604   6.188   1.172   4.255 -0.2496  0.1462 -0.5292
 9397TIP3   OH249605   0.413   5.027   0.961 -0.2918 -0.5455  0.1391
 9397TIP3    H149606   0.327   5.027   1.004 -0.0309  2.4689  0.8853
 9397TIP3    H249607   0.471   5.073   1.022  1.6892 -1.7250 -0.7376
 9398TIP3   OH249608   2.861   1.514  13.118  0.1286  0.3996 -0.3195
 9398TIP3    H149609   2.936   1.465  13.149  0.4605 -0.2221 -2.0028
 9398TIP3    H249610   2.876   1.604  13.149 -0.4681 -0.4536  2.7473
 9399TIP3   OH249611   0.119   1.490   1.149 -0.3666  0.8372  0.5073
 9399TIP3    H149612   0.211   1.507   1.169 -0.1076 -1.7512  1.8945
 9399TIP3    H249613   0.119   1.464   1.057  0.3272  0.6723  0.5477
 9400TIP3   OH249614   5.417   1.347  14.253 -0.0401 -0.5357 -0.0144
 9400TIP3    H149615   5.468   1.292  14.194  1.9612 -1.7224  2.5809
 9400TIP3    H249616   5.455   1.435  14.244  0.7077 -0.8549 -0.0238
 9401TIP3   OH249617   2.662   1.816  16.627  0.3484 -0.2103 -0.8058
 9401TIP3    H149618   2.669   1.854  16.539 -0.3603  1.7969 -0.0293
 9401TIP3    H249619   2.570   1.795  16.637  0.3473 -0.0169 -0.3834
 9402TIP3   OH249620   3.222   0.237   4.021 -0.2208  0.1566  0.3408
 9402TIP3    H149621   3.255   0.322   4.050 -0.7206  0.6839 -0.5925
 9402TIP3    H249622   3.245   0.233   3.928 -1.3657 -0.1360  0.0540
 9403TIP3   OH249623   3.608   5.580   0.837  0.1134 -0.7025 -0.0936
 9403TIP3    H149624   3.520   5.602   0.806 -0.1477 -0.1182  1.0126
 9403TIP3    H249625   3.657   5.558   0.758 -0.7305  0.0242 -0.8319
 9404TIP3   OH249626   1.223   0.588  16.427  0.0598  0.1686 -0.2604
 9404TIP3    H149627   1.232   0.682  16.409 -0.3717  0.1598 -0.5449
 9404TIP3    H249628   1.128   0.575  16.433  0.1456 -0.0945  0.6189
 9405TIP3   OH249629   1.358   6.281   0.241  0.3357  0.1974 -0.5417
 9405TIP3    H149630   1.324   6.225   0.171 -0.2961 -0.4099  0.2308
 9405TIP3    H249631   1.322   6.368   0.222  1.0396  0.2837 -1.5569
 9406TIP3   OH249632   5.185   5.070   5.289  0.5227  0.0142 -0.2986
 9406TIP3    H149633   5.167   5.082   5.196  1.8816 -0.6294 -0.6762
 9406TIP3    H249634   5.277   5.042   5.292  0.1859 -1.0466  1.1514
 9407TIP3   OH249635   4.586   4.911   2.864  0.3751 -0.2509  0.5880
 9407TIP3    H149636   4.569   5.000   2.833  1.6377  1.1247  3.4383
 9407TIP3    H249637   4.613   4.863   2.785 -1.5056  1.5078 -1.2592
 9408TIP3   OH249638   0.588   5.492  12.296 -0.4833 -0.2909 -0.2291
 9408TIP3    H149639   0.564   5.524  12.209 -0.4395 -2.5584 -1.1423
 9408TIP3    H249640   0.504   5.477  12.340 -0.5251 -0.0126 -0.2129
 9409TIP3   OH249641   0.539   5.282  16.034 -0.0093  0.3994  0.3687
 9409TIP3    H149642   0.538   5.286  16.129 -0.8763 -1.0612  0.4484
 9409TIP3    H249643   0.624   5.318  16.009  1.6587 -2.2291  1.8718
 9410TIP3   OH249644   3.817   1.604   1.621 -0.2652 -0.3949 -0.1108
 9410TIP3    H149645   3.799   1.689   1.661  1.3469 -0.9596  2.0131
 9410TIP3    H249646   3.813   1.620   1.527  1.0590  2.3195  0.1919
 9411TIP3   OH249647   4.707   1.259  14.136  0.4438 -0.3179  0.8254
 9411TIP3    H149648   4.783   1.316  14.121  1.4654 -1.6315  0.7622
 9411TIP3    H249649   4.640   1.317  14.171  1.6864  0.7873  1.4711
 9412TIP3   OH249650   6.562   2.356  16.486  0.0251  0.0596  0.5216
 9412TIP3    H149651   6.607   2.440  16.486 -1.4866  0.9205  1.6060
 9412TIP3    H249652   6.580   2.319  16.400 -0.5607  2.2221 -0.5890
 9413TIP3   OH249653   2.052   3.916   0.632  0.0981  0.2092  0.6672
 9413TIP3    H149654   2.016   3.829   0.620  0.0898 -0.0207  2.1561
 9413TIP3    H249655   2.001   3.972   0.574  1.2162 -1.0028 -1.6245
 9414TIP3   OH249656   4.527   6.348   1.173 -0.3520  0.5760 -0.0641
 9414TIP3    H149657   4.487   6.413   1.231  2.3262  1.8607  0.5047
 9414TIP3    H249658   4.570   6.400   1.105  0.5668 -0.6714 -0.4659
 9415TIP3   OH249659   0.312   5.843   0.436 -0.0953  0.3477  0.3932
 9415TIP3    H149660   0.363   5.763   0.451 -0.6065  0.3456  2.3413
 9415TIP3    H249661   0.222   5.817   0.455 -0.5938  0.8505 -1.1358
 9416TIP3   OH249662   0.614   4.450  13.100 -0.2581  0.8906  0.3201
 9416TIP3    H149663   0.616   4.496  13.016  0.7083 -0.0475 -0.1956
 9416TIP3    H249664   0.698   4.403  13.104 -0.9224 -0.2879  1.1195
 9417TIP3   OH249665   2.583   6.694   2.323  0.2068  0.2914 -0.3048
 9417TIP3    H149666   2.533   6.613   2.321  2.0003 -0.9403  1.4858
 9417TIP3    H249667   2.642   6.688   2.248 -0.2703  0.3607 -0.6879
 9418TIP3   OH249668   5.793   5.492   2.592 -0.4433 -0.4819  0.3918
 9418TIP3    H149669   5.769   5.518   2.503 -0.6762  0.5515  0.7367
 9418TIP3    H249670   5.860   5.556   2.617  1.3004 -2.1252  0.1503
 9419TIP3   OH249671   0.977   6.734  11.078  0.6071  0.0606 -0.8672
 9419TIP3    H149672   1.007   6.652  11.039  0.1693 -0.7680  0.4608
 9419TIP3    H249673   0.947   6.787  11.004 -1.5046 -1.9871 -1.5710
 9420TIP3   OH249674   4.214   2.717   1.931  0.1208 -0.6561 -0.2500
 9420TIP3    H149675   4.119   2.706   1.925  0.1543 -1.3942  0.3298
 9420TIP3    H249676   4.236   2.782   1.865 -1.0580  1.0810  0.9957
 9421TIP3   OH249677   4.061   6.274   2.178  0.2292 -0.5777 -0.5372
 9421TIP3    H149678   4.070   6.206   2.246  0.1098 -1.4833 -1.4031
 9421TIP3    H249679   4.150   6.284   2.143  0.6862  1.2286  0.9584
 9422TIP3   OH249680   4.225   2.464  13.112 -0.2129 -0.2874  0.0921
 9422TIP3    H149681   4.168   2.416  13.172  1.2686 -0.2751  1.5928
 9422TIP3    H249682   4.273   2.397  13.065 -1.1013 -0.2894 -0.8561
 9423TIP3   OH249683   0.094   3.641  16.522 -0.3788  0.2316  0.1274
 9423TIP3    H149684   0.146   3.722  16.516 -0.6209  0.2914 -2.1249
 9423TIP3    H249685   0.042   3.641  16.442 -2.5370 -0.7607  1.4555
 9424TIP3   OH249686   6.122   6.555   0.916 -0.2605 -0.2753  0.4898
 9424TIP3    H149687   6.178   6.605   0.856  0.0325 -0.3503  0.6933
 9424TIP3    H249688   6.079   6.621   0.970 -2.1822 -0.0808 -1.1899
 9425TIP3   OH249689   6.339   4.245   1.664 -0.4528  0.2209 -0.0230
 9425TIP3    H149690   6.356   4.339   1.660 -2.6982  0.6513 -1.3329
 9425TIP3    H249691   6.319   4.220   1.574  1.1268 -1.7828  0.1105
 9426TIP3   OH249692   0.433   6.048   3.531 -0.3346 -0.6711  0.1995
 9426TIP3    H149693   0.523   6.028   3.506 -0.5648 -1.9630  0.3129
 9426TIP3    H249694   0.417   6.135   3.496  2.1440  1.2711  3.3081
 9427TIP3   OH249695   1.135   3.498  13.400 -0.2605 -0.0442  0.0365
 9427TIP3    H149696   1.221   3.538  13.389  0.1774 -0.2818  2.1267
 9427TIP3    H249697   1.072   3.568  13.384  0.2381 -0.0445 -2.2529
 9428TIP3   OH249698   3.621   2.683  16.210  0.3187  0.0767  0.0731
 9428TIP3    H149699   3.566   2.725  16.145  1.1043  0.8833 -0.0952
 9428TIP3    H249700   3.702   2.734  16.210  0.8439 -0.7159  0.7298
 9429TIP3   OH249701   2.079   6.556   2.396  0.1410  0.1836 -0.0650
 9429TIP3    H149702   2.024   6.632   2.413  0.1670  0.5225 -1.3680
 9429TIP3    H249703   2.043   6.487   2.451 -0.4450  0.8931  0.4570
 9430TIP3   OH249704   3.772   4.817   2.263  0.3745  0.2111  0.1922
 9430TIP3    H149705   3.763   4.900   2.216  1.0157  1.3126  1.8952
 9430TIP3    H249706   3.840   4.770   2.216  1.0199  1.2872  0.0110
 9431TIP3   OH249707   1.011   6.552  14.225  0.1590  0.2237  0.1386
 9431TIP3    H149708   0.938   6.521  14.172  0.2097  0.3179  0.0124
 9431TIP3    H249709   1.021   6.644  14.200  0.6208  0.0887 -0.1853
 9432TIP3   OH249710   1.327   6.708   2.203  0.1961  0.2959  0.0111
 9432TIP3    H149711   1.267   6.734   2.274  1.6995  2.3733  0.6125
 9432TIP3    H249712   1.396   6.659   2.247  0.5306  0.5862 -0.1855
 9433TIP3   OH249713   3.241   6.091  13.358 -0.2237  0.3792 -0.0468
 9433TIP3    H149714   3.220   6.048  13.275  0.5795 -1.9146  0.8537
 9433TIP3    H249715   3.156   6.115  13.394 -0.6557  0.2400 -0.9341
 9434TIP3   OH249716   3.878   0.390  10.968  0.1751  0.3428 -0.4726
 9434TIP3    H149717   3.968   0.360  10.960 -0.0866 -2.4867  3.9950
 9434TIP3    H249718   3.825   0.320  10.929 -0.1795  0.5532 -0.3765
 9435TIP3   OH249719   2.143   0.071   4.708  0.4753 -0.6308  0.1257
 9435TIP3    H149720   2.234   0.064   4.681  1.1292 -1.9996  2.4042
 9435TIP3    H249721   2.113   0.155   4.673  2.8263  0.1872 -0.0539
 9436TIP3   OH249722   3.663   0.531   1.655  0.1630  0.3296 -0.2823
 9436TIP3    H149723   3.653   0.623   1.631  0.8917  0.5519  0.2203
 9436TIP3    H249724   3.623   0.482   1.583 -1.4948  1.0652  0.0933
 9437TIP3   OH249725   2.465   6.755  11.744 -0.0803  0.4465 -0.5819
 9437TIP3    H149726   2.371   6.772  11.753 -0.4160 -1.0532 -0.9647
 9437TIP3    H249727   2.507   6.819  11.801 -1.4381 -0.1028  1.1427
 9438TIP3   OH249728   3.416   4.748   4.466  0.1725 -0.0826 -0.2074
 9438TIP3    H149729   3.417   4.669   4.520 -0.5550  0.6945  1.0125
 9438TIP3    H249730   3.401   4.717   4.377  1.6735 -1.4297 -0.0309
 9439TIP3   OH249731   4.676   4.890  12.142  0.4281 -0.5823 -0.0583
 9439TIP3    H149732   4.704   4.811  12.096  2.6724  1.2871 -2.1788
 9439TIP3    H249733   4.593   4.915  12.100 -0.1521 -1.6089  0.4450
 9440TIP3   OH249734   6.361   0.770  15.657 -0.0225  0.1354 -0.2223
 9440TIP3    H149735   6.288   0.726  15.699  0.6435 -1.0742 -0.2755
 9440TIP3    H249736   6.359   0.860  15.691 -1.1118 -0.0678  0.2777
 9441TIP3   OH249737   0.947   1.477   1.672 -0.4585  0.2325  0.3314
 9441TIP3    H149738   1.000   1.546   1.713 -0.1117 -0.3086  0.8143
 9441TIP3    H249739   0.898   1.438   1.745 -0.0865 -0.5187  0.1848
 9442TIP3   OH249740   2.756   4.016   3.300 -0.3202 -0.5073 -0.4251
 9442TIP3    H149741   2.746   4.055   3.386 -0.8350 -0.8938 -0.2999
 9442TIP3    H249742   2.678   3.961   3.289 -1.1635  0.8833 -1.8549
 9443TIP3   OH249743   2.667   5.626  13.532 -0.0036  0.9010 -0.5179
 9443TIP3    H149744   2.732   5.556  13.542 -0.2314  0.8103  0.4067
 9443TIP3    H249745   2.708   5.703  13.572  0.0728  1.2026 -1.1545
 9444TIP3   OH249746   0.363   2.767  12.430  0.3574 -0.5582  0.2244
 9444TIP3    H149747   0.392   2.765  12.521  0.6061 -0.5952  0.1473
 9444TIP3    H249748   0.443   2.750  12.379 -0.0819 -2.3689  0.0618
 9445TIP3   OH249749   5.178   3.773   1.672  0.2746 -0.3586 -0.4672
 9445TIP3    H149750   5.120   3.699   1.660  0.1062 -0.1722 -0.8325
 9445TIP3    H249751   5.147   3.838   1.609  1.7870 -0.8069 -1.7435
 9446TIP3   OH249752   4.863   5.451  11.632 -0.0707 -0.2417 -0.1320
 9446TIP3    H149753   4.851   5.448  11.537  1.3551 -1.3508 -0.3191
 9446TIP3    H249754   4.874   5.359  11.657  1.1963  0.1541  0.8564
 9447TIP3   OH249755   1.559   5.332   2.155  0.1744  0.3767  0.1052
 9447TIP3    H149756   1.577   5.242   2.183 -1.1428  0.1538  0.2724
 9447TIP3    H249757   1.469   5.330   2.123  0.6936  1.2680 -1.5056
 9448TIP3   OH249758   5.310   3.452  15.328  0.4127 -1.1044 -0.1525
 9448TIP3    H149759   5.319   3.546  15.310 -0.2243 -1.3264 -1.7989
 9448TIP3    H249760   5.342   3.409  15.249 -0.4554 -2.2374  0.0873
 9449TIP3   OH249761   5.146   2.273   5.305  0.2538 -0.0519  0.4615
 9449TIP3    H149762   5.177   2.348   5.255 -0.6315  0.5301  0.7567
 9449TIP3    H249763   5.180   2.288   5.394  1.0418 -0.6015  0.2591
 9450TIP3   OH249764   0.679   2.160   0.566  0.1211 -0.5894 -0.0126
 9450TIP3    H149765   0.617   2.214   0.518 -0.5438 -0.7898  0.5946
 9450TIP3    H249766   0.644   2.157   0.655 -0.1729 -2.4872 -0.1583
 9451TIP3   OH249767   5.424   4.512   3.211  0.2799  0.0980  0.2798
 9451TIP3    H149768   5.337   4.533   3.243  0.4986 -0.4015  1.2426
 9451TIP3    H249769   5.465   4.462   3.282  0.6104 -1.5293 -0.9743
 9452TIP3   OH249770   1.293   4.603   3.725 -0.1631 -0.3485  0.0819
 9452TIP3    H149771   1.350   4.659   3.674 -1.8744 -0.9139 -2.6668
 9452TIP3    H249772   1.290   4.520   3.677 -0.3379 -1.6612  2.2027
 9453TIP3   OH249773   1.499   4.950   1.611  0.1440  0.4259  0.2900
 9453TIP3    H149774   1.588   4.928   1.637  0.0153 -0.0442  0.3359
 9453TIP3    H249775   1.467   5.006   1.682  1.1626  2.5051 -0.7939
 9454TIP3   OH249776   3.598   4.289  10.398  0.2152 -0.3113  0.4286
 9454TIP3    H149777   3.508   4.309  10.425  0.7295  2.2251  0.5239
 9454TIP3    H249778   3.636   4.243  10.473 -1.2506 -2.3819 -0.0217
 9455TIP3   OH249779   4.297   3.097   6.431  0.4918 -0.1750 -0.1196
 9455TIP3    H149780   4.239   3.059   6.365  1.7454 -2.7714  0.1356
 9455TIP3    H249781   4.321   3.023   6.487  1.4623  1.4489  1.7491
 9456TIP3   OH249782   4.308   6.418  15.670 -0.1236  0.0757 -0.0652
 9456TIP3    H149783   4.290   6.357  15.741  0.8606  2.0973  2.0501
 9456TIP3    H249784   4.224   6.428  15.625 -1.1194 -0.2940  1.6226
 9457TIP3   OH249785   5.714   6.445   1.193 -0.0295 -0.4485  0.2884
 9457TIP3    H149786   5.789   6.410   1.146 -0.5875  0.1045 -1.0411
 9457TIP3    H249787   5.735   6.537   1.207 -0.3000 -0.3791  0.2395
 9458TIP3   OH249788   3.137   5.455   3.046  0.3075 -0.3355  0.0031
 9458TIP3    H149789   3.220   5.491   3.076  0.4989  1.5354 -2.4236
 9458TIP3    H249790   3.081   5.531   3.031 -1.1635 -1.4229 -0.2632
 9459TIP3   OH249791   5.566   5.340  15.763  0.7356 -0.3728 -0.3491
 9459TIP3    H149792   5.554   5.412  15.701 -0.3285 -0.1785  0.0683
 9459TIP3    H249793   5.529   5.373  15.845  0.2771 -1.3769 -0.1428
 9460TIP3   OH249794   6.071   4.905   0.558  0.1036 -0.7858  0.4001
 9460TIP3    H149795   6.070   4.969   0.630 -3.1780 -0.4152  0.1965
 9460TIP3    H249796   6.073   4.820   0.601 -0.2970 -0.5563  0.8843
 9461TIP3   OH249797   5.366   0.319   5.142 -0.2486  0.1557 -0.1207
 9461TIP3    H149798   5.284   0.361   5.116 -0.0885 -0.5016 -1.8083
 9461TIP3    H249799   5.414   0.387   5.190 -1.1660  1.0033 -0.3778
 9462TIP3   OH249800   0.327   2.508  16.407  0.2522 -0.6237 -0.1937
 9462TIP3    H149801   0.274   2.588  16.407  0.3149 -0.5783  0.1624
 9462TIP3    H249802   0.413   2.537  16.436  0.3553 -0.7713 -0.3567
 9463TIP3   OH249803   4.045   4.910   5.517 -0.3516 -0.7846  0.1499
 9463TIP3    H149804   3.981   4.847   5.481 -0.0441 -0.9453 -0.1207
 9463TIP3    H249805   4.066   4.967   5.443 -1.1640  0.0877  0.5784
 9464TIP3   OH249806   0.906   2.024  14.983 -0.8532 -0.4655  0.1780
 9464TIP3    H149807   0.984   2.007  15.035 -1.9431  0.0171  2.0701
 9464TIP3    H249808   0.922   1.980  14.900  2.3359  1.3878 -0.3572
 9465TIP3   OH249809   0.106   4.824  11.423  0.4742  0.2898 -0.5093
 9465TIP3    H149810   0.039   4.884  11.457  1.4278  0.9589  0.2573
 9465TIP3    H249811   0.075   4.737  11.447 -0.3828  0.5437 -0.6436
 9466TIP3   OH249812   6.397   1.287  15.269 -0.1186 -0.5234  0.5769
 9466TIP3    H149813   6.425   1.358  15.211 -1.9467 -1.1557 -1.1979
 9466TIP3    H249814   6.367   1.331  15.348  0.2617  0.5592  0.1380
 9467TIP3   OH249815   2.561   0.588  12.700  0.1376 -0.1097  0.3206
 9467TIP3    H149816   2.622   0.634  12.644 -0.5178  0.5987  0.1734
 9467TIP3    H249817   2.559   0.639  12.781 -0.5469  0.0982  0.1805
 9468TIP3   OH249818   1.387   1.519   2.517  0.2665 -0.8360  0.1060
 9468TIP3    H149819   1.304   1.565   2.531 -0.2878 -1.8028  0.0738
 9468TIP3    H249820   1.445   1.586   2.479 -0.7557 -0.3647 -0.6888
 9469TIP3   OH249821   6.007   1.235   2.526  0.3225  0.8439  0.3905
 9469TIP3    H149822   5.981   1.234   2.434 -1.7913  0.0354  0.9414
 9469TIP3    H249823   6.004   1.143   2.553  1.4572  1.0087  1.1497
 9470TIP3   OH249824   1.253   2.743  10.854  0.5235  0.0310  0.1934
 9470TIP3    H149825   1.191   2.814  10.835  0.2583 -0.1368  0.4217
 9470TIP3    H249826   1.251   2.735  10.950  1.1516  0.2524  0.2289
 9471TIP3   OH249827   5.370   6.293   3.110  0.0582  0.1066 -0.0088
 9471TIP3    H149828   5.296   6.246   3.071  0.1474  0.0832 -0.1515
 9471TIP3    H249829   5.330   6.351   3.174 -0.1049  0.2441 -0.2320
 9472TIP3   OH249830   4.600   5.269   6.214  0.0925 -0.0989  0.1154
 9472TIP3    H149831   4.593   5.271   6.118  1.3012  1.0301  0.0281
 9472TIP3    H249832   4.565   5.183   6.238 -3.9183  0.9891 -0.9569
 9473TIP3   OH249833   0.087   3.328  13.982  0.2234  0.0965 -0.1060
 9473TIP3    H149834   0.107   3.421  13.988 -2.0669  0.6824 -0.5666
 9473TIP3    H249835   0.087   3.309  13.888  1.7139 -0.6499  0.0193
 9474TIP3   OH249836   5.729   2.319   1.867  0.1995  0.1067 -0.3920
 9474TIP3    H149837   5.643   2.358   1.878  0.1676  0.2403 -1.0480
 9474TIP3    H249838   5.772   2.331   1.952 -0.1298  0.7711 -0.3089
 9475TIP3   OH249839   2.809   5.215   4.063 -0.3771 -0.1789 -0.1243
 9475TIP3    H149840   2.887   5.233   4.011  1.2239 -1.6253  1.6402
 9475TIP3    H249841   2.783   5.127   4.038  0.0314 -0.6382  0.9949
 9476TIP3   OH249842   0.453   3.849  11.393  0.4527  0.2383  0.1941
 9476TIP3    H149843   0.547   3.843  11.375  1.2351  2.3008  2.9380
 9476TIP3    H249844   0.441   3.805  11.477 -1.0847 -0.0827 -0.1583
 9477TIP3   OH249845   2.676   1.793   4.339  0.2093  0.0960 -0.7130
 9477TIP3    H149846   2.613   1.850   4.383 -1.1064  0.4057 -2.8309
 9477TIP3    H249847   2.695   1.838   4.256  2.4904 -0.4948 -0.5751
 9478TIP3   OH249848   2.396   2.690  15.999  0.2612 -0.2623 -0.3134
 9478TIP3    H149849   2.348   2.612  16.027  0.7504 -0.7421 -0.7857
 9478TIP3    H249850   2.394   2.687  15.904 -0.4585  0.7818 -0.3478
 9479TIP3   OH249851   6.474   1.357   5.686 -0.3557 -0.4089  0.1874
 9479TIP3    H149852   6.394   1.348   5.738 -0.1274  0.3853  0.6812
 9479TIP3    H249853   6.512   1.440   5.714  0.1417 -0.3107 -0.7406
 9480TIP3   OH249854   2.085   5.946   1.800  0.1238 -0.2410 -0.7230
 9480TIP3    H149855   2.095   6.024   1.854  1.5518  0.6680 -2.1972
 9480TIP3    H249856   1.993   5.922   1.810 -0.7782  2.5181 -1.2991
 9481TIP3   OH249857   4.814   0.639  15.180 -0.1946  0.2647  0.6193
 9481TIP3    H149858   4.733   0.614  15.225  0.5795  0.0908  1.9971
 9481TIP3    H249859   4.852   0.707  15.236  0.5153  0.4738 -0.1075
 9482TIP3   OH249860   3.986   2.533   0.924  0.2006 -0.2683 -0.3006
 9482TIP3    H149861   4.043   2.609   0.938  0.2135 -0.0816 -1.3237
 9482TIP3    H249862   4.043   2.458   0.939  0.5368 -0.0793 -0.6183
 9483TIP3   OH249863   1.471   1.323  15.577  0.2836 -0.3815 -0.4867
 9483TIP3    H149864   1.552   1.358  15.612  0.0913 -0.3585 -0.0560
 9483TIP3    H249865   1.455   1.373  15.497  0.0884  0.4089  0.0416
 9484TIP3   OH249866   5.773   6.005  13.579 -0.4814  0.3716  0.0632
 9484TIP3    H149867   5.808   5.917  13.584  1.5974  1.1854  0.7895
 9484TIP3    H249868   5.735   6.011  13.492 -0.1322 -1.0391 -0.2053
 9485TIP3   OH249869   6.226   1.019  10.835  0.3715  0.0234  0.3014
 9485TIP3    H149870   6.270   1.096  10.798  1.0789  0.1967  1.4493
 9485TIP3    H249871   6.228   0.954  10.764 -1.6572  1.5324 -1.2647
 9486TIP3   OH249872   0.531   3.425  14.424  0.5167 -0.2170  0.0045
 9486TIP3    H149873   0.611   3.469  14.454 -0.4930  0.9447  1.1544
 9486TIP3    H249874   0.483   3.494  14.378 -0.1296 -0.6970 -0.0482
 9487TIP3   OH249875   0.755   0.996   1.420 -0.0352  0.8490 -0.4475
 9487TIP3    H149876   0.714   0.977   1.336  1.3040 -3.4805 -0.3386
 9487TIP3    H249877   0.701   0.950   1.484  1.1057  0.8891  0.5769
 9488TIP3   OH249878   4.074   1.356   4.248  0.4708  0.1802 -0.0070
 9488TIP3    H149879   4.052   1.371   4.156 -2.3218 -1.1291  0.3513
 9488TIP3    H249880   4.093   1.262   4.253  0.4597  0.2116  0.7725
 9489TIP3   OH249881   4.467   1.728  16.070 -0.0662  0.1368 -0.1510
 9489TIP3    H149882   4.533   1.659  16.075 -0.4142 -0.1502  0.8487
 9489TIP3    H249883   4.420   1.712  15.988 -0.1681 -0.8518  0.0917
 9490TIP3   OH249884   6.675   5.984   2.777  0.1170 -0.0284 -0.7458
 9490TIP3    H149885   6.722   5.928   2.715  3.7143  3.6435 -1.7685
 9490TIP3    H249886   6.620   6.039   2.722 -0.7868 -0.2455 -0.0860
 9491TIP3   OH249887   5.074   2.303  11.510 -0.2200 -0.4269 -0.1595
 9491TIP3    H149888   5.138   2.232  11.509  0.4996  0.2054 -1.6215
 9491TIP3    H249889   5.002   2.272  11.455 -1.0380 -0.9936  1.1955
 9492TIP3   OH249890   4.029   2.322  12.583 -0.1206  0.5259 -0.2060
 9492TIP3    H149891   3.999   2.332  12.493  0.4813  1.3654 -0.3264
 9492TIP3    H249892   4.072   2.405  12.603  1.7299 -0.4600  0.0940
 9493TIP3   OH249893   4.201   0.035  10.663 -0.3266 -0.2904  0.2420
 9493TIP3    H149894   4.142   0.110  10.668 -2.0703 -1.5747  0.0640
 9493TIP3    H249895   4.198   0.009  10.571 -2.1450 -2.3260  0.7911
 9494TIP3   OH249896   4.880   5.959   3.919 -0.8706  0.1683  0.3294
 9494TIP3    H149897   4.825   5.880   3.927 -0.1337 -0.2370  1.6970
 9494TIP3    H249898   4.872   5.984   3.827 -0.4979 -1.9714 -0.3483
 9495TIP3   OH249899   5.027   0.304   6.073  0.4584  0.1575  0.6555
 9495TIP3    H149900   4.952   0.360   6.095  1.0920  1.5761 -0.6742
 9495TIP3    H249901   4.987   0.219   6.052 -0.6649  0.5461  1.1075
 9496TIP3   OH249902   1.633   6.347  13.780 -0.6209  0.6294 -0.1470
 9496TIP3    H149903   1.546   6.346  13.821 -1.5876  2.4549 -1.9673
 9496TIP3    H249904   1.686   6.401  13.838 -0.6433 -0.5635  1.0232
 9497TIP3   OH249905   0.409   2.249   6.300  0.0537 -0.1363  0.9026
 9497TIP3    H149906   0.431   2.341   6.295 -1.3118  0.2073  0.6332
 9497TIP3    H249907   0.451   2.209   6.224 -1.1434  0.6903 -0.2316
 9498TIP3   OH249908   3.082   2.804  16.978  0.1864  0.0457  0.4124
 9498TIP3    H149909   3.017   2.874  16.974  3.2036  3.0754 -1.0831
 9498TIP3    H249910   3.109   2.803  17.070 -0.6474  0.0732  0.6642
 9499TIP3   OH249911   5.110   3.124   1.277  0.4550 -0.1376  0.1345
 9499TIP3    H149912   5.030   3.176   1.285  1.4162  1.1987  1.6493
 9499TIP3    H249913   5.113   3.098   1.185 -0.6614  1.5167 -0.4077
 9500TIP3   OH249914   3.082   4.126  14.256  0.0927 -0.1692 -0.4016
 9500TIP3    H149915   3.175   4.148  14.263  0.1930 -0.5720 -0.4326
 9500TIP3    H249916   3.041   4.206  14.226  0.1061  0.6965  1.7170
 9501TIP3   OH249917   5.145   3.573   0.373  0.1355  0.3472  0.3623
 9501TIP3    H149918   5.161   3.529   0.289 -1.0135 -0.2983  0.4639
 9501TIP3    H249919   5.052   3.598   0.370  0.6951  2.6909  0.3570
 9502TIP3   OH249920   1.500   6.452  11.845 -0.6873 -0.0047  0.4224
 9502TIP3    H149921   1.443   6.529  11.854 -0.0653  0.3157  2.0191
 9502TIP3    H249922   1.572   6.469  11.906  1.3234 -0.2541 -1.7272
 9503TIP3   OH249923   1.201   1.370  11.283  0.8301 -0.5488  0.3293
 9503TIP3    H149924   1.181   1.463  11.293  1.0553 -0.6597  1.9907
 9503TIP3    H249925   1.199   1.335  11.372  0.8710 -2.1182 -0.2574
 9504TIP3   OH249926   4.407   2.200   1.645  0.2468 -0.0951 -0.4102
 9504TIP3    H149927   4.380   2.168   1.732  0.5972  0.6678 -0.0122
 9504TIP3    H249928   4.350   2.153   1.584 -2.0353  1.4723  0.3957
 9505TIP3   OH249929   5.842   1.415  14.036 -0.4397 -0.4871  0.0555
 9505TIP3    H149930   5.819   1.507  14.029 -1.4059 -0.6521  0.7408
 9505TIP3    H249931   5.845   1.384  13.946 -0.8128  0.0602 -0.1532
 9506TIP3   OH249932   5.500   0.831   0.108  0.4520  0.1316  0.1796
 9506TIP3    H149933   5.498   0.887   0.030  0.9695  0.5856  0.4857
 9506TIP3    H249934   5.409   0.824   0.135  0.2302 -0.2364 -0.6024
 9507TIP3   OH249935   6.098   4.719  16.655  0.2945  0.2562 -0.0181
 9507TIP3    H149936   6.115   4.694  16.564  0.6749 -1.1678  0.4283
 9507TIP3    H249937   6.026   4.782  16.649  0.4282  0.3092 -1.3105
 9508TIP3   OH249938   0.366   4.092   5.283  0.1423 -0.0126  0.3974
 9508TIP3    H149939   0.391   4.170   5.234  0.4977 -0.9449 -0.9669
 9508TIP3    H249940   0.270   4.093   5.285  0.1006 -0.2370 -0.8277
 9509TIP3   OH249941   5.663   5.536   4.332  0.2298  0.3774  0.2886
 9509TIP3    H149942   5.634   5.497   4.414  0.1675 -2.3063 -0.9248
 9509TIP3    H249943   5.582   5.565   4.289 -0.0094 -0.5537  0.0824
 9510TIP3   OH249944   2.124   6.734   2.680  0.0081 -0.1569  0.4275
 9510TIP3    H149945   2.104   6.818   2.640 -1.6861 -0.7910 -0.1233
 9510TIP3    H249946   2.041   6.704   2.716 -0.4650 -3.3454 -2.7286
 9511TIP3   OH249947   6.481   3.858   5.103  0.8350  0.6417 -0.5846
 9511TIP3    H149948   6.420   3.929   5.081  1.0738  0.5799 -1.5227
 9511TIP3    H249949   6.445   3.819   5.182  0.0070  1.0210 -0.7552
 9512TIP3   OH249950   4.254   3.288  16.885  0.2560  0.3754 -0.3446
 9512TIP3    H149951   4.292   3.284  16.796  0.5410  1.2497 -0.2716
 9512TIP3    H249952   4.171   3.240  16.878  0.1179  0.7199 -1.1684
 9513TIP3   OH249953   6.506   1.810  16.121 -0.3778  0.3827 -0.2948
 9513TIP3    H149954   6.571   1.861  16.074  0.3930 -1.2551 -1.0770
 9513TIP3    H249955   6.447   1.777  16.052 -3.0231  3.0192  0.4879
 9514TIP3   OH249956   4.989   6.507  17.033  0.4694 -0.4831 -0.1737
 9514TIP3    H149957   5.041   6.520  16.953 -1.0353  0.9823 -0.9649
 9514TIP3    H249958   4.971   6.595  17.065 -0.3017 -1.0088  0.9036
 9515TIP3   OH249959   1.528   0.260  17.054  0.5182  0.0862 -0.7567
 9515TIP3    H149960   1.543   0.178  17.008 -0.6762 -0.3224 -0.4494
 9515TIP3    H249961   1.476   0.235  17.130  0.3315  1.1018 -0.5430
 9516TIP3   OH249962   4.294   1.219  16.929  0.6887  0.1488 -0.1202
 9516TIP3    H149963   4.292   1.162  16.852  0.5959 -0.8508  0.6112
 9516TIP3    H249964   4.384   1.214  16.961  0.0789 -1.7212  1.4792
 9517TIP3   OH249965   3.346   5.518  15.509 -0.2252 -0.9844 -0.0415
 9517TIP3    H149966   3.394   5.482  15.435  0.3653 -1.9410  0.7906
 9517TIP3    H249967   3.413   5.561  15.563 -0.6807 -0.0996 -0.1548
 9518TIP3   OH249968   4.583   2.862  14.846  0.2657 -0.0986  0.6116
 9518TIP3    H149969   4.525   2.808  14.791  0.1139  1.5714 -0.9871
 9518TIP3    H249970   4.661   2.808  14.859 -0.3968 -1.1931  0.1766
 9519TIP3   OH249971   3.283   2.664  15.847  0.5372  0.3961 -0.2685
 9519TIP3    H149972   3.324   2.615  15.775  0.0408 -1.3457  0.5954
 9519TIP3    H249973   3.211   2.711  15.806  0.3521 -0.4585 -0.9444
 9520TIP3   OH249974   5.917   2.556  13.937  0.1052  0.9867 -0.3724
 9520TIP3    H149975   5.880   2.549  13.849  2.4234  2.4317 -1.5648
 9520TIP3    H249976   5.897   2.645  13.965  1.2074  1.2590 -0.3852
 9521TIP3   OH249977   3.194   4.282   2.436  0.7861  0.4200 -0.0099
 9521TIP3    H149978   3.252   4.262   2.362 -1.7541  1.6068 -2.5277
 9521TIP3    H249979   3.169   4.196   2.470 -0.5060 -0.4293 -2.7570
 9522TIP3   OH249980   0.870   2.783  13.583 -0.2770  0.0225 -0.3526
 9522TIP3    H149981   0.853   2.873  13.608  2.0097  0.6564 -0.8649
 9522TIP3    H249982   0.959   2.765  13.613 -0.6227 -2.0355 -0.3633
 9523TIP3   OH249983   0.000   4.428   3.643  0.1253  0.4952  0.0025
 9523TIP3    H149984   0.086   4.398   3.672  0.3002  2.5128  1.8335
 9523TIP3    H249985   0.019   4.504   3.588 -0.4648  0.5036 -0.1912
 9524TIP3   OH249986   1.959   0.199   3.837 -0.0857  0.0112 -0.4209
 9524TIP3    H149987   2.019   0.126   3.838 -1.9065 -1.5755 -0.8290
 9524TIP3    H249988   1.956   0.228   3.746 -0.7484 -0.6297 -0.6076
 9525TIP3   OH249989   2.372   0.552  12.497 -0.6430  0.2229 -0.5131
 9525TIP3    H149990   2.440   0.592  12.551 -0.4549  1.9154 -1.9397
 9525TIP3    H249991   2.334   0.485  12.554  2.4469 -1.1094  0.1978
 9526TIP3   OH249992   5.065   0.320  13.698 -0.1837 -0.4676 -0.2595
 9526TIP3    H149993   5.054   0.249  13.634 -0.2524  0.4287 -1.2610
 9526TIP3    H249994   5.139   0.371  13.665  0.5252 -0.6315  1.0053
 9527TIP3   OH249995   3.435   1.243  13.789 -0.1999  0.5485 -0.0314
 9527TIP3    H149996   3.515   1.297  13.789 -0.0494  0.3343 -0.6685
 9527TIP3    H249997   3.373   1.293  13.841 -0.7866  2.4418 -2.3656
 9528TIP3   OH249998   4.107   5.976  11.088  0.5412  0.0914 -0.3371
 9528TIP3    H149999   4.053   5.978  11.009  0.9420  0.9984 -0.6003
 9528TIP3    H250000   4.195   5.998  11.057  0.9660 -0.7945  0.1752
 9529TIP3   OH250001   4.826   3.879   0.190 -0.1157 -0.2566 -0.3214
 9529TIP3    H150002   4.749   3.930   0.165  0.2637 -0.1064 -1.2290
 9529TIP3    H250003   4.851   3.913   0.277 -2.6451 -2.1577  1.2763
 9530TIP3   OH250004   1.287   2.909   1.999  0.2068  0.3882  0.2523
 9530TIP3    H150005   1.255   2.858   1.925  0.2135  1.5452 -0.5826
 9530TIP3    H250006   1.218   2.973   2.015 -0.3397 -0.5818  2.0415
 9531TIP3   OH250007   5.076   5.312  17.063  0.6461 -0.0406  0.1279
 9531TIP3    H150008   5.074   5.397  17.020  1.2290  0.0436  0.2627
 9531TIP3    H250009   5.136   5.260  17.010 -1.5524 -1.1748 -1.4226
 9532TIP3   OH250010   1.444   5.354   0.969  0.3659 -0.0502 -0.0801
 9532TIP3    H150011   1.522   5.406   0.984 -0.6760  1.2346  1.1250
 9532TIP3    H250012   1.457   5.275   1.022 -0.0270  1.1019  1.8125
 9533TIP3   OH250013   4.198   1.686  11.347  0.2281  0.1121 -0.2887
 9533TIP3    H150014   4.187   1.694  11.442  0.2549  0.0228 -0.2783
 9533TIP3    H250015   4.288   1.714  11.331  0.2917 -0.0800 -0.2632
 9534TIP3   OH250016   4.026   0.530   2.615 -0.1500 -0.0292 -0.4870
 9534TIP3    H150017   4.050   0.530   2.522 -0.5303  0.1225 -0.5906
 9534TIP3    H250018   4.064   0.450   2.650 -0.9334 -0.6646 -1.0286
 9535TIP3   OH250019   3.427   1.770  16.607  0.2687 -0.4492  0.2080
 9535TIP3    H150020   3.450   1.854  16.647 -2.0626  0.9209 -1.0910
 9535TIP3    H250021   3.400   1.715  16.680  1.0562  0.1970  1.0088
 9536TIP3   OH250022   6.337   4.600   3.334  0.1153  0.0473  0.3606
 9536TIP3    H150023   6.374   4.574   3.250 -0.3071 -0.9570  0.4745
 9536TIP3    H250024   6.302   4.519   3.371  1.4967  0.1908  2.1233
 9537TIP3   OH250025   1.092   6.492  16.926  0.5601  0.0650 -0.1496
 9537TIP3    H150026   1.166   6.518  16.980  1.1242  0.8901 -1.2705
 9537TIP3    H250027   1.120   6.408  16.887 -0.0143 -0.7421  1.1048
 9538TIP3   OH250028   4.097   0.823  11.467 -0.3423 -0.5231 -0.0128
 9538TIP3    H150029   4.030   0.873  11.420  0.4562 -0.4359 -1.0870
 9538TIP3    H250030   4.050   0.748  11.503 -1.0543 -0.3724 -0.6009
 9539TIP3   OH250031   4.620   1.854   0.509  0.1244  0.1282 -0.1206
 9539TIP3    H150032   4.674   1.865   0.588 -0.9604  1.8631  0.4475
 9539TIP3    H250033   4.561   1.782   0.531 -0.9339  1.3220  1.1701
 9540TIP3   OH250034   6.613   5.055  13.532 -0.0903  0.2997  0.1886
 9540TIP3    H150035   6.621   5.003  13.611  1.4904 -1.4000 -1.0212
 9540TIP3    H250036   6.701   5.057  13.495 -0.9484  0.2343 -2.0136
 9541TIP3   OH250037   4.753   6.412  12.293  0.3450  0.3252 -0.2155
 9541TIP3    H150038   4.784   6.321  12.294  1.0954  0.5713 -0.0934
 9541TIP3    H250039   4.684   6.415  12.358  1.1422  0.1110  0.6675
 9542TIP3   OH250040   3.283   1.832  11.753 -0.5586 -0.0850 -0.1765
 9542TIP3    H150041   3.347   1.776  11.796  0.1446  1.0743  0.3280
 9542TIP3    H250042   3.223   1.771  11.709  1.1607 -1.1949 -1.0900
 9543TIP3   OH250043   0.092   6.083   4.555 -0.2456  0.2187 -0.1744
 9543TIP3    H150044   0.118   6.136   4.630 -1.4825 -0.0087  0.4511
 9543TIP3    H250045   0.167   6.086   4.495  1.7372 -1.4336  2.0178
 9544TIP3   OH250046   2.566   1.241  15.948 -0.0193 -0.1279  0.1532
 9544TIP3    H150047   2.639   1.198  15.904 -1.3551 -2.0147 -0.3216
 9544TIP3    H250048   2.594   1.249  16.039  0.4313 -1.6789  0.1714
 9545TIP3   OH250049   2.985   2.135  15.751  0.0971  0.2952  1.0891
 9545TIP3    H150050   2.916   2.195  15.722  0.6274  0.4202  0.0453
 9545TIP3    H250051   2.944   2.083  15.820 -0.5574  1.4385  1.5842
 9546TIP3   OH250052   1.431   4.342   6.297 -0.5035  0.4148 -0.2534
 9546TIP3    H150053   1.450   4.286   6.221  0.8638  1.2672 -0.5702
 9546TIP3    H250054   1.406   4.280   6.366 -0.6996 -0.4565 -1.0738
 9547TIP3   OH250055   5.102   0.382   3.450  0.0717  0.4805 -0.4418
 9547TIP3    H150056   5.123   0.373   3.357  1.4177 -1.1616 -0.0296
 9547TIP3    H250057   5.035   0.314   3.466  1.5945 -0.9404  0.2349
 9548TIP3   OH250058   2.766   4.934   6.294  0.0720  0.3753 -0.1210
 9548TIP3    H150059   2.735   4.879   6.223 -0.5780  2.5741 -1.6698
 9548TIP3    H250060   2.724   4.900   6.372 -0.9920 -0.7497 -1.1579
 9549TIP3   OH250061   1.851   4.822  11.207  0.0452  0.9543 -0.0166
 9549TIP3    H150062   1.870   4.891  11.143  1.6827 -0.2336 -0.8860
 9549TIP3    H250063   1.894   4.850  11.287 -1.6708  2.2553  0.5026
 9550TIP3   OH250064   2.252   4.328  16.414 -0.7522  0.4335 -0.6220
 9550TIP3    H150065   2.261   4.402  16.354 -1.5841  0.9338 -0.1400
 9550TIP3    H250066   2.169   4.342  16.458  0.7505  1.2072  2.2039
 9551TIP3   OH250067   4.435   0.461   2.016 -0.3237 -0.1614 -0.4283
 9551TIP3    H150068   4.447   0.549   2.051  1.8945 -0.7461  0.4174
 9551TIP3    H250069   4.373   0.419   2.076 -0.5170  0.4627 -0.1865
 9552TIP3   OH250070   2.143   3.798  11.399  0.2248 -0.2032 -0.8665
 9552TIP3    H150071   2.097   3.865  11.349  0.9781  0.3429 -0.8343
 9552TIP3    H250072   2.236   3.817  11.387  0.5096 -2.1052 -2.0656
 9553TIP3   OH250073   3.912   0.251  12.635 -0.3026 -0.1967 -0.0383
 9553TIP3    H150074   3.990   0.304  12.651 -0.2200  0.9730 -3.3788
 9553TIP3    H250075   3.840   0.314  12.638 -0.3514  0.0195 -2.7268
 9554TIP3   OH250076   6.387   2.572  17.248 -0.6523  0.4848 -0.3246
 9554TIP3    H150077   6.406   2.538  17.160  1.2933 -1.9738  0.9296
 9554TIP3    H250078   6.469   2.612  17.276 -0.4952 -0.8196  1.1980
 9555TIP3   OH250079   2.322   5.807  13.582  0.6253  0.1605 -0.3655
 9555TIP3    H150080   2.352   5.892  13.550 -1.8126  1.1397 -0.2761
 9555TIP3    H250081   2.235   5.824  13.619  0.1949 -2.3054 -0.0292
 9556TIP3   OH250082   2.163   5.492  16.557  0.4956  0.1490  0.4647
 9556TIP3    H150083   2.192   5.415  16.507  2.1569  0.3334  1.0647
 9556TIP3    H250084   2.169   5.464  16.648 -2.8009 -0.2837  0.6445
 9557TIP3   OH250085   6.490   2.346  11.839 -0.1432  0.4481  0.2415
 9557TIP3    H150086   6.422   2.408  11.865 -0.6474 -0.4610  1.1509
 9557TIP3    H250087   6.562   2.361  11.900  0.0066  0.6001  0.0281
 9558TIP3   OH250088   5.658   0.185   5.404  0.2221 -0.0278  0.5108
 9558TIP3    H150089   5.688   0.129   5.475  0.1723 -1.1584 -0.3387
 9558TIP3    H250090   5.605   0.128   5.348 -1.3715  1.2954  0.5850
 9559TIP3   OH250091   1.544   1.915  11.009  0.0896  0.5162  0.3091
 9559TIP3    H150092   1.602   1.871  11.071 -0.3070  1.3064  1.2675
 9559TIP3    H250093   1.602   1.951  10.942  0.5175 -0.3830  0.1858
 9560TIP3   OH250094   3.901   6.158  15.428  0.1982 -0.2203 -0.4917
 9560TIP3    H150095   3.852   6.079  15.448  2.2229 -2.6907 -4.0444
 9560TIP3    H250096   3.835   6.220  15.397 -1.2387 -1.2295  0.4262
 9561TIP3   OH250097   5.978   1.367  14.300 -0.3156 -0.1404  0.0092
 9561TIP3    H150098   5.954   1.307  14.229  2.0347  1.0391 -1.9478
 9561TIP3    H250099   6.004   1.447  14.255 -1.3963  1.6867  2.4326
 9562TIP3   OH250100   2.825   1.373   2.460 -0.7144  0.2074  0.1932
 9562TIP3    H150101   2.915   1.360   2.491  0.0668  1.7438 -1.2363
 9562TIP3    H250102   2.828   1.345   2.368 -1.4948  0.9804 -0.0796
 9563TIP3   OH250103   4.270   5.292   5.073  0.4021  0.3192  0.0294
 9563TIP3    H150104   4.281   5.317   5.165  0.6466  3.0760 -0.6813
 9563TIP3    H250105   4.262   5.375   5.026 -0.8070 -1.0468 -2.3358
 9564TIP3   OH250106   3.420   5.025  11.601 -0.2906  0.1362 -0.1676
 9564TIP3    H150107   3.380   5.106  11.571 -0.6832 -0.1782 -0.4964
 9564TIP3    H250108   3.358   4.956  11.576 -0.2705 -0.2062  0.6947
 9565TIP3   OH250109   1.017   3.752  13.296 -0.0056  0.1465  1.4941
 9565TIP3    H150110   1.010   3.802  13.377  1.4456  0.1586  1.6381
 9565TIP3    H250111   1.070   3.807  13.238 -0.0736 -0.3564  0.9343
 9566TIP3   OH250112   4.910   2.213   3.665  0.2024  0.2013 -0.2251
 9566TIP3    H150113   4.998   2.236   3.633  0.0242  0.7325 -0.3417
 9566TIP3    H250114   4.887   2.285   3.724 -0.0928 -0.0196 -0.0715
 9567TIP3   OH250115   0.520   6.276   6.122  0.7766  0.6758  0.8638
 9567TIP3    H150116   0.572   6.207   6.162  1.8294  0.7028 -0.4088
 9567TIP3    H250117   0.570   6.303   6.044 -1.5121  0.0936 -0.9301
 9568TIP3   OH250118   0.373   0.690  14.254 -0.0755 -0.3701 -0.3399
 9568TIP3    H150119   0.428   0.693  14.176 -0.3357 -0.8472 -0.5461
 9568TIP3    H250120   0.343   0.780  14.265  0.0683 -0.2716 -0.7110
 9569TIP3   OH250121   0.305   3.847   3.656  0.2750 -0.6158 -0.3513
 9569TIP3    H150122   0.363   3.895   3.715 -1.5676 -1.9833  2.8429
 9569TIP3    H250123   0.221   3.893   3.663 -1.1213 -3.1538  1.6025
 9570TIP3   OH250124   2.380   6.359  12.788 -0.3593  0.6318 -0.4688
 9570TIP3    H150125   2.341   6.397  12.867  0.3479 -0.4485  0.4276
 9570TIP3    H250126   2.397   6.268  12.811 -1.5171 -0.1206 -2.3841
 9571TIP3   OH250127   4.936   5.138   4.457  0.1476 -0.0533  0.3368
 9571TIP3    H150128   5.003   5.099   4.401  2.1166  0.7822  1.9753
 9571TIP3    H250129   4.958   5.108   4.545 -0.7417  1.4422  1.1188
 9572TIP3   OH250130   5.418   5.332   5.573  0.3175  0.0498 -0.2397
 9572TIP3    H150131   5.400   5.364   5.661  0.4097 -0.6924  0.0539
 9572TIP3    H250132   5.502   5.372   5.549 -0.2167  1.1019 -0.4232
 9573TIP3   OH250133   0.688   4.722  15.138 -0.5019  0.3462  0.4487
 9573TIP3    H150134   0.640   4.737  15.056  0.5735  0.1449 -0.2501
 9573TIP3    H250135   0.780   4.722  15.111 -0.2074 -2.4067  1.2174
 9574TIP3   OH250136   5.067   3.825  11.841 -0.3559 -0.8330  0.0162
 9574TIP3    H150137   5.103   3.768  11.909  1.2090 -0.2814 -0.2878
 9574TIP3    H250138   5.133   3.895  11.832 -1.9781  0.7696  0.0589
 9575TIP3   OH250139   2.747   0.753   1.857  0.0085  0.2021  0.4419
 9575TIP3    H150140   2.724   0.670   1.896 -0.6628  1.6193  3.3186
 9575TIP3    H250141   2.842   0.749   1.847 -0.0343 -0.9419  0.3681
 9576TIP3   OH250142   2.418   6.240   3.667 -0.1455  0.3054 -0.9126
 9576TIP3    H150143   2.369   6.279   3.594  0.8145 -2.4884 -3.2566
 9576TIP3    H250144   2.507   6.276   3.657  0.0441 -0.2578 -1.3046
 9577TIP3   OH250145   4.614   1.144  13.010  0.2409 -0.4229  0.5243
 9577TIP3    H150146   4.589   1.134  13.102  1.8692  0.4938  1.0976
 9577TIP3    H250147   4.698   1.099  13.003  0.4637  0.1147 -0.3542
 9578TIP3   OH250148   0.461   3.563   6.465  0.6765  0.4403  0.2839
 9578TIP3    H150149   0.514   3.486   6.447 -1.3423 -0.6742 -1.2903
 9578TIP3    H250150   0.423   3.587   6.380 -0.7757  1.5904  1.2030
 9579TIP3   OH250151   0.334   6.219   2.080  0.0196 -0.7095  0.1690
 9579TIP3    H150152   0.400   6.154   2.058 -1.8441 -2.3367 -0.8784
 9579TIP3    H250153   0.253   6.170   2.089 -0.8314  0.9287  3.2415
 9580TIP3   OH250154   2.164   1.451   5.247 -0.1890 -0.0873 -0.0800
 9580TIP3    H150155   2.178   1.384   5.314 -0.7582 -1.9199 -1.7032
 9580TIP3    H250156   2.250   1.461   5.206 -0.3015 -0.5062 -0.4256
 9581TIP3   OH250157   1.857   1.674  12.555  0.5204 -0.0104  0.1284
 9581TIP3    H150158   1.890   1.652  12.468  2.0214  2.1345  0.0943
 9581TIP3    H250159   1.912   1.622  12.614  0.5313 -0.2897 -0.1203
 9582TIP3   OH250160   0.173   0.100  12.910  0.5332  0.3681  0.2197
 9582TIP3    H150161   0.111   0.142  12.850  1.4748  0.2485 -0.8957
 9582TIP3    H250162   0.145   0.008  12.912  1.4026  0.0246 -1.3354
 9583TIP3   OH250163   0.950   3.870   2.315  0.3570 -0.0121  0.1350
 9583TIP3    H150164   0.939   3.804   2.247  0.2739  0.0111  0.1255
 9583TIP3    H250165   0.976   3.949   2.268 -1.1696  0.4153 -0.0385
 9584TIP3   OH250166   1.623   5.619   3.955 -0.1998 -0.1358  0.3791
 9584TIP3    H150167   1.589   5.632   3.866 -0.1802  0.3236  0.4350
 9584TIP3    H250168   1.545   5.621   4.010 -0.0630  1.6125  0.5845
 9585TIP3   OH250169   6.399   4.196   1.385 -0.3685 -0.0373 -0.2203
 9585TIP3    H150170   6.349   4.249   1.322  1.0590 -0.1836 -1.5242
 9585TIP3    H250171   6.369   4.106   1.370  0.6911 -0.2107 -1.4479
 9586TIP3   OH250172   4.399   6.399  14.066 -0.1803  0.6520  0.6970
 9586TIP3    H150173   4.463   6.386  14.136  0.1720  1.1002  0.4659
 9586TIP3    H250174   4.452   6.398  13.986 -0.8334 -2.2890  0.1922
 9587TIP3   OH250175   5.461   4.658  12.054 -0.2573  0.1109  0.0257
 9587TIP3    H150176   5.423   4.715  11.987 -0.5464 -0.2971 -0.1613
 9587TIP3    H250177   5.489   4.718  12.123  0.3445  0.5641 -0.5993
 9588TIP3   OH250178   1.968   5.381   3.623  0.1789  0.1114 -0.5181
 9588TIP3    H150179   1.925   5.399   3.706 -0.6863  0.7621 -1.0893
 9588TIP3    H250180   1.919   5.309   3.584 -0.9923  1.3988 -1.5516
 9589TIP3   OH250181   1.097   5.295  11.893  0.0307  0.3778  1.0781
 9589TIP3    H150182   1.037   5.231  11.854  0.1027  0.7711  0.3032
 9589TIP3    H250183   1.045   5.336  11.963 -1.5678  2.5141 -1.1836
 9590TIP3   OH250184   2.649   3.994  15.381 -0.1949  0.2689 -0.2084
 9590TIP3    H150185   2.609   3.925  15.433  0.9171 -0.1394  0.1213
 9590TIP3    H250186   2.576   4.053  15.360 -0.8953 -0.2547  0.6837
 9591TIP3   OH250187   4.631   4.157  16.746  0.7561  0.1171  0.6004
 9591TIP3    H150188   4.577   4.095  16.795  0.3046 -0.4898 -0.6374
 9591TIP3    H250189   4.669   4.106  16.675  2.0074  0.8158  0.7360
 9592TIP3   OH250190   0.484   3.376   4.806 -0.4555  0.1172 -0.1215
 9592TIP3    H150191   0.506   3.444   4.743 -0.4923 -0.2393 -0.5233
 9592TIP3    H250192   0.557   3.315   4.803 -1.0634 -0.6062 -0.8144
 9593TIP3   OH250193   6.653   0.767   4.543  0.1386  0.1601  0.0152
 9593TIP3    H150194   6.659   0.674   4.522 -1.7407 -0.1692  0.7535
 9593TIP3    H250195   6.655   0.811   4.458 -1.4637 -0.7379 -0.5269
 9594TIP3   OH250196   3.951   3.502   4.719  0.3234 -0.6475 -0.1923
 9594TIP3    H150197   3.956   3.563   4.645 -0.5250 -0.8841 -0.4608
 9594TIP3    H250198   4.014   3.535   4.782 -0.3858  0.7307 -0.1764
 9595TIP3   OH250199   2.357   4.516   0.007  0.2616  0.4846 -0.3449
 9595TIP3    H150200   2.364   4.610  -0.009  0.3980  0.4086 -0.7528
 9595TIP3    H250201   2.447   4.483  -0.005  0.5051  0.5038  1.1814
 9596TIP3   OH250202   0.469   6.591   6.139  0.3343  1.1677  0.3278
 9596TIP3    H150203   0.374   6.580   6.138  0.3655  0.6897 -1.3222
 9596TIP3    H250204   0.501   6.521   6.082  1.6586  1.5262  0.5997
 9597TIP3   OH250205   4.525   5.179   4.472 -0.1637  0.1215 -0.2470
 9597TIP3    H150206   4.589   5.201   4.404  0.0544  0.3672  0.0358
 9597TIP3    H250207   4.476   5.261   4.486 -0.2477  0.0557 -0.1524
 9598TIP3   OH250208   3.452   5.418  15.279  0.0760  0.2752 -0.1472
 9598TIP3    H150209   3.422   5.403  15.189 -0.4130  0.7594 -0.0667
 9598TIP3    H250210   3.449   5.332  15.320 -0.3168  0.1612 -0.4104
 9599TIP3   OH250211   0.836   4.819   2.192  0.4976  0.0938  0.5008
 9599TIP3    H150212   0.803   4.909   2.182 -0.8361 -0.3840  0.4310
 9599TIP3    H250213   0.898   4.808   2.120  0.1042  0.7069  0.0584
 9600TIP3   OH250214   3.167   0.977   5.297  0.1805  0.9656  0.3185
 9600TIP3    H150215   3.109   0.911   5.334 -1.4843  2.4743  0.5274
 9600TIP3    H250216   3.160   0.964   5.202 -0.2263  0.9127  0.3545
 9601TIP3   OH250217   0.536   0.404   5.826  0.3565  0.3132  0.8925
 9601TIP3    H150218   0.517   0.367   5.740  2.6819 -2.8013  1.5168
 9601TIP3    H250219   0.474   0.362   5.885 -0.0479  1.0550  1.0081
 9602TIP3   OH250220   1.845   0.675  10.992 -0.3210 -0.5062 -0.2558
 9602TIP3    H150221   1.761   0.721  10.997  0.1138  0.2588  0.3695
 9602TIP3    H250222   1.906   0.741  10.958  0.1122 -0.9072 -0.2596
 9603TIP3   OH250223   0.767   0.481   0.774  0.2495  0.0923  0.2117
 9603TIP3    H150224   0.738   0.545   0.838  0.8474  1.2373 -0.6322
 9603TIP3    H250225   0.706   0.491   0.701  1.8547  1.5830 -1.0144
 9604TIP3   OH250226   5.200   4.134   0.983 -0.0554 -0.3100 -0.0389
 9604TIP3    H150227   5.180   4.217   0.939 -2.0489 -0.1790  1.0125
 9604TIP3    H250228   5.291   4.143   1.011  0.2151  0.9170 -1.2273
 9605TIP3   OH250229   6.381   4.208   5.821  0.2192  0.4507  0.4036
 9605TIP3    H150230   6.449   4.195   5.886 -0.1127  0.1604  0.6951
 9605TIP3    H250231   6.370   4.121   5.780  1.9957  1.0699 -1.6143
 9606TIP3   OH250232   3.781   5.732   6.571  0.2344 -0.0426  0.0052
 9606TIP3    H150233   3.717   5.663   6.587 -1.9542  1.3808 -1.9962
 9606TIP3    H250234   3.732   5.813   6.581  2.1527  1.1813  0.0110
 9607TIP3   OH250235   3.756   0.802   1.515 -0.1592  0.1383  0.0985
 9607TIP3    H150236   3.661   0.804   1.527 -0.2171 -3.8870  2.1135
 9607TIP3    H250237   3.790   0.863   1.581 -1.3667 -0.7761  1.6468
 9608TIP3   OH250238   0.360   2.655  13.914 -0.1929 -0.3642  0.7960
 9608TIP3    H150239   0.285   2.605  13.883 -0.7431  0.6998  0.3547
 9608TIP3    H250240   0.356   2.648  14.009  0.4696 -2.1628  0.7322
 9609TIP3   OH250241   1.298   2.972   3.881 -0.1000 -0.1702  0.2960
 9609TIP3    H150242   1.301   3.022   3.963  0.9253 -0.2559  0.3256
 9609TIP3    H250243   1.365   2.904   3.893  0.4090  0.1236 -0.8034
 9610TIP3   OH250244   0.135   5.454  15.238 -0.0797  0.0611 -0.2869
 9610TIP3    H150245   0.219   5.409  15.231 -0.1803 -0.1486 -0.1606
 9610TIP3    H250246   0.071   5.384  15.249 -0.1873  0.2523  0.3616
 9611TIP3   OH250247   4.258   3.882  15.093  0.1888  0.0687 -0.7899
 9611TIP3    H150248   4.235   3.848  15.007  2.1457 -0.3991 -1.1758
 9611TIP3    H250249   4.347   3.916  15.083  0.6813 -0.4898  1.1529
 9612TIP3   OH250250   4.379   4.480  14.418  0.1220  0.3221  0.1333
 9612TIP3    H150251   4.421   4.412  14.471 -0.4302 -1.6222 -1.7947
 9612TIP3    H250252   4.383   4.448  14.328 -1.1547  2.3502 -0.7416
 9613TIP3   OH250253   1.959   0.341  16.749  0.1800 -0.0559 -0.3186
 9613TIP3    H150254   1.933   0.314  16.661  0.8102 -0.4801 -0.3849
 9613TIP3    H250255   1.916   0.425  16.762 -0.8507 -0.5173 -0.5863
 9614TIP3   OH250256   5.269   6.113  16.628  0.2276  0.3828 -0.1549
 9614TIP3    H150257   5.214   6.088  16.554 -1.1228  1.9041  0.2726
 9614TIP3    H250258   5.274   6.209  16.623  0.0008  0.5341  1.7720
 9615TIP3   OH250259   6.439   4.284   1.101  0.1056 -0.1831 -0.3348
 9615TIP3    H150260   6.483   4.369   1.096  1.7885 -1.0323 -0.5126
 9615TIP3    H250261   6.349   4.303   1.074  0.1435  1.7378  0.7000
 9616TIP3   OH250262   1.263   3.588  16.437 -0.0022 -0.2274 -0.6418
 9616TIP3    H150263   1.206   3.587  16.360  0.7140  1.7385 -1.2555
 9616TIP3    H250264   1.239   3.509  16.486 -4.1513  1.0962 -0.2037
 9617TIP3   OH250265   1.376   3.749  14.434 -0.3354 -0.2092 -0.4144
 9617TIP3    H150266   1.341   3.838  14.438  0.2934  0.1720 -2.3449
 9617TIP3    H250267   1.413   3.734  14.521 -1.6218  0.8855  0.3716
 9618TIP3   OH250268   3.602   1.481   1.182 -0.1211 -0.4502  0.7576
 9618TIP3    H150269   3.518   1.442   1.208  1.0605 -2.8701  1.1962
 9618TIP3    H250270   3.615   1.452   1.092 -1.6465  3.4813 -0.9726
 9619TIP3   OH250271   1.625   6.382   4.777  0.2689  0.3727  0.3404
 9619TIP3    H150272   1.683   6.314   4.810  0.8912  0.4527 -0.5540
 9619TIP3    H250273   1.583   6.344   4.700  2.0264  1.5778 -1.2979
 9620TIP3   OH250274   1.796   2.588  16.600 -0.1400 -0.2780  0.4751
 9620TIP3    H150275   1.805   2.665  16.544  0.1477 -0.7974 -0.1971
 9620TIP3    H250276   1.778   2.516  16.540 -0.3452 -0.7523  1.0941
 9621TIP3   OH250277   4.662   3.297  14.453  0.3396  0.0062 -0.2179
 9621TIP3    H150278   4.567   3.310  14.449  0.5833  1.8998 -1.4547
 9621TIP3    H250279   4.680   3.279  14.545 -1.1494  0.3876  0.1795
 9622TIP3   OH250280   5.783   3.522   4.560  0.6514 -0.2662  0.5855
 9622TIP3    H150281   5.737   3.440   4.577  2.0606 -1.3116 -0.4671
 9622TIP3    H250282   5.777   3.534   4.465  1.8881 -0.0444  0.5188
 9623TIP3   OH250283   6.483   0.090  14.178 -0.5024  0.5483 -0.3381
 9623TIP3    H150284   6.413   0.043  14.132 -0.9863 -0.6455  1.4938
 9623TIP3    H250285   6.497   0.040  14.258  2.1024  1.0757 -0.3718
 9624TIP3   OH250286   3.618   3.189  17.012 -0.2229 -0.1164  0.7157
 9624TIP3    H150287   3.691   3.152  17.060 -0.3087 -1.5139 -0.1735
 9624TIP3    H250288   3.562   3.115  16.992 -1.3766  0.7832  0.4947
 9625TIP3   OH250289   2.638   6.331  12.364 -0.0004 -0.0597 -0.3538
 9625TIP3    H150290   2.596   6.411  12.334 -1.0856 -0.1526  0.8349
 9625TIP3    H250291   2.632   6.335  12.460  2.7034 -0.1042 -0.1186
 9626TIP3   OH250292   5.260   2.787  14.557  0.4389  0.0965  0.3777
 9626TIP3    H150293   5.231   2.705  14.517 -1.6691 -0.5928  2.9670
 9626TIP3    H250294   5.293   2.839  14.484 -0.2175 -2.1857 -1.7006
 9627TIP3   OH250295   2.751   6.187   6.559 -0.0900  0.0605  0.4819
 9627TIP3    H150296   2.687   6.124   6.527  0.5544 -0.9331  1.0717
 9627TIP3    H250297   2.712   6.224   6.638  0.4397 -1.2521  1.3847
 9628TIP3   OH250298   6.617   4.522   2.009 -1.1054  0.6883  0.3024
 9628TIP3    H150299   6.712   4.512   2.018 -1.1249 -0.5292 -0.5633
 9628TIP3    H250300   6.583   4.511   2.098 -0.5674 -0.7816  0.3509
 9629TIP3   OH250301   3.059   2.329   3.951 -0.0523 -0.4481 -0.2063
 9629TIP3    H150302   3.107   2.396   3.902  0.8331  1.0829  2.5223
 9629TIP3    H250303   3.087   2.246   3.912  0.5926  0.6350 -2.2027
 9630TIP3   OH250304   2.992   3.428   2.288  0.3503 -0.2052  0.6146
 9630TIP3    H150305   2.939   3.485   2.232 -0.4059  0.0368  1.5456
 9630TIP3    H250306   2.946   3.344   2.287  0.5821 -0.3321  0.5188
 9631TIP3   OH250307   4.120   0.292   3.371 -0.1602  0.3852  0.1968
 9631TIP3    H150308   4.134   0.321   3.461 -0.5866 -1.1689  0.8067
 9631TIP3    H250309   4.173   0.351   3.318  2.2232 -0.2592  1.6953
 9632TIP3   OH250310   5.421   0.655   6.493  0.4178  0.0577 -0.1972
 9632TIP3    H150311   5.509   0.664   6.529  0.0073  1.5981  0.4907
 9632TIP3    H250312   5.421   0.712   6.416 -0.1402  0.5159  0.1385
 9633TIP3   OH250313   3.383   6.154  14.009 -0.0378 -0.5884  0.0724
 9633TIP3    H150314   3.391   6.236  13.959  2.5490 -0.3648  0.6987
 9633TIP3    H250315   3.318   6.173  14.076 -0.7423  0.3660 -0.8426
 9634TIP3   OH250316   0.311   1.459  16.104  0.0312  0.3482  0.1055
 9634TIP3    H150317   0.402   1.442  16.081  0.7197  3.0282  0.5677
 9634TIP3    H250318   0.295   1.401  16.178  1.5390  0.1887  0.3482
 9635TIP3   OH250319   6.512   2.013   0.044 -0.2725 -0.0848 -0.3715
 9635TIP3    H150320   6.581   1.998  -0.020 -0.5583 -1.9947 -0.2806
 9635TIP3    H250321   6.544   1.971   0.124 -0.2911  1.5387  0.5226
 9636TIP3   OH250322   2.897   0.634  13.441  0.2668  0.0930  0.4024
 9636TIP3    H150323   2.973   0.671  13.397  0.0967 -0.6610 -0.5523
 9636TIP3    H250324   2.846   0.593  13.371 -1.9352  2.0781  0.7109
 9637TIP3   OH250325   3.925   4.712  11.229 -0.1970  0.1292 -0.1349
 9637TIP3    H150326   3.914   4.623  11.194 -1.3090  0.4819 -0.7107
 9637TIP3    H250327   3.958   4.763  11.155  0.1252  0.2813  0.1084
 9638TIP3   OH250328   3.801   4.391   2.750  0.1368 -0.3304  0.0955
 9638TIP3    H150329   3.886   4.418   2.714 -0.0152  1.8227  1.1612
 9638TIP3    H250330   3.741   4.395   2.675  0.8081 -1.0925 -0.4990
 9639TIP3   OH250331   4.831   2.986   3.173  0.2233 -0.5364 -0.3895
 9639TIP3    H150332   4.792   2.978   3.086  0.4510  2.2781 -0.8299
 9639TIP3    H250333   4.916   2.941   3.165  0.8108  0.7703 -2.0479
 9640TIP3   OH250334   2.281   2.522   3.705  0.4820 -0.1462  0.2475
 9640TIP3    H150335   2.200   2.508   3.656 -2.3037  0.3286  4.2384
 9640TIP3    H250336   2.318   2.434   3.714  2.6191 -0.0395 -4.5493
 9641TIP3   OH250337   0.527   4.492  16.976  0.4948  0.2301  0.4696
 9641TIP3    H150338   0.554   4.564  16.918 -2.6979  0.5743 -0.7952
 9641TIP3    H250339   0.586   4.420  16.953 -0.5443  0.3713 -3.2887
 9642TIP3   OH250340   3.405   3.676   4.578 -0.6791 -0.3197  0.4435
 9642TIP3    H150341   3.363   3.735   4.515  1.3711  0.9905  0.1967
 9642TIP3    H250342   3.405   3.590   4.536  0.1346  0.4182 -1.1353
 9643TIP3   OH250343   2.631   5.978   0.421  0.0631  0.0276  0.5440
 9643TIP3    H150344   2.698   5.910   0.415 -1.5777 -1.8228  1.9089
 9643TIP3    H250345   2.650   6.037   0.348  0.9943 -2.4357 -1.3590
 9644TIP3   OH250346   1.896   3.291  16.214  0.0127  0.1586 -0.1516
 9644TIP3    H150347   1.991   3.289  16.220 -0.0681  0.1865  1.8650
 9644TIP3    H250348   1.872   3.203  16.183  0.6617  0.0744 -0.4335
 9645TIP3   OH250349   2.525   5.218  15.616 -0.0809  0.1161 -0.2261
 9645TIP3    H150350   2.599   5.198  15.559 -0.0690 -1.1729  0.1978
 9645TIP3    H250351   2.501   5.133  15.654  0.1668  0.9608  1.9871
 9646TIP3   OH250352   5.794   3.124  16.962  0.4377 -0.1056  0.5853
 9646TIP3    H150353   5.721   3.105  16.902  0.5818  1.5947 -0.1848
 9646TIP3    H250354   5.763   3.198  17.014  1.2826  0.0709  0.8412
 9647TIP3   OH250355   4.471   3.133  11.597 -0.2279 -0.4251 -0.0069
 9647TIP3    H150356   4.553   3.182  11.605 -0.8488  0.4370  1.6728
 9647TIP3    H250357   4.451   3.106  11.687 -0.8043 -2.3064 -0.6518
 9648TIP3   OH250358   5.095   3.406   3.967 -0.6378 -0.3897 -0.3818
 9648TIP3    H150359   5.156   3.480   3.971 -2.3135  1.0285 -0.1384
 9648TIP3    H250360   5.142   3.334   4.010  1.9127 -0.1783 -2.5277
 9649TIP3   OH250361   1.515   0.365   4.188  0.2293  0.8015 -0.4698
 9649TIP3    H150362   1.580   0.434   4.205  1.8858 -0.5072 -1.1952
 9649TIP3    H250363   1.543   0.326   4.105  0.6947 -2.1785  0.9745
 9650TIP3   OH250364   2.318   1.713  12.670 -0.1891 -0.2958  0.2967
 9650TIP3    H150365   2.402   1.683  12.704 -0.6209  0.8555  2.5681
 9650TIP3    H250366   2.269   1.741  12.748 -2.1963  0.2491 -1.0853
 9651TIP3   OH250367   1.231   5.160   5.041 -0.0315 -0.6821  0.1491
 9651TIP3    H150368   1.187   5.245   5.033  0.0849 -0.6376 -0.0360
 9651TIP3    H250369   1.301   5.163   4.975 -0.3556 -1.1204 -0.2214
 9652TIP3   OH250370   2.648   4.931   2.526  0.0571 -0.6244  0.0573
 9652TIP3    H150371   2.624   5.023   2.512 -0.4362 -0.9994 -1.7678
 9652TIP3    H250372   2.742   4.933   2.544 -0.3604  0.4308  2.5485
 9653TIP3   OH250373   5.822   3.945   3.863 -0.1669  0.0757 -0.0488
 9653TIP3    H150374   5.796   3.892   3.938 -2.6144 -0.9165 -1.4850
 9653TIP3    H250375   5.837   4.033   3.900 -2.6603 -0.0315  1.4472
 9654TIP3   OH250376   4.981   3.655  15.590 -0.2792  0.6612  0.7536
 9654TIP3    H150377   4.982   3.639  15.496  1.3055  1.0637  0.6688
 9654TIP3    H250378   4.939   3.740  15.600 -3.7191 -0.8811  0.7585
 9655TIP3   OH250379   5.166   3.688   3.527 -0.0705  0.4081  0.3311
 9655TIP3    H150380   5.113   3.679   3.606 -0.6771  0.6577 -0.0317
 9655TIP3    H250381   5.145   3.610   3.476 -1.6641  1.4393 -0.7010
 9656TIP3   OH250382   2.590   1.620  16.287  0.1567  0.2037  0.1197
 9656TIP3    H150383   2.592   1.581  16.199  1.4336  0.1718  0.1503
 9656TIP3    H250384   2.541   1.557  16.340  1.8327 -1.2239  0.0694
 9657TIP3   OH250385   3.829   1.770  14.485 -0.3710 -0.3927 -0.0452
 9657TIP3    H150386   3.845   1.688  14.533 -0.8915 -1.0155 -0.9219
 9657TIP3    H250387   3.891   1.768  14.413  1.5935  1.3303  1.4487
 9658TIP3   OH250388   1.855   1.358   5.291 -0.3453  0.4078 -0.5153
 9658TIP3    H150389   1.890   1.386   5.376  0.2343  0.0066 -0.6172
 9658TIP3    H250390   1.829   1.440   5.248 -0.2450  0.6472 -0.1245
 9659TIP3   OH250391   6.504   1.182  17.258 -0.1105 -0.1526 -0.6008
 9659TIP3    H150392   6.592   1.145  17.250  0.3187  0.1103  2.0348
 9659TIP3    H250393   6.516   1.276  17.252 -0.4765 -0.1796 -1.9754
 9660TIP3   OH250394   5.219   0.845  15.057  0.2391 -0.2646 -0.4625
 9660TIP3    H150395   5.167   0.885  14.987  1.5819  0.7219 -0.9508
 9660TIP3    H250396   5.228   0.753  15.030  1.9175  0.3990 -2.3969
 9661TIP3   OH250397   5.945   3.770  11.858 -0.5336  0.1647  0.0966
 9661TIP3    H150398   5.946   3.851  11.909  1.2155  0.2269  0.0345
 9661TIP3    H250399   5.957   3.800  11.767 -0.3944 -0.1315  0.0172
 9662TIP3   OH250400   3.257   1.562   4.911 -0.0355  0.0385 -0.5427
 9662TIP3    H150401   3.320   1.618   4.957 -0.2898 -1.3042  1.5544
 9662TIP3    H250402   3.311   1.493   4.872  0.0476  0.4941 -1.2654
 9663TIP3   OH250403   5.063   0.896  14.496 -0.6446 -0.0250 -0.2739
 9663TIP3    H150404   5.058   0.815  14.444 -1.5876 -0.3006  0.2298
 9663TIP3    H250405   5.110   0.958  14.440  0.9652 -1.1968 -0.3067
 9664TIP3   OH250406   0.613   2.624  12.056  0.4646  0.3205 -0.1660
 9664TIP3    H150407   0.523   2.592  12.063  1.0456 -1.3780  0.0851
 9664TIP3    H250408   0.616   2.672  11.974  0.1714 -2.7231 -2.1130
 9665TIP3   OH250409   4.444   5.653  13.283 -0.3270 -0.3880 -0.2660
 9665TIP3    H150410   4.489   5.594  13.344  0.2469  0.1246 -0.1786
 9665TIP3    H250411   4.369   5.603  13.252  1.8188 -2.4134 -2.6350
 9666TIP3   OH250412   2.598   4.470  16.634 -0.5485  0.4240  0.1549
 9666TIP3    H150413   2.590   4.521  16.553  0.3183 -1.2101 -1.0098
 9666TIP3    H250414   2.507   4.462  16.665 -0.6771  3.0847  0.7154
 9667TIP3   OH250415   3.399   1.590   3.695 -0.4516 -1.0159  0.1778
 9667TIP3    H150416   3.494   1.579   3.698 -0.4883 -1.7704 -0.8582
 9667TIP3    H250417   3.365   1.526   3.758 -0.3491 -2.2758 -0.9950
 9668TIP3   OH250418   2.776   6.114   3.885 -0.3424  0.3374 -0.6290
 9668TIP3    H150419   2.838   6.141   3.817 -0.0420  0.2691 -0.3873
 9668TIP3    H250420   2.701   6.172   3.874  1.0272  2.5932  1.0563
 9669TIP3   OH250421   0.430   3.424   1.879  0.2519 -0.4127 -0.3593
 9669TIP3    H150422   0.395   3.490   1.938 -0.7440 -1.7220  0.5905
 9669TIP3    H250423   0.376   3.430   1.800  2.3067  2.1234 -1.7612
 9670TIP3   OH250424   5.747   3.722   5.314  0.0724  0.3651  0.8086
 9670TIP3    H150425   5.663   3.677   5.320 -0.8156  1.6424 -1.0859
 9670TIP3    H250426   5.772   3.715   5.222  0.0874  3.2433  0.4759
 9671TIP3   OH250427   0.389   2.936  16.190  0.5386 -0.1011 -0.7047
 9671TIP3    H150428   0.426   2.981  16.114 -0.9693 -0.2173 -1.5458
 9671TIP3    H250429   0.323   2.877  16.153  0.2537 -0.6619  0.6400
 9672TIP3   OH250430   4.166   1.713  12.254 -0.4080 -1.0270 -0.4674
 9672TIP3    H150431   4.131   1.678  12.336  0.6992  1.3037  1.0864
 9672TIP3    H250432   4.248   1.666  12.241 -0.0572 -0.6547  0.3566
 9673TIP3   OH250433   0.488   4.293  15.853  0.4716 -0.2057  0.6711
 9673TIP3    H150434   0.402   4.255  15.873  0.1648  1.2507  2.3266
 9673TIP3    H250435   0.489   4.298  15.757 -0.2766 -2.4329  0.4758
 9674TIP3   OH250436   3.729   6.303  12.826 -0.3025  0.0882  0.1769
 9674TIP3    H150437   3.686   6.359  12.761 -1.1721 -2.3868 -1.5295
 9674TIP3    H250438   3.665   6.296  12.897 -0.2990  0.9902  0.2823
 9675TIP3   OH250439   6.312   5.166  13.297  0.0980 -0.3053 -0.0775
 9675TIP3    H150440   6.355   5.105  13.236 -0.2156 -0.2684 -0.3350
 9675TIP3    H250441   6.286   5.111  13.371 -1.3970 -0.7685 -0.8965
 9676TIP3   OH250442   4.220   5.650   1.828 -0.1526  0.7249 -0.5734
 9676TIP3    H150443   4.253   5.656   1.738  0.2171 -0.2981 -0.5224
 9676TIP3    H250444   4.134   5.609   1.819 -0.2848  0.9773 -0.4830
 9677TIP3   OH250445   4.945   0.075   4.272  0.2323  0.2356 -0.0773
 9677TIP3    H150446   4.916   0.164   4.253  0.4683  0.0642 -1.2806
 9677TIP3    H250447   5.030   0.067   4.228  1.1860  0.0614  1.6860
 9678TIP3   OH250448   4.294   6.779  13.932 -0.1984 -0.3685 -0.0152
 9678TIP3    H150449   4.212   6.738  13.961 -0.3396  0.4782  0.8294
 9678TIP3    H250450   4.341   6.799  14.013  0.8803 -0.8744 -0.4860
 9679TIP3   OH250451   1.394   2.669   1.492 -0.2754 -0.1286  0.2216
 9679TIP3    H150452   1.371   2.762   1.500 -1.6787 -0.5100  1.0162
 9679TIP3    H250453   1.430   2.646   1.578 -2.2409 -0.8765  0.9036
 9680TIP3   OH250454   1.139   5.666   3.106 -0.1000  0.1292 -0.8430
 9680TIP3    H150455   1.142   5.761   3.111 -3.5267  0.3305  0.8653
 9680TIP3    H250456   1.079   5.647   3.035  1.7986 -0.9162 -2.2648
 9681TIP3   OH250457   5.625   6.380  16.121  0.3158  0.3436 -0.8052
 9681TIP3    H150458   5.684   6.367  16.195  0.6038  2.4536 -0.5891
 9681TIP3    H250459   5.543   6.409  16.161  0.1365  0.4576 -1.2511
 9682TIP3   OH250460   5.058   3.548  12.734 -0.3134  0.1358 -0.0704
 9682TIP3    H150461   5.093   3.466  12.768  0.2992 -0.1760 -1.3916
 9682TIP3    H250462   4.971   3.526  12.702  0.1793 -0.2168 -1.2078
 9683TIP3   OH250463   3.578   4.374   5.131  0.7380  0.0615  0.3134
 9683TIP3    H150464   3.609   4.385   5.221 -0.6351  0.7010  0.7393
 9683TIP3    H250465   3.488   4.341   5.140  0.3437  0.7503 -0.7971
 9684TIP3   OH250466   6.716   3.994  16.311  0.2657  0.0531  0.3784
 9684TIP3    H150467   6.654   4.026  16.376  0.9820  1.8942  0.2287
 9684TIP3    H250468   6.663   3.941  16.251 -1.0465  1.0342  0.6195
 9685TIP3   OH250469   2.301   1.434   2.044 -0.0125 -0.4263  0.3206
 9685TIP3    H150470   2.206   1.449   2.048 -0.1124 -0.5160 -1.0287
 9685TIP3    H250471   2.336   1.480   2.120 -1.2405 -1.2886  1.4564
 9686TIP3   OH250472   6.171   2.728  15.377  0.5353  0.4251 -0.0696
 9686TIP3    H150473   6.251   2.704  15.424  1.1024 -0.0612 -1.2482
 9686TIP3    H250474   6.103   2.673  15.415  0.6736  1.0818  1.1792
 9687TIP3   OH250475   3.748   6.512   0.177  0.8125  0.8325 -0.2476
 9687TIP3    H150476   3.737   6.527   0.083 -0.1790 -1.2069 -0.5153
 9687TIP3    H250477   3.746   6.599   0.216  0.8207  1.6922 -2.0706
 9688TIP3   OH250478   5.378   6.141  14.515 -0.3411  0.5256  0.3126
 9688TIP3    H150479   5.324   6.195  14.457  0.1119  1.1004  0.4148
 9688TIP3    H250480   5.459   6.190  14.524 -0.0979  0.0427  0.7837
 9689TIP3   OH250481   1.473   3.500   0.560 -0.1221 -0.2273 -0.1950
 9689TIP3    H150482   1.404   3.548   0.606  1.0770 -0.7790  2.4093
 9689TIP3    H250483   1.446   3.408   0.566 -0.5963 -0.2322 -1.8828
 9690TIP3   OH250484   6.249   6.731  14.402 -0.4123 -0.1138  0.0806
 9690TIP3    H150485   6.337   6.745  14.437 -0.5453 -2.8201  1.7447
 9690TIP3    H250486   6.192   6.739  14.478 -1.7102  1.8707 -1.0256
 9691TIP3   OH250487   0.328   0.820   6.370  0.1893  0.2256 -0.3088
 9691TIP3    H150488   0.293   0.767   6.298 -2.9112  1.9938 -0.2829
 9691TIP3    H250489   0.327   0.762   6.445  1.5939 -1.0628 -1.2207
 9692TIP3   OH250490   3.116   5.886   6.592 -0.3830 -0.2335 -0.4110
 9692TIP3    H150491   3.081   5.960   6.642 -0.8420 -0.2512 -0.6999
 9692TIP3    H250492   3.081   5.809   6.637  1.2750 -0.3468  0.7840
 9693TIP3   OH250493   1.320   2.053   3.120  0.0655  0.2310 -0.1058
 9693TIP3    H150494   1.323   2.095   3.206  1.1929  0.0998 -0.0671
 9693TIP3    H250495   1.250   1.989   3.126  1.9135 -1.7747  1.6603
 9694TIP3   OH250496   0.648   4.299   0.408 -0.3884 -0.3716  0.4061
 9694TIP3    H150497   0.588   4.227   0.390 -2.2780  1.1328  0.4060
 9694TIP3    H250498   0.653   4.303   0.503  0.7992 -1.3218  0.4041
 9695TIP3   OH250499   5.866   1.899   2.955  0.2044  0.4730  0.8345
 9695TIP3    H150500   5.925   1.825   2.971 -1.6603 -1.4256 -0.5018
 9695TIP3    H250501   5.905   1.945   2.880  0.6479  0.0005  0.7700
 9696TIP3   OH250502   5.989   5.219  13.222 -0.4728  0.1949  0.0083
 9696TIP3    H150503   5.967   5.155  13.289  1.3683  1.6819  2.1925
 9696TIP3    H250504   6.084   5.210  13.209 -0.5853  0.7632 -1.5340
 9697TIP3   OH250505   0.769   5.639   1.361 -0.1528  0.0671  0.1308
 9697TIP3    H150506   0.784   5.639   1.266  3.3938 -1.2761  0.5671
 9697TIP3    H250507   0.777   5.730   1.386  0.9665  0.2070 -0.6418
 9698TIP3   OH250508   1.800   6.161   5.193 -0.0416 -0.0084  0.2090
 9698TIP3    H150509   1.745   6.236   5.218 -0.3420  0.8888 -2.8118
 9698TIP3    H250510   1.887   6.185   5.223 -0.5018  0.5765  1.1346
 9699TIP3   OH250511   2.984   2.966   5.168  0.2707 -0.1584 -0.1005
 9699TIP3    H150512   2.998   3.056   5.139  2.2253 -0.7390 -1.0606
 9699TIP3    H250513   2.904   2.939   5.123 -1.4913  1.6697  1.7127
 9700TIP3   OH250514   1.400   2.297  15.616 -0.2662  0.1395  0.5153
 9700TIP3    H150515   1.369   2.207  15.627  0.9816 -0.4308 -0.4103
 9700TIP3    H250516   1.323   2.351  15.633 -1.1889 -1.1238  0.4862
 9701TIP3   OH250517   0.403   6.084   5.387  0.2638  0.1765  0.3705
 9701TIP3    H150518   0.409   5.989   5.379  1.5426  0.1764  0.9723
 9701TIP3    H250519   0.332   6.098   5.450  0.8862 -0.4507  1.2396
 9702TIP3   OH250520   6.612   5.147  12.293 -0.3681 -0.1600 -0.1429
 9702TIP3    H150521   6.610   5.242  12.305  2.7615 -0.1328  1.0176
 9702TIP3    H250522   6.687   5.131  12.235 -0.9231 -1.9394 -0.4458
 9703TIP3   OH250523   4.295   4.718  16.982 -0.5357 -0.2720  0.2953
 9703TIP3    H150524   4.300   4.811  16.958  0.9044  0.3385  2.5978
 9703TIP3    H250525   4.369   4.678  16.938  0.2439  0.1904  1.1485
 9704TIP3   OH250526   1.009   2.913  14.433  0.3754 -0.5556 -0.0800
 9704TIP3    H150527   0.917   2.941  14.436 -0.0588 -1.9200  2.3366
 9704TIP3    H250528   1.007   2.834  14.379  0.0698 -0.7054  0.1448
 9705TIP3   OH250529   2.557   2.068   3.879  0.6191 -0.0077 -0.3501
 9705TIP3    H150530   2.543   2.059   3.785  1.0676  0.7711 -0.5042
 9705TIP3    H250531   2.471   2.051   3.918  0.5865 -1.0307 -0.8395
 9706TIP3   OH250532   4.306   4.040  15.868  0.2163  0.0694 -0.2801
 9706TIP3    H150533   4.262   3.958  15.847  0.1274  0.2160 -0.6770
 9706TIP3    H250534   4.381   4.044  15.808  0.6750 -0.0962  0.2735
 9707TIP3   OH250535   4.529   3.988  14.691  0.0503 -0.4309 -0.1498
 9707TIP3    H150536   4.468   3.987  14.765  2.1448 -1.6234  1.6764
 9707TIP3    H250537   4.580   4.068  14.703  1.3980 -1.3723  0.6289
 9708TIP3   OH250538   3.119   6.263   1.682  0.2753 -0.0731  0.1768
 9708TIP3    H150539   3.213   6.262   1.699  0.1242 -1.1862  1.0869
 9708TIP3    H250540   3.079   6.255   1.769 -0.6767  0.4734 -0.1892
 9709TIP3   OH250541   4.071   5.529  12.750 -0.3303 -0.2194  0.3029
 9709TIP3    H150542   4.134   5.500  12.684  0.8905  0.9706  0.8832
 9709TIP3    H250543   4.102   5.490  12.832 -0.1847  0.5870  0.6412
 9710TIP3   OH250544   5.086   0.909  13.843 -0.0749 -0.3511  0.5130
 9710TIP3    H150545   5.042   0.936  13.924 -0.4805 -1.1659  0.5671
 9710TIP3    H250546   5.077   0.814  13.841  3.8263 -0.9133  1.8017
 9711TIP3   OH250547   5.581   0.637  13.706  0.3260 -0.0690  0.1371
 9711TIP3    H150548   5.554   0.675  13.622  0.2092 -2.3795 -0.9438
 9711TIP3    H250549   5.636   0.562  13.682  0.9592 -0.3045  2.1610
 9712TIP3   OH250550   0.383   0.592   2.690 -0.2819 -0.1260  0.0961
 9712TIP3    H150551   0.414   0.674   2.653  2.3179 -2.0945 -2.6029
 9712TIP3    H250552   0.439   0.578   2.767  0.7317 -0.2948 -0.6487
 9713TIP3   OH250553   0.984   1.189   0.487 -0.0520  0.4912  0.0991
 9713TIP3    H150554   1.030   1.200   0.570  1.8186  1.0647 -0.9513
 9713TIP3    H250555   1.030   1.117   0.444 -1.3117 -0.1323 -0.2634
 9714TIP3   OH250556   5.398   4.922  11.971  0.0222  0.4572 -0.0463
 9714TIP3    H150557   5.402   4.951  12.063 -1.2439  0.6734 -0.0391
 9714TIP3    H250558   5.485   4.942  11.936  1.3263 -1.7194  1.6863
 9715TIP3   OH250559   2.861   0.600   2.606  0.2902  0.0722 -0.7027
 9715TIP3    H150560   2.859   0.675   2.545 -0.9160  0.3287 -0.3848
 9715TIP3    H250561   2.953   0.573   2.608  0.5203  0.6763 -1.8834
 9716TIP3   OH250562   1.120   0.401  15.284 -0.0320 -0.0587 -0.2788
 9716TIP3    H150563   1.025   0.398  15.294  0.1415 -0.2435  1.9172
 9716TIP3    H250564   1.135   0.404  15.190 -2.1775 -1.3706 -0.7283
 9717TIP3   OH250565   6.661   1.349  10.481 -0.6477  0.3307 -0.2610
 9717TIP3    H150566   6.569   1.361  10.505 -1.2710  1.8281 -3.0360
 9717TIP3    H250567   6.707   1.424  10.518 -0.6239 -0.0826  0.5732
 9718TIP3   OH250568   2.516   5.011  10.639  0.0530 -0.1650  0.0492
 9718TIP3    H150569   2.606   5.025  10.668 -0.1430  0.5138  0.3669
 9718TIP3    H250570   2.474   4.963  10.710  0.7810 -2.7095 -1.1293
 9719TIP3   OH250571   2.472   3.496  15.552 -0.4628 -0.3660  0.3181
 9719TIP3    H150572   2.429   3.539  15.626 -0.2540  1.2623 -0.4664
 9719TIP3    H250573   2.559   3.473  15.585 -0.4349  0.1903  0.6457
 9720TIP3   OH250574   1.673   4.818   5.514  0.1680  0.2643  0.4431
 9720TIP3    H150575   1.613   4.840   5.443  0.2251 -1.0662 -0.0644
 9720TIP3    H250576   1.664   4.723   5.524  2.0058  0.0582  0.4994
 9721TIP3   OH250577   1.050   5.607  13.693 -0.3492  0.0182 -0.2390
 9721TIP3    H150578   1.109   5.648  13.756  1.1432  0.5956 -1.9487
 9721TIP3    H250579   0.963   5.636  13.721  0.3403  1.0403  0.9744
 9722TIP3   OH250580   2.016   0.859  13.775  0.3915 -0.0292 -0.2718
 9722TIP3    H150581   2.056   0.910  13.705  0.0780  0.6272  0.0075
 9722TIP3    H250582   1.957   0.799  13.731 -1.2958  1.7100 -0.5155
 9723TIP3   OH250583   2.075   0.734  13.103  0.0924  0.3247 -0.3033
 9723TIP3    H150584   2.050   0.658  13.050 -3.1494  1.1508 -0.1732
 9723TIP3    H250585   2.083   0.699  13.192 -1.1233  0.0283 -0.2871
 9724TIP3   OH250586   4.977   2.117   5.074  0.1762 -0.2329 -0.6419
 9724TIP3    H150587   4.991   2.211   5.069 -0.6764 -0.0395  0.2258
 9724TIP3    H250588   4.929   2.096   4.993 -1.3625  0.4388  0.0519
 9725TIP3   OH250589   0.901   3.076   0.705 -0.1981 -0.1241 -0.2438
 9725TIP3    H150590   0.915   3.060   0.799  1.4377  0.2127 -0.4042
 9725TIP3    H250591   0.977   3.126   0.678 -1.5666  1.4427 -1.3744
 9726TIP3   OH250592   0.700   5.531   3.859  0.7943 -0.0293 -0.7110
 9726TIP3    H150593   0.759   5.545   3.934 -0.1808  1.1874 -0.1338
 9726TIP3    H250594   0.660   5.446   3.877  0.0067  0.5793  0.5845
 9727TIP3   OH250595   1.486   0.588   1.724  0.0715  0.1311  0.1419
 9727TIP3    H150596   1.429   0.569   1.798 -1.4853 -0.8613 -1.2340
 9727TIP3    H250597   1.432   0.643   1.666  1.2958  1.0018 -0.2002
 9728TIP3   OH250598   4.055   2.638   5.316 -0.1138 -0.6354  0.5105
 9728TIP3    H150599   4.078   2.577   5.245  0.6538 -1.4561  1.4312
 9728TIP3    H250600   4.137   2.683   5.336 -0.1896 -0.8071  1.2397
 9729TIP3   OH250601   1.160   0.440   5.054  0.0669  0.3723 -0.0167
 9729TIP3    H150602   1.071   0.405   5.041 -0.4868  1.6359  0.2178
 9729TIP3    H250603   1.155   0.487   5.137  0.6240  1.4510 -0.5716
 9730TIP3   OH250604   6.363   1.398   6.589  0.6156 -0.0671  0.1133
 9730TIP3    H150605   6.342   1.478   6.541  0.4444  0.0223  0.3362
 9730TIP3    H250606   6.348   1.420   6.681 -2.1239 -1.1224  0.0158
 9731TIP3   OH250607   3.235   3.742   0.369 -0.7219  0.3977  0.2706
 9731TIP3    H150608   3.301   3.691   0.417  1.3143  0.8768 -1.8204
 9731TIP3    H250609   3.185   3.676   0.321 -1.2433  0.0813  1.2281
 9732TIP3   OH250610   4.766   2.410  15.023  0.9855 -0.1530  0.1699
 9732TIP3    H150611   4.733   2.331  14.981  0.4472 -0.1172  0.5161
 9732TIP3    H250612   4.838   2.381  15.078  0.5960 -0.4554  0.5321
 9733TIP3   OH250613   4.796   2.066  12.611  1.2990  0.3765  0.1050
 9733TIP3    H150614   4.791   2.140  12.550 -0.1314  0.6173  0.4726
 9733TIP3    H250615   4.774   2.104  12.696  0.7329 -0.4340  0.3318
 9734TIP3   OH250616   4.566   0.786   4.543  0.2400 -0.2348 -0.1706
 9734TIP3    H150617   4.652   0.799   4.504  0.4070 -0.5468  0.0883
 9734TIP3    H250618   4.584   0.743   4.627  0.0029  1.7497  0.9596
 9735TIP3   OH250619   3.685   6.639  11.535  0.2537  0.2630 -0.5353
 9735TIP3    H150620   3.617   6.633  11.469  0.0110 -1.2231 -0.1838
 9735TIP3    H250621   3.653   6.705  11.597 -2.9098 -3.0126  1.7985
 9736TIP3   OH250622   1.028   0.614   5.309  0.9012  0.0406 -0.2815
 9736TIP3    H150623   1.004   0.688   5.365  1.6157  0.2459 -0.2416
 9736TIP3    H250624   1.118   0.593   5.334  1.5319  0.6514 -1.9095
 9737TIP3   OH250625   6.498   4.151  12.647  0.3449 -0.2786 -0.0773
 9737TIP3    H150626   6.518   4.145  12.740  1.2708 -0.5044 -0.2821
 9737TIP3    H250627   6.576   4.188  12.607 -0.7557  1.7197 -0.5316
 9738TIP3   OH250628   5.703   6.721  16.725  0.3910  0.0892  0.4092
 9738TIP3    H150629   5.732   6.667  16.799 -1.0369 -1.2486  0.0446
 9738TIP3    H250630   5.783   6.762  16.692  2.0379 -3.6120 -0.7507
 9739TIP3   OH250631   0.181   4.946   4.536 -0.6001 -0.0567  0.0950
 9739TIP3    H150632   0.163   4.999   4.613 -0.2805 -1.9532  1.5366
 9739TIP3    H250633   0.204   4.859   4.570 -0.0928 -0.8724 -2.1120
 9740TIP3   OH250634   6.238   4.811  16.115 -0.1773  0.1254 -0.1511
 9740TIP3    H150635   6.191   4.854  16.044  0.2267  0.6093 -0.1314
 9740TIP3    H250636   6.240   4.718  16.090 -0.0447  0.2919 -0.7701
 9741TIP3   OH250637   3.231   4.982   4.472 -0.5481 -0.9625 -0.0835
 9741TIP3    H150638   3.205   4.890   4.480  1.8129 -1.6929 -0.0072
 9741TIP3    H250639   3.285   4.985   4.393  0.2384  0.1368  0.4736
 9742TIP3   OH250640   1.625   6.006   5.638  0.1863  0.1610 -0.4311
 9742TIP3    H150641   1.656   6.040   5.722 -0.8698 -0.3757  0.2040
 9742TIP3    H250642   1.704   5.976   5.593  0.7148 -0.0106  0.5830
 9743TIP3   OH250643   0.293   4.591  14.274 -0.4888  0.0948 -0.3887
 9743TIP3    H150644   0.312   4.514  14.327  0.3872 -0.1526 -1.0313
 9743TIP3    H250645   0.364   4.594  14.210 -0.8770  1.0568 -0.7980
 9744TIP3   OH250646   3.450   0.810   1.527  0.4090 -0.3263  0.4732
 9744TIP3    H150647   3.460   0.833   1.619 -1.1026  0.0367  0.5729
 9744TIP3    H250648   3.360   0.778   1.520  0.7400 -1.0566 -0.7361
 9745TIP3   OH250649   1.842   2.961   0.827  0.1670  0.4416 -0.5093
 9745TIP3    H150650   1.864   2.907   0.904  0.6573 -0.4708 -1.2610
 9745TIP3    H250651   1.799   3.038   0.863 -2.1223 -1.1868  0.5511
 9746TIP3   OH250652   0.310   1.577   0.813  0.0371 -0.7324 -0.5919
 9746TIP3    H150653   0.224   1.603   0.781  0.7839 -0.1011 -2.2030
 9746TIP3    H250654   0.333   1.500   0.760  0.5931 -0.7087 -0.3901
 9747TIP3   OH250655   3.812   1.378  11.782  0.2684 -0.0245 -0.1445
 9747TIP3    H150656   3.823   1.423  11.698  0.6661 -0.2719 -0.2283
 9747TIP3    H250657   3.875   1.419  11.840  0.1520 -0.0085 -0.0284
 9748TIP3   OH250658   5.271   4.887  16.759  0.1339  0.0943 -0.2093
 9748TIP3    H150659   5.323   4.842  16.692 -1.0745  0.1562 -1.2347
 9748TIP3    H250660   5.306   4.856  16.842  0.1177 -1.8325 -0.8799
 9749TIP3   OH250661   3.667   0.956  14.902  0.3280 -0.3877 -0.4388
 9749TIP3    H150662   3.629   0.871  14.926 -0.0325  0.3289  1.7114
 9749TIP3    H250663   3.592   1.015  14.898  0.9281  0.7567  2.5684
 9750TIP3   OH250664   4.798   4.762   1.447 -0.8446  0.1087 -0.2574
 9750TIP3    H150665   4.782   4.855   1.467 -0.4495 -0.0761  1.0094
 9750TIP3    H250666   4.840   4.763   1.361  1.5753  1.3377  0.8362
 9751TIP3   OH250667   3.083   2.321   1.920  0.7029 -0.2909 -0.2299
 9751TIP3    H150668   3.154   2.265   1.952  0.8285  0.0757  0.1330
 9751TIP3    H250669   3.126   2.401   1.891  0.5843 -0.5826 -1.2578
 9752TIP3   OH250670   2.198   5.810  14.802  0.0304  0.2385  0.3712
 9752TIP3    H150671   2.131   5.789  14.867 -0.3220  0.6901  0.1602
 9752TIP3    H250672   2.276   5.764  14.832 -0.6421 -1.1416  0.0668
 9753TIP3   OH250673   2.911   1.064  11.589 -0.1958  0.0929 -0.0841
 9753TIP3    H150674   2.861   1.146  11.593 -1.6782 -0.7410 -0.6119
 9753TIP3    H250675   2.866   1.006  11.651  0.4481 -0.5240 -0.1839
 9754TIP3   OH250676   6.480   0.223  12.869  0.4084 -0.3852 -0.4233
 9754TIP3    H150677   6.496   0.317  12.878  0.3100 -0.4722  0.9097
 9754TIP3    H250678   6.385   0.214  12.870  0.4255 -0.5641  0.4348
 9755TIP3   OH250679   2.298   2.969   5.380  0.5934  0.7605  0.2086
 9755TIP3    H150680   2.380   2.920   5.369  1.2571  1.8736  0.0213
 9755TIP3    H250681   2.229   2.903   5.366  1.4463 -0.1647  0.2125
 9756TIP3   OH250682   0.557   2.375   1.790 -0.3490  0.6521  0.2169
 9756TIP3    H150683   0.634   2.366   1.846  0.3431  0.9126 -0.6648
 9756TIP3    H250684   0.558   2.466   1.762  0.0665  0.2351 -1.2258
 9757TIP3   OH250685   5.977   4.791   5.976  0.1974  0.4142  0.2716
 9757TIP3    H150686   5.973   4.728   6.049 -3.0346 -1.5540 -1.3440
 9757TIP3    H250687   6.068   4.788   5.946  0.6723 -1.8646  1.6737
 9758TIP3   OH250688   1.649   2.535  14.756 -0.6964  0.4806 -0.6177
 9758TIP3    H150689   1.591   2.609  14.734  0.5312  2.3085  1.7847
 9758TIP3    H250690   1.651   2.482  14.676 -3.3867  1.8320 -1.7294
 9759TIP3   OH250691   5.657   2.022  15.839  0.2849 -0.3482  0.4343
 9759TIP3    H150692   5.623   2.098  15.792 -3.1710 -1.4650  0.8921
 9759TIP3    H250693   5.649   2.044  15.931 -0.7098 -1.1773  0.5729
 9760TIP3   OH250694   6.147   2.109  14.653 -0.2367 -0.0116 -0.2577
 9760TIP3    H150695   6.203   2.048  14.605 -1.6971 -0.0805 -1.9671
 9760TIP3    H250696   6.199   2.189  14.659  2.5534 -1.7758  3.7746
 9761TIP3   OH250697   4.377   4.320   1.987  0.5574 -0.3546 -0.4179
 9761TIP3    H150698   4.362   4.271   1.906 -1.1438 -1.1831  0.3305
 9761TIP3    H250699   4.422   4.258   2.045 -0.8378 -0.8100  0.2355
 9762TIP3   OH250700   1.442   1.278   1.908  0.0210  0.2630 -0.2323
 9762TIP3    H150701   1.387   1.265   1.986  1.7012  0.0480  0.9737
 9762TIP3    H250702   1.422   1.367   1.880 -1.5276 -0.0782 -0.3417
 9763TIP3   OH250703   1.044   1.820   4.167  0.5092 -0.6804  0.2658
 9763TIP3    H150704   1.039   1.764   4.245  2.7508  0.1824  1.1308
 9763TIP3    H250705   1.076   1.762   4.098  0.1223 -1.0875  0.4289
 9764TIP3   OH250706   1.592   4.587   3.396  0.2566 -0.4331 -0.3194
 9764TIP3    H150707   1.549   4.670   3.416 -0.3550 -1.0853  1.2854
 9764TIP3    H250708   1.671   4.588   3.450  0.2723 -0.8714 -0.3318
 9765TIP3   OH250709   5.264   1.268   2.555 -0.4201 -0.1911 -0.6658
 9765TIP3    H150710   5.186   1.248   2.503  0.9018 -2.3659 -1.9847
 9765TIP3    H250711   5.318   1.322   2.497 -1.1448  1.7948  0.4530
 9766TIP3   OH250712   6.220   4.390   6.845  0.6848 -0.1395  0.8498
 9766TIP3    H150713   6.262   4.327   6.903 -1.0220 -1.1774  1.0243
 9766TIP3    H250714   6.168   4.337   6.785 -1.5961  1.0795  1.6240
 9767TIP3   OH250715   0.259   5.086  12.751  0.2644 -0.3654  0.0600
 9767TIP3    H150716   0.347   5.062  12.722  0.4802  0.4453  0.0283
 9767TIP3    H250717   0.203   5.069  12.675  0.0979 -2.4921  0.6032
 9768TIP3   OH250718   0.849   6.188  14.064  0.0475 -0.2211  0.0595
 9768TIP3    H150719   0.880   6.196  13.974 -1.3495 -2.2363 -0.6924
 9768TIP3    H250720   0.816   6.275  14.087 -0.1432  0.1798 -1.6140
 9769TIP3   OH250721   4.260   0.918  17.147  0.3265 -0.0201 -0.2290
 9769TIP3    H150722   4.300   0.993  17.191  0.8797 -0.8926  0.7930
 9769TIP3    H250723   4.321   0.896  17.077  0.1364  0.4961 -0.5670
 9770TIP3   OH250724   4.806   3.028  12.390 -0.3321  0.2639  0.4447
 9770TIP3    H150725   4.793   3.086  12.465 -1.2846 -0.1056  0.5831
 9770TIP3    H250726   4.723   2.980  12.382  0.4679 -1.2096  0.4581
 9771TIP3   OH250727   4.001   5.940   5.976 -0.2018  0.2920 -0.1830
 9771TIP3    H150728   4.053   5.973   5.903  1.8420  1.6059  1.7105
 9771TIP3    H250729   4.039   5.983   6.053 -1.0687 -2.3342  1.8585
 9772TIP3   OH250730   2.227   5.675  10.439  0.0167 -0.2215 -0.1983
 9772TIP3    H150731   2.230   5.593  10.488 -0.0828  0.4986  1.0538
 9772TIP3    H250732   2.303   5.671  10.381  1.8803  0.1407  2.0861
 9773TIP3   OH250733   6.588   5.592   2.660 -0.3487  0.3011 -0.1065
 9773TIP3    H150734   6.504   5.599   2.614 -0.7337 -0.0184  0.5350
 9773TIP3    H250735   6.567   5.611   2.751  0.5282  1.5908 -0.1543
 9774TIP3   OH250736   3.746   5.385   0.996  0.0119  0.1054  0.1304
 9774TIP3    H150737   3.662   5.380   0.949  0.1612  0.2838 -0.1621
 9774TIP3    H250738   3.742   5.469   1.042  0.8960  1.1688 -1.6033
 9775TIP3   OH250739   3.849   0.024   2.084 -0.5103 -0.4850 -0.3218
 9775TIP3    H150740   3.894  -0.051   2.046 -1.4816 -0.8159 -0.8742
 9775TIP3    H250741   3.841   0.086   2.011  0.8200  0.4271  0.2781
 9776TIP3   OH250742   4.266   3.280   5.443  0.0105 -0.0166 -0.0530
 9776TIP3    H150743   4.252   3.356   5.499 -1.3269  0.4948 -1.0200
 9776TIP3    H250744   4.355   3.290   5.410  0.1335  0.6907  0.4812
 9777TIP3   OH250745   1.439   6.447   0.481  0.0492 -0.3210 -0.6194
 9777TIP3    H150746   1.428   6.370   0.425 -0.6492 -0.2874 -0.5349
 9777TIP3    H250747   1.354   6.460   0.522  0.1632  0.4840 -0.6159
 9778TIP3   OH250748   1.699   3.754   0.936 -0.2611  0.8186 -0.1917
 9778TIP3    H150749   1.661   3.828   0.985 -0.5590 -1.1813  2.8805
 9778TIP3    H250750   1.786   3.744   0.973 -0.7367 -1.1782  0.4827
 9779TIP3   OH250751   0.695   2.158   0.251  0.3403  0.0469  0.3172
 9779TIP3    H150752   0.642   2.237   0.250 -0.9078 -0.7444 -1.4682
 9779TIP3    H250753   0.768   2.177   0.192 -0.0437 -0.1681 -0.2347
 9780TIP3   OH250754   5.365   5.691  16.465 -0.3235  0.1995  0.4037
 9780TIP3    H150755   5.367   5.737  16.381  2.8809 -0.8722 -0.2542
 9780TIP3    H250756   5.393   5.758  16.529  0.7162  0.1686  0.0115
 9781TIP3   OH250757   2.471   6.138  11.321 -0.5333  0.1881  0.2074
 9781TIP3    H150758   2.400   6.194  11.289  0.0275  0.1722 -1.1024
 9781TIP3    H250759   2.459   6.138  11.416 -1.4150  1.3602  0.1305
 9782TIP3   OH250760   6.277   4.026   4.532  1.2296 -0.2902 -0.2432
 9782TIP3    H150761   6.278   4.113   4.571 -0.3639 -0.5768  0.5512
 9782TIP3    H250762   6.369   4.000   4.527  1.6072  0.4849  1.7196
 9783TIP3   OH250763   3.544   2.845   3.132 -0.1064  0.2484  0.1075
 9783TIP3    H150764   3.615   2.781   3.139 -0.1349  0.3573  2.4442
 9783TIP3    H250765   3.578   2.912   3.073  1.4752 -0.0713  0.5818
 9784TIP3   OH250766   2.236   4.490  12.441  0.0535  0.6582 -0.5327
 9784TIP3    H150767   2.282   4.409  12.423  1.9332  0.8824  2.4854
 9784TIP3    H250768   2.288   4.558  12.398 -0.1969  0.4868 -1.1104
 9785TIP3   OH250769   5.137   0.420   0.792 -0.0575  0.0103 -0.1764
 9785TIP3    H150770   5.189   0.426   0.712  1.5108  1.2075  0.8712
 9785TIP3    H250771   5.047   0.431   0.763  0.6021  2.5868 -1.6117
 9786TIP3   OH250772   5.190   4.855  15.993 -0.1414  0.2372  0.0804
 9786TIP3    H150773   5.202   4.835  15.900  1.0237 -0.9740  0.4511
 9786TIP3    H250774   5.272   4.899  16.019  0.2962 -1.0155  0.9061
 9787TIP3   OH250775   1.747   1.624  12.885  0.1845  0.1998 -0.9207
 9787TIP3    H150776   1.818   1.597  12.827  2.1946  1.2059  0.9455
 9787TIP3    H250777   1.730   1.547  12.940  2.0888  0.8655  0.7135
 9788TIP3   OH250778   6.450   1.710   4.579  0.4988  0.4495 -0.3759
 9788TIP3    H150779   6.401   1.750   4.508 -0.0507 -3.1293 -2.2827
 9788TIP3    H250780   6.383   1.685   4.643  0.3228 -0.4511 -0.8807
 9789TIP3   OH250781   1.419   3.503  15.367 -0.0291  0.0846  0.9440
 9789TIP3    H150782   1.485   3.436  15.349  0.4539  0.6507  0.5765
 9789TIP3    H250783   1.436   3.529  15.458 -0.0407 -0.0956  0.9987
 9790TIP3   OH250784   5.700   4.722  10.701 -0.0329 -0.2837  0.1092
 9790TIP3    H150785   5.738   4.737  10.787  0.9250 -0.6119 -0.2515
 9790TIP3    H250786   5.706   4.628  10.688  1.7956 -0.0412 -1.1927
 9791TIP3   OH250787   1.515   3.478  13.122  0.4206  0.7448  0.0943
 9791TIP3    H150788   1.420   3.468  13.117  0.4074  1.2492 -1.7378
 9791TIP3    H250789   1.550   3.393  13.094  0.5424  0.3913  1.2597
 9792TIP3   OH250790   4.196   3.599   5.462 -0.2937  0.0758  0.2427
 9792TIP3    H150791   4.255   3.575   5.391  0.3594  0.1133  0.7602
 9792TIP3    H250792   4.186   3.519   5.513  1.2908  0.6459  1.5416
 9793TIP3   OH250793   1.991   0.496  12.390 -0.2729 -0.0264  0.5031
 9793TIP3    H150794   1.971   0.514  12.482 -2.0702  1.3869 -0.0942
 9793TIP3    H250795   2.059   0.559  12.368 -1.6922  1.5046  0.2432
 9794TIP3   OH250796   4.073   5.797  16.865  0.7330  0.3485 -0.0635
 9794TIP3    H150797   4.118   5.738  16.805  0.2391  1.3440 -1.4543
 9794TIP3    H250798   4.017   5.851  16.809 -0.9967  0.2252  1.4324
 9795TIP3   OH250799   3.281   0.666  14.588 -0.1102  0.2802  0.1713
 9795TIP3    H150800   3.220   0.637  14.520  1.0649 -2.3568  0.1429
 9795TIP3    H250801   3.306   0.754  14.561 -2.9223  1.0056 -0.4531
 9796TIP3   OH250802   0.307   2.664  15.201 -0.0134 -0.0697  0.5596
 9796TIP3    H150803   0.390   2.682  15.157  0.2565 -1.6275  0.4064
 9796TIP3    H250804   0.313   2.573  15.230 -2.7326 -1.2501 -2.0101
 9797TIP3   OH250805   4.622   0.008  13.616 -0.3411 -0.3586  0.0246
 9797TIP3    H150806   4.665  -0.043  13.547  2.4605  2.8078 -0.7874
 9797TIP3    H250807   4.624  -0.049  13.693  2.0723 -1.7194 -0.9538
 9798TIP3   OH250808   4.328   5.642  16.101  0.1099  0.3166 -0.1412
 9798TIP3    H150809   4.251   5.656  16.156  0.3985 -1.3837  0.7916
 9798TIP3    H250810   4.295   5.642  16.012 -0.8485  0.3738  0.2023
 9799TIP3   OH250811   2.902   5.198  12.757 -0.8586  0.1947 -0.3513
 9799TIP3    H150812   2.817   5.189  12.798 -0.9223  0.3278 -0.4524
 9799TIP3    H250813   2.883   5.233  12.669 -0.6149  1.6822  0.1547
 9800TIP3   OH250814   6.193   5.914  15.747 -0.2649 -0.4002 -0.3011
 9800TIP3    H150815   6.232   5.828  15.761 -0.1337 -0.4000 -0.6427
 9800TIP3    H250816   6.100   5.903  15.768 -0.4380 -0.8715 -1.2473
 9801TIP3   OH250817   0.028   5.148   2.050  0.2035  0.1845  0.6715
 9801TIP3    H150818  -0.010   5.160   2.137  0.9985 -0.6067  1.1370
 9801TIP3    H250819  -0.001   5.061   2.022  1.5255 -0.3815  0.9827
 9802TIP3   OH250820   1.405   4.966  14.134 -0.5825  0.2829  0.0685
 9802TIP3    H150821   1.339   4.964  14.204 -0.4265  0.5651  0.2273
 9802TIP3    H250822   1.442   4.878  14.134 -1.6723 -0.1987 -0.7131
 9803TIP3   OH250823   6.358   4.680   3.046 -1.3971 -0.1284  0.2311
 9803TIP3    H150824   6.397   4.656   2.961 -1.2497 -0.4328  0.3843
 9803TIP3    H250825   6.323   4.768   3.032 -0.9817  0.0011 -0.0169
 9804TIP3   OH250826   5.110   0.652   5.732 -0.1017 -0.1218 -0.8658
 9804TIP3    H150827   5.084   0.563   5.709  1.0108 -0.7190  0.0296
 9804TIP3    H250828   5.202   0.644   5.757 -0.4727  0.9270  1.0440
 9805TIP3   OH250829   6.712   0.016  16.623 -0.1768  0.6689 -0.1750
 9805TIP3    H150830   6.714   0.060  16.538  1.0222  0.3465 -0.3408
 9805TIP3    H250831   6.769  -0.060  16.611 -2.3467 -1.1051  0.0200
 9806TIP3   OH250832   1.766   3.284   2.501 -0.7453 -0.2222 -0.3864
 9806TIP3    H150833   1.854   3.302   2.469 -0.0319 -1.2016  0.9361
 9806TIP3    H250834   1.743   3.199   2.463 -0.8059 -0.3299 -0.1132
 9807TIP3   OH250835   5.979   6.662  14.009  0.0124  0.2131 -0.1993
 9807TIP3    H150836   5.950   6.618  13.929 -0.0160  0.2602 -0.2147
 9807TIP3    H250837   5.908   6.721  14.031 -0.9377 -1.3608  1.0944
 9808TIP3   OH250838   0.559   5.791  12.689  0.9378  0.1297 -0.7547
 9808TIP3    H150839   0.586   5.747  12.608 -0.4465 -0.6986 -0.7991
 9808TIP3    H250840   0.515   5.723  12.740  1.7594  0.6418  0.7047
 9809TIP3   OH250841   5.794   4.608  13.258  0.5365 -0.3542  0.0521
 9809TIP3    H150842   5.740   4.641  13.330  0.8732  2.2524 -0.7698
 9809TIP3    H250843   5.870   4.569  13.301  1.1703  1.9247  1.2131
 9810TIP3   OH250844   3.965   1.584  15.228 -0.5388 -0.0963 -0.4340
 9810TIP3    H150845   3.898   1.516  15.230 -0.1142 -0.5405 -1.0437
 9810TIP3    H250846   3.986   1.595  15.135 -0.4324  0.7029 -0.3228
 9811TIP3   OH250847   5.174   2.551   5.967 -0.6097  0.5431 -0.6481
 9811TIP3    H150848   5.217   2.604   5.900  1.1832 -0.8353 -0.6550
 9811TIP3    H250849   5.246   2.521   6.024 -1.8246 -0.1484  0.5831
 9812TIP3   OH250850   4.752   2.183  12.872  0.5012  0.3145  0.3034
 9812TIP3    H150851   4.690   2.139  12.930  1.7752 -0.1184  1.3916
 9812TIP3    H250852   4.808   2.234  12.931  1.3251  0.5077 -0.6098
 9813TIP3   OH250853   4.189   4.560   5.041  0.4353  0.6729  0.1242
 9813TIP3    H150854   4.163   4.489   4.982 -2.5073  1.8974 -0.2329
 9813TIP3    H250855   4.138   4.544   5.120  0.3934  1.9033  0.3585
 9814TIP3   OH250856   3.013   4.606   5.304 -0.0574 -0.6534  0.3782
 9814TIP3    H150857   2.998   4.633   5.213  0.7150  0.7975  0.6606
 9814TIP3    H250858   3.028   4.688   5.351  0.5705 -1.4670  1.6226
 9815TIP3   OH250859   4.526   2.016   1.160 -0.2578 -0.0246  0.1481
 9815TIP3    H150860   4.615   1.980   1.155 -0.3577 -0.2284 -0.1909
 9815TIP3    H250861   4.476   1.965   1.096 -0.5202  0.3785  0.0287
 9816TIP3   OH250862   6.706   1.985  10.986  0.5106 -0.3912  0.3211
 9816TIP3    H150863   6.679   1.996  11.078  0.7492 -1.5138  0.5372
 9816TIP3    H250864   6.801   1.973  10.990  0.3594 -1.9359  0.0952
 9817TIP3   OH250865   1.557   2.195   5.548 -0.4669  0.0063 -0.0560
 9817TIP3    H150866   1.574   2.195   5.642  0.5561  1.0273 -0.2083
 9817TIP3    H250867   1.508   2.115   5.532  0.4380 -0.8304  1.1623
 9818TIP3   OH250868   2.694   2.498  14.655  0.4855  0.2038 -0.4543
 9818TIP3    H150869   2.721   2.433  14.589 -0.0384  1.1209 -1.6096
 9818TIP3    H250870   2.702   2.452  14.738 -0.1244 -1.4488 -1.2557
 9819TIP3   OH250871   4.100   6.455   3.204  0.0442 -0.0577  0.3814
 9819TIP3    H150872   4.091   6.537   3.155 -0.5062 -0.2752  0.1170
 9819TIP3    H250873   4.026   6.402   3.176  0.5973 -0.7919  0.2722
 9820TIP3   OH250874   5.106   4.000   5.909 -0.1296 -0.1208 -0.4546
 9820TIP3    H150875   5.156   3.918   5.904 -1.1099 -0.6713 -2.4146
 9820TIP3    H250876   5.015   3.972   5.919 -0.4401  0.7327 -0.7778
 9821TIP3   OH250877   6.598   5.067   4.060 -0.3893 -0.3159 -0.4969
 9821TIP3    H150878   6.566   5.155   4.078 -1.0262 -0.3637 -1.3063
 9821TIP3    H250879   6.530   5.009   4.094  0.6300 -0.5598  1.2192
 9822TIP3   OH250880   3.805   1.236  12.094  0.0532  0.2117  0.6822
 9822TIP3    H150881   3.748   1.248  12.019  1.7505  0.9277 -0.5649
 9822TIP3    H250882   3.829   1.325  12.121  3.8753  0.1205 -1.5705
 9823TIP3   OH250883   4.256   5.490   2.539 -0.1177  0.3030  0.3081
 9823TIP3    H150884   4.246   5.525   2.450 -0.0987  0.2206  0.2737
 9823TIP3    H250885   4.206   5.551   2.594 -1.7520 -0.7007  0.0146
 9824TIP3   OH250886   5.700   1.837  14.794  0.5181  0.3979  0.1590
 9824TIP3    H150887   5.759   1.872  14.727  1.4334  0.3816  0.9352
 9824TIP3    H250888   5.627   1.899  14.796  2.2460  2.5158  1.7218
 9825TIP3   OH250889   0.785   4.994   5.024  0.2001  0.0896  0.9153
 9825TIP3    H150890   0.825   4.980   5.110  0.8190  0.2094  0.6500
 9825TIP3    H250891   0.823   5.076   4.992 -0.1510  0.1307  0.6003
 9826TIP3   OH250892   4.780   5.327   4.363  0.0493  0.3595  0.0135
 9826TIP3    H150893   4.809   5.352   4.275 -0.9236  2.1287  0.1523
 9826TIP3    H250894   4.851   5.274   4.398  0.2497 -0.7901 -2.0126
 9827TIP3   OH250895   3.487   0.376  11.360 -0.1487 -0.7167  0.5038
 9827TIP3    H150896   3.424   0.398  11.429  0.5939 -0.7825  1.2259
 9827TIP3    H250897   3.478   0.282  11.348  0.3505 -0.8634  1.1817
 9828TIP3   OH250898   0.945   2.456  10.812 -0.2124 -0.3560  0.5199
 9828TIP3    H150899   0.948   2.387  10.745 -0.3793 -1.1881  1.3445
 9828TIP3    H250900   0.905   2.531  10.767 -2.4357 -1.5940  0.2764
 9829TIP3   OH250901   4.188   5.971   2.896 -0.3408 -0.3556 -0.6665
 9829TIP3    H150902   4.129   6.011   2.832 -1.0328  0.4083  0.4154
 9829TIP3    H250903   4.268   6.024   2.891 -0.9765  0.7416  0.2127
 9830TIP3   OH250904   0.342   6.313   3.429  0.6742  0.0916 -0.0279
 9830TIP3    H150905   0.282   6.337   3.500  0.2566 -1.1496  0.0773
 9830TIP3    H250906   0.290   6.320   3.350  0.8150  0.4194 -0.0898
 9831TIP3   OH250907   1.822   6.058  13.842  0.1904  0.3348  0.6768
 9831TIP3    H150908   1.807   6.150  13.817 -0.5124  0.0734  0.0902
 9831TIP3    H250909   1.879   6.024  13.773 -1.3291 -0.2474 -0.3394
 9832TIP3   OH250910   3.800   1.643   2.319  0.0116  0.4777 -0.0837
 9832TIP3    H150911   3.746   1.567   2.297 -1.0618  1.4047 -0.7953
 9832TIP3    H250912   3.885   1.607   2.341 -0.9189 -1.0478  1.2004
 9833TIP3   OH250913   1.914   6.652  17.259 -0.0255  0.0952 -0.0070
 9833TIP3    H150914   1.898   6.591  17.331 -0.3652  0.0839 -0.0924
 9833TIP3    H250915   1.860   6.728  17.279 -0.6479 -0.1844 -0.5977
 9834TIP3   OH250916   4.863   1.086   1.731 -0.0940 -0.0353  0.0730
 9834TIP3    H150917   4.793   1.151   1.740  0.8124  0.7886  1.7561
 9834TIP3    H250918   4.826   1.006   1.768 -1.1420 -0.4626 -1.8096
 9835TIP3   OH250919   4.889   0.260  16.095 -0.3751  0.0026 -0.6598
 9835TIP3    H150920   4.981   0.245  16.118  0.5846  0.9560 -3.5252
 9835TIP3    H250921   4.850   0.173  16.099  0.4503 -0.3335  1.2285
 9836TIP3   OH250922   1.717   5.178  17.043 -0.1082 -0.6097 -0.0478
 9836TIP3    H150923   1.645   5.240  17.053 -0.3298 -0.3855 -2.4679
 9836TIP3    H250924   1.789   5.215  17.094 -0.8276  0.6520  0.0764
 9837TIP3   OH250925   0.115   6.403  16.906 -0.1050  0.1141 -0.2932
 9837TIP3    H150926   0.026   6.418  16.874 -0.3584  0.8823  0.6976
 9837TIP3    H250927   0.112   6.317  16.947 -0.5338  0.3392  0.1619
 9838TIP3   OH250928   5.013   1.479  11.398 -0.0492  0.0639 -0.5437
 9838TIP3    H150929   5.047   1.488  11.309 -1.2465  0.5746 -0.9726
 9838TIP3    H250930   5.084   1.509  11.454  0.7420 -0.3109 -1.3150
 9839TIP3   OH250931   2.451   0.693   0.435  0.4863  0.3425 -0.4743
 9839TIP3    H150932   2.501   0.623   0.393  0.0439 -0.3815  0.1899
 9839TIP3    H250933   2.512   0.767   0.439  2.4026 -1.2078  2.4843
 9840TIP3   OH250934   3.035   0.472   3.221 -0.0423 -0.0748 -0.4289
 9840TIP3    H150935   3.040   0.403   3.287 -1.1883  0.8431  0.6626
 9840TIP3    H250936   2.975   0.537   3.259 -0.4403  0.6496 -2.2256
 9841TIP3   OH250937   2.283   6.096  11.809 -0.7963 -0.3750  0.4391
 9841TIP3    H150938   2.376   6.081  11.793 -1.0514 -1.3859 -0.2104
 9841TIP3    H250939   2.281   6.158  11.882  0.3855  0.5101 -0.2360
 9842TIP3   OH250940   1.164   5.518   4.167 -0.3682 -0.5592 -0.2200
 9842TIP3    H150941   1.098   5.522   4.098  0.0824  0.9778 -0.5911
 9842TIP3    H250942   1.113   5.505   4.248 -0.8597 -2.9519 -0.8384
 9843TIP3   OH250943   2.985   0.875   2.206 -0.6374  0.2567 -0.2096
 9843TIP3    H150944   3.032   0.795   2.184 -1.3618 -0.4112  0.6333
 9843TIP3    H250945   3.046   0.945   2.182 -0.5152 -0.4627 -2.2404
 9844TIP3   OH250946   5.683   0.606  12.983 -0.1144 -0.2923 -0.9546
 9844TIP3    H150947   5.669   0.563  13.067 -0.3848  0.6073 -0.5279
 9844TIP3    H250948   5.640   0.548  12.919 -0.5444 -0.6094 -0.3903
 9845TIP3   OH250949   1.808   0.712   4.851  0.0402 -1.2898  0.0980
 9845TIP3    H150950   1.840   0.716   4.761 -1.0648 -0.0709 -0.2728
 9845TIP3    H250951   1.836   0.626   4.882  1.5694 -1.2136 -0.9641
 9846TIP3   OH250952   5.959   2.675   6.515 -0.2076 -0.2465 -0.1627
 9846TIP3    H150953   5.957   2.591   6.561 -1.1502  0.0930  0.4449
 9846TIP3    H250954   6.018   2.729   6.569 -0.3023 -0.2444 -0.0603
 9847TIP3   OH250955   3.253   5.715   4.813  0.2131  0.6751 -0.2491
 9847TIP3    H150956   3.282   5.757   4.733 -0.0985  1.4804  0.0515
 9847TIP3    H250957   3.324   5.730   4.875  0.7137 -0.4543 -0.5327
 9848TIP3   OH250958   2.204   1.927  12.275 -0.2445  0.1774 -0.2459
 9848TIP3    H150959   2.118   1.886  12.287 -0.1716  0.4297  1.3507
 9848TIP3    H250960   2.237   1.940  12.364  0.9685  1.1181 -0.8054
 9849TIP3   OH250961   3.266   3.683  15.779 -0.1466 -0.2049  0.9819
 9849TIP3    H150962   3.354   3.649  15.766  0.0221  0.1981  1.0419
 9849TIP3    H250963   3.220   3.665  15.698  0.9061  2.3674 -0.3082
 9850TIP3   OH250964   2.736   4.530   1.978 -0.0867  0.0035 -0.2132
 9850TIP3    H150965   2.763   4.622   1.969  0.4799 -0.0727  0.5630
 9850TIP3    H250966   2.644   4.535   2.003 -0.1234  0.3545 -0.4034
 9851TIP3   OH250967   3.452   0.350  14.915  0.3716  0.2293 -0.7841
 9851TIP3    H150968   3.519   0.387  14.972  0.6282 -0.0489 -0.8967
 9851TIP3    H250969   3.443   0.259  14.944 -0.3264  0.4034 -0.4409
 9852TIP3   OH250970   2.999   4.210   3.604  0.1171  0.2944  0.1142
 9852TIP3    H150971   3.045   4.129   3.583 -0.8705 -0.0141 -0.9638
 9852TIP3    H250972   3.069   4.273   3.620  0.9721 -0.0098 -2.0252
 9853TIP3   OH250973   4.361   2.679  14.844 -0.4461  0.3464 -0.0167
 9853TIP3    H150974   4.293   2.733  14.803 -0.0749  0.6764 -0.2030
 9853TIP3    H250975   4.351   2.695  14.938 -0.0460  1.0994 -0.0958
 9854TIP3   OH250976   6.271   3.822  15.756 -0.0429  0.0941 -0.7063
 9854TIP3    H150977   6.216   3.880  15.704  0.1714  0.4756 -0.5130
 9854TIP3    H250978   6.330   3.881  15.803  1.0319 -0.3463 -1.4700
 9855TIP3   OH250979   6.695   5.248   4.542  0.1876  0.5658  0.1758
 9855TIP3    H150980   6.617   5.302   4.529 -0.3300 -0.0215  0.7378
 9855TIP3    H250981   6.752   5.270   4.469  0.3229  2.4343  0.7969
 9856TIP3   OH250982   0.067   5.720  14.365 -0.7026 -0.5040 -0.3122
 9856TIP3    H150983   0.021   5.679  14.291 -1.0770 -0.3818 -0.1454
 9856TIP3    H250984  -0.002   5.760  14.417 -0.4441 -0.6568  0.1483
 9857TIP3   OH250985   4.652   6.022  13.186 -0.0883 -0.1153  0.2615
 9857TIP3    H150986   4.619   6.063  13.106  0.2390  1.0319  0.6869
 9857TIP3    H250987   4.575   6.015  13.243  0.0507  0.9653  0.6041
 9858TIP3   OH250988   6.766   0.229   1.176  0.0281  0.9180 -0.9263
 9858TIP3    H150989   6.699   0.247   1.241 -0.9198  1.4248 -2.0033
 9858TIP3    H250990   6.776   0.134   1.177 -0.8463  0.8234 -0.8826
 9859TIP3   OH250991   6.193   3.315  16.555 -0.3551  0.2404  0.7806
 9859TIP3    H150992   6.164   3.249  16.618  0.4646 -0.6124  0.2918
 9859TIP3    H250993   6.113   3.358  16.527 -1.0978 -1.5159  0.0624
 9860TIP3   OH250994   5.873   5.690  16.240  0.4964 -0.0989  0.0500
 9860TIP3    H150995   5.909   5.608  16.275  0.6107  0.3700  1.0595
 9860TIP3    H250996   5.783   5.693  16.273 -0.0393 -0.5684 -1.2904
 9861TIP3   OH250997   0.893   1.959  12.647  0.6628  0.2634  0.1543
 9861TIP3    H150998   0.980   1.991  12.626  1.7921 -2.6886 -0.2258
 9861TIP3    H250999   0.854   1.936  12.563  0.7740 -1.2456  0.4838
 9862TIP3   OH251000   1.440   0.733   3.236 -0.3599 -0.0062 -0.4952
 9862TIP3    H151001   1.484   0.805   3.191  1.2841 -0.6397 -0.0044
 9862TIP3    H251002   1.494   0.717   3.314 -0.7369 -1.6763 -0.5330
 9863TIP3   OH251003   4.010   4.595  14.708 -0.4387  0.4671  0.5570
 9863TIP3    H151004   3.927   4.607  14.661 -0.3506  3.0533  0.9466
 9863TIP3    H251005   4.076   4.631  14.649  0.2469 -0.3120  0.8397
 9864TIP3   OH251006   6.765   3.679   2.268 -0.3233 -0.1284 -0.0763
 9864TIP3    H151007   6.846   3.727   2.285  0.2976 -1.0953 -0.1960
 9864TIP3    H251008   6.772   3.600   2.322 -0.4676 -0.9719 -1.2612
 9865TIP3   OH251009   0.440   4.318   5.116 -0.1645 -0.0408  0.1181
 9865TIP3    H151010   0.346   4.331   5.103  0.1674  1.7671 -0.8289
 9865TIP3    H251011   0.472   4.403   5.145  1.3005 -0.3905 -0.3793
 9866TIP3   OH251012   1.127   0.743   1.050 -0.5032 -0.2061 -0.3961
 9866TIP3    H151013   1.124   0.796   1.130  2.0622 -1.6399  0.7873
 9866TIP3    H251014   1.039   0.705   1.044 -1.1211  0.8510  1.0548
 9867TIP3   OH251015   0.209   5.963  11.630  0.2310  0.0636 -0.6842
 9867TIP3    H151016   0.283   5.913  11.597  1.5857  1.8075 -0.4111
 9867TIP3    H251017   0.248   6.036  11.678 -1.6606  0.9547 -0.3887
 9868TIP3   OH251018   6.003   1.794   3.417  0.0624 -0.0546 -0.1101
 9868TIP3    H151019   5.958   1.808   3.333  0.8090  2.4994 -0.1626
 9868TIP3    H251020   6.058   1.872   3.428  1.1779 -1.0627  2.0273
 9869TIP3   OH251021   4.713   3.778   0.572 -0.3598  0.2865  0.0703
 9869TIP3    H151022   4.665   3.841   0.625 -1.7463 -0.0458 -0.7421
 9869TIP3    H251023   4.666   3.696   0.582  0.7336 -0.3540  0.1748
 9870TIP3   OH251024   2.600   0.894  16.748 -0.0850  0.8326 -0.1945
 9870TIP3    H151025   2.656   0.883  16.825  1.8848  1.0862 -1.5447
 9870TIP3    H251026   2.546   0.970  16.769  0.9226  1.3337  0.6692
 9871TIP3   OH251027   5.236   3.158   0.174 -0.5644  0.1118  0.4732
 9871TIP3    H151028   5.242   3.248   0.143  0.2331 -0.7491 -2.1368
 9871TIP3    H251029   5.145   3.148   0.201 -1.0432  1.3113 -0.5669
 9872TIP3   OH251030   1.674   0.053   0.037 -0.0822  0.7271  0.0553
 9872TIP3    H151031   1.679   0.124  -0.027  0.8914  1.1368  0.5646
 9872TIP3    H251032   1.628   0.091   0.112 -1.3615  0.2011 -0.4294
 9873TIP3   OH251033   4.703   4.331   3.148 -0.4345  0.5955 -0.1469
 9873TIP3    H151034   4.631   4.395   3.151 -0.8344  0.1835 -0.7153
 9873TIP3    H251035   4.737   4.330   3.237 -1.5430  0.3502  0.2993
 9874TIP3   OH251036   0.350   0.712  12.946  0.3509 -0.0888 -0.3045
 9874TIP3    H151037   0.346   0.807  12.935 -0.3832 -0.0238  0.4087
 9874TIP3    H251038   0.330   0.698  13.039 -0.2683 -0.9806 -0.5609
 9875TIP3   OH251039   1.471   6.099  13.490  0.0111  0.0485  0.7589
 9875TIP3    H151040   1.525   6.165  13.446  0.5144  0.7040  2.3223
 9875TIP3    H251041   1.521   6.018  13.480  1.4136  0.6689  2.3045
 9876TIP3   OH251042   6.302   5.479   5.592  0.4326 -0.8012  0.7054
 9876TIP3    H151043   6.373   5.462   5.530 -1.8021 -2.7532 -1.5387
 9876TIP3    H251044   6.306   5.406   5.654 -0.8333 -2.1566 -0.7287
 9877TIP3   OH251045   5.680   2.049  15.519  0.2151 -0.1476  0.0596
 9877TIP3    H151046   5.608   2.039  15.582  0.5959 -1.8606  0.2716
 9877TIP3    H251047   5.757   2.063  15.574  0.2814  0.1963 -0.1168
 9878TIP3   OH251048   1.891   2.056   1.627 -0.5229 -0.6923 -0.3158
 9878TIP3    H151049   1.811   2.061   1.574 -1.5119  3.4393  1.1344
 9878TIP3    H251050   1.957   2.102   1.575  0.5434 -2.5942 -0.7520
 9879TIP3   OH251051   2.976   5.433  11.067 -0.1361  0.0532 -0.3162
 9879TIP3    H151052   2.900   5.375  11.058  0.4619 -0.7489 -0.3297
 9879TIP3    H251053   2.988   5.470  10.980 -0.8222  0.5984 -0.1919
 9880TIP3   OH251054   1.169   4.803   0.315  0.0531  0.3484 -0.2616
 9880TIP3    H151055   1.149   4.758   0.233  1.0091 -0.9294  0.1803
 9880TIP3    H251056   1.256   4.840   0.302  0.6642 -0.7470  0.4978
 9881TIP3   OH251057   5.508   1.633   2.330 -0.1528 -0.4540  0.0037
 9881TIP3    H151058   5.517   1.678   2.246 -0.2538  1.1845  0.8353
 9881TIP3    H251059   5.594   1.594   2.346 -0.4362 -1.7285 -1.3420
 9882TIP3   OH251060   1.122   0.434  14.230 -0.4661 -0.6341  0.2626
 9882TIP3    H151061   1.181   0.365  14.200 -0.0901  0.3852 -1.4758
 9882TIP3    H251062   1.159   0.514  14.194 -3.4957 -0.0346 -1.8854
 9883TIP3   OH251063   4.782   5.075   5.181  0.4358  0.3431 -0.3644
 9883TIP3    H151064   4.817   5.065   5.270  1.0229  0.5699 -0.5639
 9883TIP3    H251065   4.723   5.151   5.187 -0.6855 -0.5429  0.1618
 9884TIP3   OH251066   0.466   5.276   3.082  0.0033  0.1361 -0.2312
 9884TIP3    H151067   0.468   5.187   3.048  0.5143  0.4612 -1.0897
 9884TIP3    H251068   0.373   5.294   3.096 -0.1776 -0.2257 -0.9063
 9885TIP3   OH251069   4.304   4.555  15.723 -0.2495 -0.3757 -0.1676
 9885TIP3    H151070   4.286   4.527  15.813  2.8099 -0.6709  0.4586
 9885TIP3    H251071   4.360   4.486  15.688  2.2588  1.8253 -0.7615
 9886TIP3   OH251072   0.145   5.404  14.674  0.3400  0.2742 -0.4154
 9886TIP3    H151073   0.234   5.437  14.666  0.1963  0.9244  0.5372
 9886TIP3    H251074   0.090   5.473  14.638  0.1427  0.4481  0.1982
 9887TIP3   OH251075   3.093   1.322  16.160  0.0770 -0.3401 -0.2122
 9887TIP3    H151076   3.001   1.351  16.159  0.0530  0.2316  3.4672
 9887TIP3    H251077   3.140   1.396  16.199  1.2313 -2.3294  2.5095
 9888TIP3   OH251078   2.012   1.532   5.042 -0.5348 -0.8568 -0.2078
 9888TIP3    H151079   2.048   1.619   5.059  0.0736 -1.0330 -0.5502
 9888TIP3    H251080   2.060   1.475   5.103 -2.3142 -0.6931  1.4399
 9889TIP3   OH251081   0.269   4.641  13.218 -0.2020  0.0391 -0.3035
 9889TIP3    H151082   0.304   4.703  13.154  0.3653  0.1864  0.1438
 9889TIP3    H251083   0.295   4.555  13.185 -1.3476 -0.0007 -1.1450
 9890TIP3   OH251084   2.405   3.943  12.532  0.5580 -0.0945  0.5589
 9890TIP3    H151085   2.352   3.864  12.536  1.3791 -0.6581  0.5306
 9890TIP3    H251086   2.353   4.009  12.580 -0.6541 -0.3121 -0.3991
 9891TIP3   OH251087   4.489   1.909  12.718 -0.1458 -0.4517 -0.3028
 9891TIP3    H151088   4.562   1.858  12.753 -0.6899 -0.2659  1.1749
 9891TIP3    H251089   4.528   1.968  12.654  0.9692 -0.4784  0.3363
 9892TIP3   OH251090   4.029   6.280   0.834  0.4552  0.1271  0.0780
 9892TIP3    H151091   4.051   6.243   0.920  1.4216 -1.8985 -0.9461
 9892TIP3    H251092   4.092   6.351   0.821  1.7868 -0.9887  0.1718
 9893TIP3   OH251093   1.730   4.942  15.408 -0.4484 -0.3426  0.0136
 9893TIP3    H151094   1.691   4.907  15.328 -2.4965  0.0914  0.7642
 9893TIP3    H251095   1.655   4.972  15.460  0.9273  0.7762  1.4428
 9894TIP3   OH251096   3.765   0.649  12.381  0.6154 -0.2876 -0.1076
 9894TIP3    H151097   3.816   0.574  12.352 -1.7774 -1.9038 -0.4147
 9894TIP3    H251098   3.722   0.681  12.301 -0.5227 -0.3524  0.4565
 9895TIP3   OH251099   4.619   5.270  15.233 -0.1193  0.2540 -0.1797
 9895TIP3    H151100   4.672   5.224  15.298  0.7722 -1.2960 -1.8950
 9895TIP3    H251101   4.606   5.357  15.270  2.6398  0.3231  0.9059
 9896TIP3   OH251102   5.504   6.478   2.301 -0.1520 -0.0603  0.2685
 9896TIP3    H151103   5.588   6.437   2.320  0.1886  0.4862 -0.0664
 9896TIP3    H251104   5.519   6.531   2.223 -0.4811  1.0590  0.9391
 9897TIP3   OH251105   4.697   5.092  11.739 -0.0507  0.2470  0.5848
 9897TIP3    H151106   4.654   5.068  11.657 -0.7957  0.5206  0.8829
 9897TIP3    H251107   4.625   5.120  11.796  0.5207  0.6638  1.1173
 9898TIP3   OH251108   6.154   3.132  16.762 -0.1369 -0.2293 -0.2473
 9898TIP3    H151109   6.141   3.101  16.852  0.7862  1.4442  0.4950
 9898TIP3    H251110   6.243   3.107  16.740  0.0037  0.2947 -0.2919
 9899TIP3   OH251111   4.458   4.812  15.016  0.0634 -0.0507  0.1145
 9899TIP3    H151112   4.444   4.894  14.968  2.7938  0.0329 -0.6965
 9899TIP3    H251113   4.481   4.840  15.105  0.8564  0.0911 -0.1261
 9900TIP3   OH251114   4.769   2.009  14.459  0.1022  0.0669  0.1936
 9900TIP3    H151115   4.678   1.990  14.435  0.3032 -0.2458 -0.3342
 9900TIP3    H251116   4.779   1.971  14.546  0.0119 -0.8098 -0.1644
 9901TIP3   OH251117   3.299   2.295   5.562  0.6126  0.3930  0.0717
 9901TIP3    H151118   3.247   2.348   5.623  0.5267  2.6268 -1.7891
 9901TIP3    H251119   3.328   2.358   5.496 -0.8076 -2.1305 -3.2028
 9902TIP3   OH251120   1.988   4.739  16.833  0.0685  0.1169  0.1783
 9902TIP3    H151121   1.994   4.737  16.929 -3.1499  0.6731  0.5189
 9902TIP3    H251122   1.951   4.654  16.809  0.9092 -0.0423 -0.6003
 9903TIP3   OH251123   6.019   5.906  13.799  0.6411  0.3281 -0.4920
 9903TIP3    H151124   5.968   5.980  13.833  1.2479  0.9131 -0.8290
 9903TIP3    H251125   6.011   5.912  13.704 -0.3427 -0.7994 -0.5065
 9904TIP3   OH251126   1.493   6.506  14.771 -0.0426  0.4840  0.0331
 9904TIP3    H151127   1.561   6.525  14.707  2.0243 -2.8724  0.9647
 9904TIP3    H251128   1.455   6.423  14.741  0.1677 -0.5653  2.4518
 9905TIP3   OH251129   1.208   2.630   5.954 -0.1677 -0.1322 -0.0870
 9905TIP3    H151130   1.166   2.621   6.040  1.8316  0.7445  1.0531
 9905TIP3    H251131   1.251   2.715   5.957  0.2726 -0.2600 -1.8248
 9906TIP3   OH251132   0.309   5.590   1.308  0.3103  0.2908 -0.2393
 9906TIP3    H151133   0.321   5.548   1.223 -1.6668  0.0557 -0.4447
 9906TIP3    H251134   0.215   5.600   1.317  0.5847  2.6043  0.8426
 9907TIP3   OH251135   2.767   1.052   0.678  0.1130  0.4416  0.4636
 9907TIP3    H151136   2.715   0.979   0.712  0.4368  0.8686  1.9883
 9907TIP3    H251137   2.727   1.130   0.716 -0.8654  1.2245 -1.9671
 9908TIP3   OH251138   2.935   6.545  16.657  0.0321  0.1391 -0.1185
 9908TIP3    H151139   2.973   6.491  16.588  0.4777 -0.0356  0.2583
 9908TIP3    H251140   3.008   6.567  16.714 -0.5861 -1.1570  1.2601
 9909TIP3   OH251141   3.189   5.120  13.707  0.0138 -0.6139 -0.3770
 9909TIP3    H151142   3.135   5.156  13.637 -0.3150  0.5442  0.4464
 9909TIP3    H251143   3.212   5.032  13.677  0.7737  0.2194 -2.4259
 9910TIP3   OH251144   5.832   0.391   4.401 -0.2019  0.0020  0.9470
 9910TIP3    H151145   5.862   0.466   4.452 -0.7679  1.3849 -0.6502
 9910TIP3    H251146   5.744   0.417   4.372  0.1983 -0.6280 -0.8932
 9911TIP3   OH251147   6.457   0.982  14.812 -0.5146 -0.2007 -0.7016
 9911TIP3    H151148   6.455   0.942  14.899  2.9959 -0.5898 -0.6294
 9911TIP3    H251149   6.462   1.076  14.829  1.6421 -0.3305 -0.3045
 9912TIP3   OH251150   1.551   5.823   6.879 -0.2347 -0.6188 -0.1780
 9912TIP3    H151151   1.646   5.834   6.876 -0.3590  0.7018  0.1553
 9912TIP3    H251152   1.538   5.728   6.883  1.1169 -0.7796  1.3453
 9913TIP3   OH251153   6.770   5.036  13.040 -0.0222  0.1391 -0.1593
 9913TIP3    H151154   6.766   5.131  13.027  1.2804  0.2349 -0.0048
 9913TIP3    H251155   6.686   5.014  13.079 -0.9732  0.9793 -1.6443
 9914TIP3   OH251156   4.117   3.050   0.203  0.2678 -0.1448  0.0063
 9914TIP3    H151157   4.148   2.973   0.155  2.0927  0.5085  0.0458
 9914TIP3    H251158   4.022   3.046   0.196  0.3314 -2.1321 -0.3983
 9915TIP3   OH251159   4.487   3.827  10.777 -0.0954  0.5580 -0.1588
 9915TIP3    H151160   4.537   3.763  10.726  1.4551  1.1376  0.5582
 9915TIP3    H251161   4.401   3.788  10.787  0.6214 -1.1328 -0.2806
 9916TIP3   OH251162   5.095   1.724   6.114  0.3765  0.5936  0.2988
 9916TIP3    H151163   5.100   1.803   6.167  0.6649  0.5444  0.3439
 9916TIP3    H251164   5.168   1.669   6.144  0.5323  0.5578 -0.1352
 9917TIP3   OH251165   4.511   1.698  14.581  0.3762  0.3805  0.6197
 9917TIP3    H151166   4.538   1.654  14.500 -0.1092  1.7269 -0.3168
 9917TIP3    H251167   4.439   1.645  14.615 -1.2835  1.2445 -1.3369
 9918TIP3   OH251168   3.895   6.409   4.305  0.1304 -0.1836 -0.2000
 9918TIP3    H151169   3.835   6.356   4.252 -0.7366 -0.4059  0.9815
 9918TIP3    H251170   3.876   6.499   4.279 -0.6526 -0.2583  0.0886
 9919TIP3   OH251171   1.242   1.505   0.783 -0.3323 -0.4129  0.0642
 9919TIP3    H151172   1.194   1.461   0.713 -1.7017 -0.5688  1.0539
 9919TIP3    H251173   1.222   1.454   0.862 -2.2482  2.0622  1.3168
 9920TIP3   OH251174   2.638   1.507  15.747  0.2523 -0.0443  0.1259
 9920TIP3    H151175   2.592   1.440  15.696 -1.2332  2.0674 -1.5021
 9920TIP3    H251176   2.686   1.558  15.682 -1.1452  2.3270  0.8222
 9921TIP3   OH251177   1.217   1.222  11.504  0.3314 -0.0840 -0.2290
 9921TIP3    H151178   1.205   1.131  11.475  1.2274 -0.1522 -0.4138
 9921TIP3    H251179   1.298   1.220  11.554 -0.2161  0.4113  0.7050
 9922TIP3   OH251180   6.439   0.430   1.878 -0.5230 -0.1491  0.2261
 9922TIP3    H151181   6.470   0.400   1.793 -0.9806  1.7517 -0.6470
 9922TIP3    H251182   6.516   0.472   1.918 -0.7489  0.4546  0.0300
 9923TIP3   OH251183   4.409   1.691  15.210  0.1606  0.2283  0.8463
 9923TIP3    H151184   4.343   1.624  15.229  0.2715  0.4499  2.1038
 9923TIP3    H251185   4.401   1.706  15.116 -0.0793 -1.3183  0.5855
 9924TIP3   OH251186   1.062   5.543   0.129  0.5056  0.1725  0.2549
 9924TIP3    H151187   1.030   5.633   0.141  2.7371  1.3945 -2.0008
 9924TIP3    H251188   1.138   5.537   0.187  0.6987 -0.0663 -0.0246
 9925TIP3   OH251189   5.064   2.768  17.234 -0.5314 -0.1564 -0.0350
 9925TIP3    H151190   5.105   2.751  17.319  0.5245  3.0096  0.2304
 9925TIP3    H251191   4.997   2.833  17.252 -1.3167 -0.5402 -1.4448
 9926TIP3   OH251192   0.863   5.823  15.322  0.4648  0.0827 -0.1570
 9926TIP3    H151193   0.863   5.793  15.412 -0.1698  2.2888  0.6585
 9926TIP3    H251194   0.954   5.842  15.302  0.3467  2.4375  1.1436
 9927TIP3   OH251195   5.994   1.175   1.521  0.0045  0.6151  0.1497
 9927TIP3    H151196   6.001   1.174   1.617 -1.1244  2.6131  0.3128
 9927TIP3    H251197   6.023   1.263   1.497 -3.4065  1.5815 -0.9346
 9928TIP3   OH251198   1.710   3.869   0.537 -0.4192  0.0106 -0.3546
 9928TIP3    H151199   1.766   3.799   0.570 -1.5023 -1.2351 -1.0989
 9928TIP3    H251200   1.763   3.914   0.472  0.7747  0.7984  1.0783
 9929TIP3   OH251201   0.613   5.932  16.665 -0.1969 -0.2362  0.5813
 9929TIP3    H151202   0.615   6.025  16.643 -0.6930 -0.7655 -1.9830
 9929TIP3    H251203   0.585   5.929  16.756  0.7444  2.1426  1.0074
 9930TIP3   OH251204   5.772   6.382   2.311 -0.3095  0.3612  0.2109
 9930TIP3    H151205   5.834   6.320   2.349 -0.4153  0.2862  0.2646
 9930TIP3    H251206   5.757   6.350   2.222 -1.0189 -0.1928  0.5117
 9931TIP3   OH251207   4.544   2.631  15.475 -0.3517  0.1093 -0.7137
 9931TIP3    H151208   4.526   2.590  15.560  0.5648  1.3537  0.1130
 9931TIP3    H251209   4.489   2.583  15.414 -2.2481  0.1812  0.8302
 9932TIP3   OH251210   0.620   5.366   6.250 -0.2491  0.1594  0.1869
 9932TIP3    H151211   0.660   5.387   6.334 -0.7433 -1.0001  0.7292
 9932TIP3    H251212   0.605   5.451   6.209 -0.6879  0.7831  1.5834
 9933TIP3   OH251213   5.697   5.355   0.408  0.6445 -1.1025  0.3145
 9933TIP3    H151214   5.685   5.434   0.461 -0.0809 -0.9316 -0.0866
 9933TIP3    H251215   5.779   5.318   0.439  2.1967  1.0190 -1.0153
 9934TIP3   OH251216   5.155   3.963   5.038 -0.3106  0.3839  0.2659
 9934TIP3    H151217   5.164   4.002   5.125 -1.1953  1.1753  0.0127
 9934TIP3    H251218   5.077   3.908   5.044 -0.2031  0.2050  0.0485
 9935TIP3   OH251219   4.917   4.102   1.705 -0.0811 -0.0276  0.0521
 9935TIP3    H151220   4.959   4.186   1.726  0.2552  0.2587 -1.5785
 9935TIP3    H251221   4.830   4.109   1.742 -0.3146  1.3715 -0.6774
 9936TIP3   OH251222   3.269   5.932  14.424  0.6136  0.0694  0.5432
 9936TIP3    H151223   3.352   5.886  14.415 -0.4884 -2.2423  1.5063
 9936TIP3    H251224   3.251   5.934  14.518  0.4638  2.3147  0.5364
 9937TIP3   OH251225   2.477   0.579  15.172  0.0180  0.6679 -0.7912
 9937TIP3    H151226   2.497   0.529  15.093  0.1888  0.6600 -0.7452
 9937TIP3    H251227   2.456   0.513  15.237  0.4335  0.6431 -0.6779
 9938TIP3   OH251228   3.792   4.718  15.924  0.1876 -0.1213 -0.3862
 9938TIP3    H151229   3.869   4.700  15.870 -0.2193 -1.0146 -0.6951
 9938TIP3    H251230   3.796   4.812  15.941  0.3021  0.2188 -2.0444
 9939TIP3   OH251231   3.955   4.537  16.471 -0.2882  0.2392 -0.0642
 9939TIP3    H151232   3.968   4.445  16.449  1.9939  0.4029  0.4023
 9939TIP3    H251233   4.040   4.567  16.503 -1.2637  2.2356  0.8421
 9940TIP3   OH251234   2.838   3.574   2.112  0.4644 -0.5635 -0.1250
 9940TIP3    H151235   2.748   3.555   2.137 -0.6886  2.8875 -1.1061
 9940TIP3    H251236   2.862   3.504   2.052 -1.3341 -1.8343  0.5616
 9941TIP3   OH251237   0.467   1.226  16.617  0.6526 -0.0471 -0.1294
 9941TIP3    H151238   0.505   1.252  16.533 -0.0310 -0.6065 -0.6299
 9941TIP3    H251239   0.504   1.140  16.635 -2.3886 -1.9837 -2.0706
 9942TIP3   OH251240   3.918   5.150   2.482  0.2508  0.8880  0.0128
 9942TIP3    H151241   3.953   5.175   2.397  1.4257  1.9311  0.7670
 9942TIP3    H251242   3.918   5.231   2.533  0.6775  0.0714  1.3809
 9943TIP3   OH251243   1.237   2.361  11.543 -0.6090  0.6619 -0.0347
 9943TIP3    H151244   1.323   2.381  11.580 -1.1065  1.1824  0.8610
 9943TIP3    H251245   1.244   2.270  11.514  0.2646  0.7250 -0.0429
 9944TIP3   OH251246   4.138   5.297  13.605 -0.2349  0.9667  0.2396
 9944TIP3    H151247   4.169   5.387  13.602  0.9245  0.5670 -1.1327
 9944TIP3    H251248   4.209   5.245  13.566  0.1116 -0.8635  3.0118
 9945TIP3   OH251249   2.046   2.281   0.431  0.5018 -0.9125  0.1382
 9945TIP3    H151250   2.120   2.279   0.371 -0.6817  0.5903 -1.5065
 9945TIP3    H251251   1.980   2.334   0.385 -0.9676 -0.8099  2.2326
 9946TIP3   OH251252   4.323   2.732   5.307 -0.6580 -0.5534 -0.0935
 9946TIP3    H151253   4.390   2.790   5.343 -1.3903 -0.0541  0.5029
 9946TIP3    H251254   4.312   2.760   5.216 -0.0057 -0.6895 -0.2132
 9947TIP3   OH251255   4.640   4.602  14.657 -0.4436 -0.5181  0.3694
 9947TIP3    H151256   4.665   4.543  14.728  2.5312  0.3395  0.1741
 9947TIP3    H251257   4.592   4.546  14.595  0.2642 -2.1703  1.2604
 9948TIP3   OH251258   4.019   0.287   2.916  0.0834 -0.4117  0.1094
 9948TIP3    H151259   4.114   0.292   2.917  0.0589  0.0728  1.3555
 9948TIP3    H251260   3.993   0.281   3.008 -1.1531  1.1978 -0.0742
 9949TIP3   OH251261   2.863   6.599  16.248  0.5337  0.3256 -0.5827
 9949TIP3    H151262   2.841   6.668  16.311  0.2723 -0.6128  0.3915
 9949TIP3    H251263   2.957   6.586  16.259  0.8652  1.5066 -1.8116
 9950TIP3   OH251264   6.711   0.044  16.354 -0.0514  0.6395  0.7689
 9950TIP3    H151265   6.705   0.122  16.298 -2.2143  0.3579  0.5409
 9950TIP3    H251266   6.777  -0.011  16.312 -0.4768  1.1469 -0.6073
 9951TIP3   OH251267   3.359   6.395  13.864  0.2440  0.5045  0.3163
 9951TIP3    H151268   3.334   6.478  13.905  1.2726  1.6428 -1.2297
 9951TIP3    H251269   3.311   6.394  13.781 -0.2404 -0.7721  0.5918
 9952TIP3   OH251270   4.695   6.086   4.086 -0.6742 -0.1034 -0.2575
 9952TIP3    H151271   4.640   6.009   4.104 -0.3890 -0.1288  0.5432
 9952TIP3    H251272   4.767   6.052   4.033 -0.3699 -0.4592  0.3775
 9953TIP3   OH251273   5.615   1.554  11.588 -0.5725  0.0997  0.2374
 9953TIP3    H151274   5.520   1.540  11.594 -0.8253  1.7364  0.7927
 9953TIP3    H251275   5.652   1.496  11.654 -1.0798 -1.3601 -0.7285
 9954TIP3   OH251276   5.886   2.463   0.470  0.1836 -0.0597 -0.1751
 9954TIP3    H151277   5.979   2.482   0.476  0.1736 -0.1497  0.2998
 9954TIP3    H251278   5.861   2.433   0.558 -0.3269  0.1220 -0.2505
 9955TIP3   OH251279   6.000   3.030  13.001  0.4802  0.1023  0.1564
 9955TIP3    H151280   5.907   3.049  12.984 -0.3325 -1.9979  1.7793
 9955TIP3    H251281   6.010   2.938  12.974  2.4400  0.6182 -1.0935
 9956TIP3   OH251282   0.224   3.886  16.450 -0.3651 -0.1836 -0.3490
 9956TIP3    H151283   0.300   3.929  16.490  1.4954 -2.6114 -1.0082
 9956TIP3    H251284   0.239   3.895  16.356 -1.1106 -0.3522 -0.4871
 9957TIP3   OH251285   1.653   6.116   0.232  0.2851  0.4185  0.2363
 9957TIP3    H151286   1.589   6.107   0.303  0.3562  0.0492  0.2551
 9957TIP3    H251287   1.687   6.027   0.219  0.8938  0.6372  0.3144
 9958TIP3   OH251288   0.728   5.421  11.775  0.3946 -0.4650 -0.1321
 9958TIP3    H151289   0.791   5.410  11.704 -0.0154 -0.6935 -0.4662
 9958TIP3    H251290   0.691   5.508  11.762 -1.1722 -1.2709 -1.4440
 9959TIP3   OH251291   0.974   2.078  16.448 -0.2593 -0.4357  0.1379
 9959TIP3    H151292   0.924   2.099  16.526 -0.2059  1.0444 -0.1956
 9959TIP3    H251293   0.963   1.984  16.437  1.1345 -1.0156  2.8735
 9960TIP3   OH251294   1.954   6.322  11.934 -0.2249  0.1190  0.2188
 9960TIP3    H151295   1.952   6.258  12.005  0.9276  0.9476  1.0323
 9960TIP3    H251296   1.879   6.379  11.950  0.7373  1.0788  1.5669
 9961TIP3   OH251297   2.830   4.871   4.393  0.0743  0.3103 -0.4898
 9961TIP3    H151298   2.807   4.861   4.300  1.9203 -0.3440 -0.9145
 9961TIP3    H251299   2.865   4.959   4.399  4.0712 -1.0232 -1.4532
 9962TIP3   OH251300   3.244   0.482  11.987 -0.8014 -0.6182  0.4421
 9962TIP3    H151301   3.326   0.452  12.026 -0.5730 -0.0736  0.3783
 9962TIP3    H251302   3.270   0.540  11.916 -1.2307 -1.1746 -0.1802
 9963TIP3   OH251303   0.432   6.758  15.478 -0.0431  0.2418  0.1488
 9963TIP3    H151304   0.446   6.839  15.526 -1.7308  1.9516 -2.0410
 9963TIP3    H251305   0.506   6.754  15.416  0.5416 -0.4281  0.8651
 9964TIP3   OH251306   1.539   1.718  13.918  0.4089 -0.1468  0.5113
 9964TIP3    H151307   1.534   1.646  13.980  0.9734  1.2144  2.2169
 9964TIP3    H251308   1.495   1.791  13.961 -0.2536  0.5369 -1.2074
 9965TIP3   OH251309   1.412   0.101  15.117  0.8406  0.3302 -0.0092
 9965TIP3    H151310   1.424   0.058  15.032  1.2801 -1.6072  0.9850
 9965TIP3    H251311   1.319   0.093  15.136  1.0495 -0.9674  0.5413
 9966TIP3   OH251312   0.954   4.347   0.928  0.3414 -0.0055  0.0321
 9966TIP3    H151313   0.893   4.377   0.995 -0.6103  0.7594 -1.1482
 9966TIP3    H251314   1.039   4.343   0.973  0.0276  2.0320  0.8978
 9967TIP3   OH251315   6.496   2.488  12.237 -0.3154  0.4800 -0.4673
 9967TIP3    H151316   6.497   2.411  12.294  1.8089  0.8757  0.1531
 9967TIP3    H251317   6.574   2.479  12.183 -0.9746  1.3452 -1.6102
 9968TIP3   OH251318   2.931   6.657   5.447 -0.0122  0.5128  0.6256
 9968TIP3    H151319   3.005   6.718   5.456  0.7962 -0.5007  1.0122
 9968TIP3    H251320   2.960   6.578   5.493 -0.6733 -0.5010 -0.6668
 9969TIP3   OH251321   6.500   4.480   0.194  0.2012  0.2467 -0.0274
 9969TIP3    H151322   6.497   4.572   0.223  1.3032  0.8426 -1.6332
 9969TIP3    H251323   6.511   4.430   0.274  0.3031  1.5814  0.8316
 9970TIP3   OH251324   1.386   5.883   1.015 -0.1250 -0.2822  0.0339
 9970TIP3    H151325   1.372   5.917   1.104 -0.1798  1.8673 -0.7418
 9970TIP3    H251326   1.392   5.961   0.960  1.3766 -1.5053 -1.6612
 9971TIP3   OH251327   4.190   0.275   5.312 -0.1238 -0.1376  0.5672
 9971TIP3    H151328   4.204   0.321   5.229 -0.7465 -2.0810 -0.6715
 9971TIP3    H251329   4.188   0.345   5.378 -2.0640  1.7220 -1.3115
 9972TIP3   OH251330   3.221   5.693   6.151 -0.0963 -0.2577 -0.1961
 9972TIP3    H151331   3.313   5.682   6.126 -0.2441  0.9384 -1.3793
 9972TIP3    H251332   3.191   5.767   6.099 -1.4878 -0.0323  0.8772
 9973TIP3   OH251333   6.363   1.964   1.763 -0.3228  0.1315 -0.8679
 9973TIP3    H151334   6.290   2.010   1.721 -1.5598 -0.9155  0.0265
 9973TIP3    H251335   6.365   1.879   1.720 -0.3214 -0.2246 -0.1766
 9974TIP3   OH251336   5.650   6.473   4.415 -0.4569  0.0045  0.1442
 9974TIP3    H151337   5.725   6.439   4.464 -0.5840  0.7836  0.9074
 9974TIP3    H251338   5.667   6.567   4.406 -1.4803  0.2577  0.6356
 9975TIP3   OH251339   4.664   3.142  11.883 -1.1678 -0.4714  0.1851
 9975TIP3    H151340   4.670   3.046  11.886 -0.7165 -0.4296  0.7836
 9975TIP3    H251341   4.716   3.166  11.806 -0.5572 -0.6609  0.5270
 9976TIP3   OH251342   6.242   5.233  13.865 -0.8919  0.4674 -0.5039
 9976TIP3    H151343   6.259   5.240  13.959 -1.2779 -0.2424 -0.3747
 9976TIP3    H251344   6.289   5.307  13.827 -2.5409  2.1083  0.4685
 9977TIP3   OH251345   3.006   1.026   1.051  0.1520  0.0724  0.0859
 9977TIP3    H151346   2.944   0.994   1.116 -0.2494  0.6279 -0.0177
 9977TIP3    H251347   2.986   1.119   1.042  2.2429  0.7585  1.4670
 9978TIP3   OH251348   1.146   4.053  16.142  0.6628  0.1079 -0.6383
 9978TIP3    H151349   1.133   3.975  16.197 -0.7875  1.5536  1.2032
 9978TIP3    H251350   1.240   4.071  16.148  0.7389 -0.5306  0.3081
 9979TIP3   OH251351   0.640   3.824  14.750  0.0784  0.6561  0.2649
 9979TIP3    H151352   0.557   3.827  14.703  0.4850 -1.6717 -0.7284
 9979TIP3    H251353   0.702   3.786  14.687  1.2941 -0.0222  1.8046
 9980TIP3   OH251354   0.483   6.279  12.717  0.3020  0.0175  0.6844
 9980TIP3    H151355   0.472   6.278  12.812  1.7306  1.3361  0.9113
 9980TIP3    H251356   0.406   6.326  12.685 -1.5019 -2.5882  0.8895
 9981TIP3   OH251357   3.402   5.866   2.440  0.0189 -0.2707 -0.2589
 9981TIP3    H151358   3.413   5.953   2.403  1.3987 -0.2845  0.0819
 9981TIP3    H251359   3.372   5.812   2.367  1.0061  0.0799 -0.9273
 9982TIP3   OH251360   1.874   4.637   4.529  0.0182  0.1214  0.1962
 9982TIP3    H151361   1.910   4.700   4.467 -0.4704  0.6056  0.3948
 9982TIP3    H251362   1.788   4.615   4.492  0.2967 -0.6451 -0.0162
 9983TIP3   OH251363   2.104   3.330  15.293  0.4242 -0.0781 -0.5504
 9983TIP3    H151364   2.120   3.237  15.282 -0.6483 -0.3581  0.0675
 9983TIP3    H251365   2.099   3.343  15.388 -0.1310  0.4708 -0.6452
 9984TIP3   OH251366   2.034   6.351  15.427 -0.1196  0.1679 -0.0418
 9984TIP3    H151367   2.089   6.379  15.500 -0.5303 -2.1776  1.2943
 9984TIP3    H251368   1.956   6.407  15.433  1.7429  3.2047 -1.6730
 9985TIP3   OH251369   2.844   6.652   4.307  0.5630 -0.0008 -0.7500
 9985TIP3    H151370   2.898   6.720   4.267 -0.4654 -0.2526 -2.6461
 9985TIP3    H251371   2.875   6.570   4.268  1.4408 -0.6275  1.1287
 9986TIP3   OH251372   1.531   3.911   2.937 -0.2643  0.2612  0.0499
 9986TIP3    H151373   1.589   3.976   2.898  0.8215  0.5535  2.0163
 9986TIP3    H251374   1.584   3.870   3.005 -1.7725 -0.8349  0.6131
 9987TIP3   OH251375   0.915   4.642   0.451 -0.2740 -0.3489 -0.3124
 9987TIP3    H151376   0.935   4.571   0.512 -1.1664 -1.7520 -1.5768
 9987TIP3    H251377   1.001   4.680   0.430  0.0470  0.1532  1.7499
 9988TIP3   OH251378   1.943   4.528  12.508  0.3718  0.2342  0.4792
 9988TIP3    H151379   2.016   4.491  12.459  0.1683 -0.5058  0.7166
 9988TIP3    H251380   1.878   4.458  12.510  0.0060  0.5783  1.0117
 9989TIP3   OH251381   4.843   2.414   3.872  0.3027 -0.3878 -0.0909
 9989TIP3    H151382   4.893   2.496   3.875 -0.1570 -0.1172  0.4992
 9989TIP3    H251383   4.758   2.437   3.909  0.0213 -1.0398 -0.3119
 9990TIP3   OH251384   5.406   6.729  11.701  0.3468  0.1894 -0.2051
 9990TIP3    H151385   5.388   6.672  11.626 -0.4520 -0.3244  0.3605
 9990TIP3    H251386   5.489   6.772  11.679  0.8073 -0.9443 -0.7905
 9991TIP3   OH251387   6.126   2.522  16.419 -0.4429  0.5651  0.7924
 9991TIP3    H151388   6.138   2.606  16.463 -2.4076  0.7845  0.9895
 9991TIP3    H251389   6.193   2.521  16.350 -0.6505  2.4783  0.5130
 9992TIP3   OH251390   0.490   5.682   1.765 -0.0127  0.2283 -0.2844
 9992TIP3    H151391   0.506   5.644   1.679  0.1617 -0.7296  0.1638
 9992TIP3    H251392   0.560   5.647   1.820 -1.9215 -1.7715  1.0267
 9993TIP3   OH251393   4.778   1.520  12.669  0.2689 -0.6369  0.5932
 9993TIP3    H151394   4.873   1.508  12.679  0.2820 -0.3067  0.8810
 9993TIP3    H251395   4.741   1.434  12.690  0.4036 -0.3763  1.9852
 9994TIP3   OH251396   2.012   5.956  11.836 -0.2897 -0.4222 -0.2118
 9994TIP3    H151397   1.987   6.034  11.787  0.1132 -0.2799 -0.1967
 9994TIP3    H251398   2.107   5.952  11.828  0.1533  1.1891  2.8462
 9995TIP3   OH251399   3.354   6.544   6.798 -0.0549  0.3000  0.3868
 9995TIP3    H151400   3.380   6.458   6.830 -0.8697 -0.3084 -0.5235
 9995TIP3    H251401   3.353   6.535   6.703 -3.0414  0.3955  0.3265
 9996TIP3   OH251402   0.659   3.930  11.667 -0.0403  0.0843 -0.4901
 9996TIP3    H151403   0.677   3.955  11.577 -0.6843  0.0501 -0.6338
 9996TIP3    H251404   0.696   4.001  11.720 -2.6015  1.8606 -0.9261
 9997TIP3   OH251405   2.132   0.987   6.420 -0.2287 -0.0434 -0.6927
 9997TIP3    H151406   2.198   1.015   6.356  0.5552 -1.1464 -0.4118
 9997TIP3    H251407   2.151   0.894   6.434 -0.2380  0.2145  1.3148
 9998TIP3   OH251408   4.326   4.946   3.425  0.4175 -0.0432 -0.0997
 9998TIP3    H151409   4.345   5.022   3.370  0.1654 -1.1408 -1.7713
 9998TIP3    H251410   4.295   4.983   3.507  0.4232  1.6696 -0.8325
 9999TIP3   OH251411   5.757   4.722  12.022  0.0273  0.2989  0.3491
 9999TIP3    H151412   5.780   4.656  11.957 -0.2670  1.6175 -1.1566
 9999TIP3    H251413   5.662   4.714  12.031  0.0676  0.1201  0.6268
10000TIP3   OH251414   3.293   1.349  12.119  0.2275  0.1516  0.3431
10000TIP3    H151415   3.202   1.373  12.132  0.4665  2.8077 -1.9855
10000TIP3    H251416   3.302   1.338  12.024  2.1291 -1.0927  0.5974
10001TIP3   OH251417   6.365   0.802  12.088  0.2347  0.1344  0.1250
10001TIP3    H151418   6.445   0.813  12.038  0.5582  0.4933  0.7105
10001TIP3    H251419   6.302   0.861  12.046  0.2102 -0.2918 -0.4531
10002TIP3   OH251420   3.388   0.695  13.857 -0.3795  0.3496  0.0769
10002TIP3    H151421   3.457   0.734  13.805  2.2697 -1.0724  2.2377
10002TIP3    H251422   3.340   0.769  13.894 -1.5187  1.3732 -3.1253
10003TIP3   OH251423   0.427   2.104  11.116  0.3429 -0.2389  0.0736
10003TIP3    H151424   0.489   2.177  11.116 -0.2421  0.2706  1.3052
10003TIP3    H251425   0.418   2.079  11.208 -1.3252 -0.2597 -0.0773
10004TIP3   OH251426   1.890   6.347  16.333 -0.0451  0.0334  0.2018
10004TIP3    H151427   1.837   6.423  16.357 -1.5090 -1.0436  0.5096
10004TIP3    H251428   1.837   6.300  16.268  1.5562  0.1077 -1.2413
10005TIP3   OH251429   6.395   3.921   2.567 -0.0879 -0.2142 -0.1147
10005TIP3    H151430   6.455   3.905   2.494 -0.6435 -0.9920 -0.4205
10005TIP3    H251431   6.311   3.885   2.537 -1.1443  2.1841 -0.3385
10006TIP3   OH251432   1.825   6.495  13.958 -0.0973  0.5975 -0.0491
10006TIP3    H151433   1.837   6.458  14.046 -0.9502 -0.2133 -0.2527
10006TIP3    H251434   1.826   6.589  13.972  2.4627  0.5549  0.4370
10007TIP3   OH251435   0.593   4.180   1.394  0.8393  0.1624  0.2788
10007TIP3    H151436   0.510   4.133   1.403  0.9740 -0.3513 -0.9948
10007TIP3    H251437   0.597   4.237   1.471 -0.1771 -0.6029  0.9211
10008TIP3   OH251438   0.787   1.471   2.682 -0.1867  0.4441 -0.2460
10008TIP3    H151439   0.708   1.495   2.634 -0.8615  1.1925  1.1994
10008TIP3    H251440   0.846   1.436   2.614 -1.0968  1.4477 -1.6174
10009TIP3   OH251441   4.000   4.129  16.264  0.2029 -0.1693 -0.5174
10009TIP3    H151442   3.976   4.181  16.340 -1.3153 -1.4999 -0.0321
10009TIP3    H251443   4.039   4.049  16.301 -0.1632 -0.6416 -1.1297
10010TIP3   OH251444   3.162   2.419  11.088  0.1537  0.8416 -0.4713
10010TIP3    H151445   3.095   2.367  11.132  0.6442  1.3774  0.9494
10010TIP3    H251446   3.115   2.495  11.053 -0.0919  0.8918 -0.0375
10011TIP3   OH251447   0.663   2.277  13.369 -0.3328 -1.3231 -0.1690
10011TIP3    H151448   0.628   2.236  13.290 -1.6210  1.0194 -0.9098
10011TIP3    H251449   0.588   2.322  13.409  0.8871  0.0023  0.7430
10012TIP3   OH251450   5.885   6.180  11.742  0.2514 -0.8726 -0.1787
10012TIP3    H151451   5.861   6.153  11.831 -0.1994 -0.8120 -0.2809
10012TIP3    H251452   5.960   6.238  11.753  0.2880 -0.9830  0.1500
10013TIP3   OH251453   2.599   4.358  17.224  0.3303 -0.4592 -0.3822
10013TIP3    H151454   2.594   4.307  17.143  2.0007  0.4408 -1.0865
10013TIP3    H251455   2.584   4.293  17.293  1.8180 -1.8334 -1.2769
10014TIP3   OH251456   0.200   5.561  11.874 -0.1096  0.3326 -0.1787
10014TIP3    H151457   0.140   5.610  11.818  0.5637  0.6662 -0.6234
10014TIP3    H251458   0.218   5.480  11.826  0.5763  0.6803 -0.5295
10015TIP3   OH251459   4.428   2.308   3.848  0.1906  0.4178  0.4473
10015TIP3    H151460   4.364   2.307   3.919  1.0406  1.3657  1.2696
10015TIP3    H251461   4.493   2.373   3.876  0.4069  1.0146 -1.3345
10016TIP3   OH251462   4.418   2.446  14.683 -0.3845  0.5649 -0.2478
10016TIP3    H151463   4.513   2.451  14.677 -0.4332  0.0857 -1.8499
10016TIP3    H251464   4.394   2.521  14.738  0.8392  1.3524 -0.7328
10017TIP3   OH251465   3.077   4.929   1.091  0.0379 -0.4114  0.6209
10017TIP3    H151466   3.154   4.978   1.119  0.9366 -0.3102 -1.7272
10017TIP3    H251467   3.080   4.847   1.140  1.4636 -0.2713  0.7966
10018TIP3   OH251468   5.214   2.677  11.560 -0.3911  0.0288  0.8076
10018TIP3    H151469   5.148   2.624  11.604 -0.6593  0.8981  1.4851
10018TIP3    H251470   5.261   2.616  11.504 -1.6146 -0.6636  0.4933
10019TIP3   OH251471   2.944   5.061   0.896 -0.2106  0.2645 -0.4469
10019TIP3    H151472   2.976   5.012   0.972 -1.0657 -2.5635 -1.7526
10019TIP3    H251473   3.023   5.082   0.846  0.2681  1.2961  0.6904
10020TIP3   OH251474   4.700   4.374   0.881  0.7183  0.7146 -0.0070
10020TIP3    H151475   4.667   4.325   0.805 -2.2482 -1.3598  2.3555
10020TIP3    H251476   4.755   4.310   0.927 -0.6757  0.5632  1.5187
10021TIP3   OH251477   4.019   3.492   5.149  0.0504 -0.2731  0.5367
10021TIP3    H151478   4.083   3.450   5.205 -0.3543  0.7354  1.8048
10021TIP3    H251479   4.066   3.566   5.109 -0.3289  0.5773  1.6092
10022TIP3   OH251480   0.213   1.425  17.020  0.4021  0.5219  0.3424
10022TIP3    H151481   0.233   1.362  17.089  0.2387 -0.7073 -0.6997
10022TIP3    H251482   0.249   1.385  16.940 -1.0341  1.0240 -0.5925
10023TIP3   OH251483   6.301   6.561   3.249  0.0087 -0.2510 -0.2935
10023TIP3    H151484   6.326   6.638   3.300  0.7216  0.0349 -1.0523
10023TIP3    H251485   6.210   6.545   3.274  0.5218 -0.5525  1.6046
10024TIP3   OH251486   3.713   1.254  12.400  0.2228  0.3774  0.2967
10024TIP3    H151487   3.636   1.311  12.406  1.0638  1.7856 -1.2398
10024TIP3    H251488   3.722   1.236  12.306 -0.2819 -2.7910  0.7351
10025TIP3   OH251489   5.431   0.985   3.483 -0.3110 -0.5602  0.0825
10025TIP3    H151490   5.379   0.999   3.563 -0.3855  1.6826 -0.2809
10025TIP3    H251491   5.387   1.038   3.417  1.8975  0.7115 -0.4660
10026TIP3   OH251492   1.442   1.175   1.459 -0.1065  0.5477 -0.3017
10026TIP3    H151493   1.509   1.235   1.428  0.6559 -0.8481 -1.5145
10026TIP3    H251494   1.447   1.180   1.554  1.7421  0.4735 -0.3716
10027TIP3   OH251495   3.508   5.810  14.359  0.0376 -0.7220 -0.4632
10027TIP3    H151496   3.597   5.828  14.328 -0.4572 -1.7305 -2.5960
10027TIP3    H251497   3.518   5.734  14.416  0.5894 -0.5617 -0.3369
10028TIP3   OH251498   0.675   3.470   3.597 -0.5931  0.1200  0.2322
10028TIP3    H151499   0.744   3.533   3.618  0.7054 -1.4321  0.8798
10028TIP3    H251500   0.717   3.408   3.536 -0.0575 -2.9891  3.3863
10029TIP3   OH251501   5.381   1.998  16.134  0.0178 -0.0641 -0.2509
10029TIP3    H151502   5.369   2.088  16.161 -0.9568 -0.3032  0.1411
10029TIP3    H251503   5.318   1.986  16.062 -0.7350 -0.7684  0.5054
10030TIP3   OH251504   6.074   3.010   2.611  0.6540  0.4487  0.2061
10030TIP3    H151505   6.014   2.956   2.559  0.3982  0.2697  0.6793
10030TIP3    H251506   6.160   2.973   2.594  0.6701  0.8922 -0.7071
10031TIP3   OH251507   0.557   4.078  15.467 -0.0387  0.5418  0.5338
10031TIP3    H151508   0.518   4.146  15.412  1.2435  1.3119  0.5168
10031TIP3    H251509   0.544   3.997  15.419  0.2186  1.0779 -0.4588
10032TIP3   OH251510   1.938   2.103   5.582 -0.4557 -0.3717 -0.0506
10032TIP3    H151511   1.911   2.011   5.578  1.1457 -0.8401 -0.9710
10032TIP3    H251512   1.908   2.140   5.499 -2.9527  0.5507  1.1567
10033TIP3   OH251513   1.987   2.471  12.398  0.1376 -0.5695 -0.2337
10033TIP3    H151514   2.016   2.555  12.363 -1.0423  1.4761  3.1699
10033TIP3    H251515   2.059   2.411  12.380  2.3413  1.8999 -0.3048
10034TIP3   OH251516   5.497   3.605  11.453 -0.3825  0.4992  0.0571
10034TIP3    H151517   5.578   3.631  11.498  0.1490  1.1868 -1.2258
10034TIP3    H251518   5.490   3.511  11.469  1.3952  0.1589 -0.8411
10035TIP3   OH251519   6.377   2.220   1.065  0.4643 -0.3228 -0.2132
10035TIP3    H151520   6.353   2.250   1.152 -3.1197 -2.0244 -0.4134
10035TIP3    H251521   6.349   2.291   1.006  2.3379  0.5683 -0.0965
10036TIP3   OH251522   6.229   1.546  12.194  0.2587  0.2196 -0.0902
10036TIP3    H151523   6.269   1.556  12.108  0.6112 -1.0184 -0.0879
10036TIP3    H251524   6.274   1.472  12.233  0.0590  0.7325  1.1489
10037TIP3   OH251525   3.842   3.301   5.316 -0.2615 -0.3826 -0.1144
10037TIP3    H151526   3.831   3.339   5.228  1.0793  0.1641 -0.0728
10037TIP3    H251527   3.902   3.228   5.302 -0.8420 -0.9252  0.2061
10038TIP3   OH251528   0.573   3.250  13.517  0.2786  0.1445  0.3520
10038TIP3    H151529   0.624   3.291  13.447  2.9433 -0.9006  1.5693
10038TIP3    H251530   0.494   3.304  13.523  1.2088  1.8940 -1.5972
10039TIP3   OH251531   6.481   3.448  16.380  0.3970  0.1786  0.2573
10039TIP3    H151532   6.550   3.384  16.396  0.5588  0.5920  1.2909
10039TIP3    H251533   6.404   3.395  16.357  0.5121 -0.3861  1.1414
10040TIP3   OH251534   4.383   3.266   1.202 -0.2497 -0.1530 -0.3488
10040TIP3    H151535   4.336   3.303   1.277 -1.0920 -1.6849 -0.0718
10040TIP3    H251536   4.475   3.274   1.225 -0.4204  1.1691 -0.0391
10041TIP3   OH251537   5.200   4.098  11.027  0.1651  0.1189  0.9059
10041TIP3    H151538   5.175   4.063  10.941 -0.6587  0.8643  0.8321
10041TIP3    H251539   5.230   4.187  11.008  3.3955 -0.8470  0.9201
10042TIP3   OH251540   4.207   4.997  16.915 -0.4825 -0.3800  0.4504
10042TIP3    H151541   4.246   5.027  16.833 -0.2851 -2.5826 -0.3270
10042TIP3    H251542   4.139   5.061  16.934 -0.3398  0.3373 -1.2686
10043TIP3   OH251543   1.097   4.884   1.385 -0.4938 -0.1063 -0.2014
10043TIP3    H151544   1.091   4.956   1.322 -1.5340  0.5326  0.5809
10043TIP3    H251545   1.059   4.920   1.466 -1.1783 -1.5715  0.1688
10044TIP3   OH251546   2.546   3.647   3.016  0.7366 -0.1179 -0.1312
10044TIP3    H151547   2.587   3.665   3.101  0.8747 -1.1995  0.0451
10044TIP3    H251548   2.456   3.623   3.037  0.3098  1.1456 -0.4297
10045TIP3   OH251549   5.395   2.280  13.064  0.1902 -0.1407  0.2289
10045TIP3    H151550   5.488   2.259  13.061  0.0613 -0.7207  0.1945
10045TIP3    H251551   5.385   2.354  13.005  0.3334 -1.2193 -1.1940
10046TIP3   OH251552   5.455   0.494   3.658 -0.4423 -0.1971  0.5024
10046TIP3    H151553   5.378   0.525   3.707 -0.4517  0.7104 -0.0715
10046TIP3    H251554   5.488   0.572   3.614  0.1449 -0.8120 -0.1562
10047TIP3   OH251555   3.922   4.289  14.529  0.2139 -0.1079  0.1617
10047TIP3    H151556   4.014   4.281  14.552  0.4228  2.5329  0.5163
10047TIP3    H251557   3.921   4.344  14.451 -1.0498 -0.6530 -0.2430
10048TIP3   OH251558   1.972   5.190   5.740  0.5121  0.2964  0.8481
10048TIP3    H151559   2.041   5.130   5.714  0.6710  0.4523  0.9080
10048TIP3    H251560   1.901   5.134   5.771  1.0452  0.1738  1.8590
10049TIP3   OH251561   0.894   4.017  12.329  0.5668  0.2542  0.2103
10049TIP3    H151562   0.811   3.985  12.363  0.3962 -2.7795 -2.4884
10049TIP3    H251563   0.960   3.961  12.370  1.2166  1.7877  1.3542
10050TIP3   OH251564   2.072   6.024  12.219  0.1490 -0.3614 -0.1076
10050TIP3    H151565   2.001   6.058  12.164 -0.7420 -0.4469  0.9675
10050TIP3    H251566   2.123   5.969  12.160  0.1962  0.8596 -1.2669
10051TIP3   OH251567   0.786   3.935  14.951  0.0342 -0.6925  0.5757
10051TIP3    H151568   0.733   3.883  14.891  0.7914 -0.9494  0.1119
10051TIP3    H251569   0.829   3.999  14.894  1.7213 -1.7147  0.6343
10052TIP3   OH251570   0.413   3.421  11.537  0.4721 -0.2212  0.3762
10052TIP3    H151571   0.470   3.496  11.519  1.0759 -0.9769 -1.0617
10052TIP3    H251572   0.342   3.456  11.590  0.9468  1.2816  0.0534
10053TIP3   OH251573   3.145   3.315  14.523  0.1819  0.1010  0.1356
10053TIP3    H151574   3.051   3.327  14.513  0.0999 -0.1363  0.5935
10053TIP3    H251575   3.162   3.339  14.614  0.6047  0.3789 -0.0140
10054TIP3   OH251576   3.524   0.227   1.162 -0.2201 -0.7116  0.0954
10054TIP3    H151577   3.538   0.200   1.252  1.2914 -0.4497 -0.0326
10054TIP3    H251578   3.509   0.322   1.167  0.1804 -0.6446  0.0483
10055TIP3   OH251579   4.971   1.268   3.905 -0.2299 -0.2818  0.4545
10055TIP3    H151580   5.019   1.186   3.921  0.0657 -0.1143  0.4318
10055TIP3    H251581   5.038   1.336   3.909 -0.5189 -0.0129  0.7287
10056TIP3   OH251582   0.757   5.202   1.565 -0.3812  0.8151 -0.2715
10056TIP3    H151583   0.739   5.249   1.483 -0.6551  1.1087 -0.0459
10056TIP3    H251584   0.673   5.197   1.609 -0.8538 -1.9287 -1.3051
10057TIP3   OH251585   6.389   4.975   1.328 -0.6949  0.0360  0.0211
10057TIP3    H151586   6.317   4.965   1.266 -0.6064  2.2736 -0.5525
10057TIP3    H251587   6.463   5.006   1.275  1.1253 -3.1952  0.4088
10058TIP3   OH251588   4.466   1.846  12.215  0.5078 -0.5839 -0.5851
10058TIP3    H151589   4.542   1.853  12.272  0.3588 -1.4312 -0.2636
10058TIP3    H251590   4.412   1.923  12.236  1.6503  0.4743 -1.4120
10059TIP3   OH251591   5.082   6.256  14.522  0.0067  0.1331 -0.1704
10059TIP3    H151592   5.020   6.329  14.518 -0.8878 -0.6442 -1.4860
10059TIP3    H251593   5.076   6.215  14.436  2.3016 -0.0492 -0.3168
10060TIP3   OH251594   5.345   3.189  15.752  0.0695  0.2115  0.0704
10060TIP3    H151595   5.409   3.118  15.759 -0.3413 -0.2769 -1.0592
10060TIP3    H251596   5.363   3.230  15.667 -0.5269  0.6625  0.1521
10061TIP3   OH251597   6.072   3.868   5.796 -0.2936  0.1280  0.0186
10061TIP3    H151598   6.097   3.885   5.705 -2.1918 -0.9602 -0.7721
10061TIP3    H251599   6.101   3.945   5.844  0.5626  0.8200 -1.5548
10062TIP3   OH251600   0.590   6.766  13.253  0.0298 -0.1123 -0.4395
10062TIP3    H151601   0.499   6.755  13.226  0.3813  0.4539 -1.9253
10062TIP3    H251602   0.613   6.855  13.226  0.5715  0.3279  1.3380
10063TIP3   OH251603   2.342   2.074  11.037 -0.0515 -0.1947 -0.0522
10063TIP3    H151604   2.388   2.156  11.057 -2.2832  1.0812  0.1598
10063TIP3    H251605   2.372   2.051  10.949  0.8479  0.6706  0.0115
10064TIP3   OH251606   3.779   6.212  15.784  0.2797  0.7811  0.1922
10064TIP3    H151607   3.859   6.243  15.744  0.9120 -1.2616 -0.2521
10064TIP3    H251608   3.745   6.288  15.832  0.8391  2.5538 -2.0620
10065TIP3   OH251609   1.669   0.261  15.514 -0.0301  0.3666  0.0445
10065TIP3    H151610   1.758   0.291  15.534 -0.6551  2.4699 -0.1127
10065TIP3    H251611   1.613   0.312  15.572 -1.1060 -1.6431  0.8475
10066TIP3   OH251612   6.700   3.095  14.478  0.1342 -0.1642  0.0456
10066TIP3    H151613   6.783   3.083  14.432 -0.0119 -2.4130  0.2646
10066TIP3    H251614   6.681   3.010  14.517 -2.2899  0.2640 -0.0048
10067TIP3   OH251615   5.295   4.731   3.848  0.3142  0.8445 -0.1584
10067TIP3    H151616   5.391   4.733   3.843  0.3964 -1.2322 -0.4528
10067TIP3    H251617   5.268   4.705   3.760 -0.6631  2.8969 -0.5327
10068TIP3   OH251618   1.873   1.858  16.671 -0.3438  0.7780  0.5532
10068TIP3    H151619   1.833   1.931  16.719 -0.2882  0.6473  0.7964
10068TIP3    H251620   1.808   1.836  16.604 -0.9169  0.2283  1.2712
10069TIP3   OH251621   0.184   2.017  11.031  0.3227  0.3370  0.0654
10069TIP3    H151622   0.197   2.032  10.937  0.0571  0.1136 -0.0087
10069TIP3    H251623   0.264   2.051  11.072  1.0316 -0.7827 -0.3590
10070TIP3   OH251624   1.703   0.065   6.228 -0.8095 -0.3785  0.5963
10070TIP3    H151625   1.720  -0.008   6.288 -2.2559  1.4110  3.3995
10070TIP3    H251626   1.613   0.052   6.199 -0.1894 -1.1143 -1.1861
10071TIP3   OH251627   5.331   4.661   5.899  0.1135  0.1707  0.2512
10071TIP3    H151628   5.393   4.593   5.875 -0.5338 -0.0562 -0.8778
10071TIP3    H251629   5.322   4.654   5.994 -0.6262 -1.9512  0.0739
10072TIP3   OH251630   2.551   0.145   4.929  0.5136  0.1582 -0.0072
10072TIP3    H151631   2.557   0.050   4.943 -0.9512 -0.1819 -1.4050
10072TIP3    H251632   2.475   0.156   4.872  0.9527  2.1500 -0.2730
10073TIP3   OH251633   5.682   5.754  17.171  0.2088  1.1778  0.3448
10073TIP3    H151634   5.721   5.686  17.227  0.3831  0.2663 -0.8283
10073TIP3    H251635   5.591   5.727  17.160 -0.0959  1.9285  1.0454
10074TIP3   OH251636   2.663   4.435   1.726  0.3431  0.5331 -0.1354
10074TIP3    H151637   2.697   4.458   1.813 -1.4636  1.0672  0.4751
10074TIP3    H251638   2.611   4.511   1.700 -1.0795 -0.5601 -0.6209
10075TIP3   OH251639   0.075   1.190   5.500  0.1307 -0.4137 -0.0920
10075TIP3    H151640   0.049   1.264   5.446  1.9342 -0.3883 -0.9815
10075TIP3    H251641   0.005   1.182   5.565 -1.5181  0.2762 -1.7050
10076TIP3   OH251642   5.123   0.103   2.526  0.0799  0.2186 -0.2404
10076TIP3    H151643   5.141   0.197   2.523 -0.8780  0.4644  0.8641
10076TIP3    H251644   5.048   0.095   2.585 -0.0364 -1.2188 -0.5452
10077TIP3   OH251645   4.603   1.495  13.282 -0.6290  0.7193  0.5130
10077TIP3    H151646   4.606   1.410  13.326 -0.6342  0.4155 -0.0751
10077TIP3    H251647   4.693   1.511  13.254 -0.0122  2.1516  2.9386
10078TIP3   OH251648   2.912   0.797   6.547  0.2757  0.5082  0.0323
10078TIP3    H151649   2.956   0.719   6.582 -0.1907  0.4577  0.5194
10078TIP3    H251650   2.976   0.835   6.487  1.0718  0.5611  0.8897
10079TIP3   OH251651   2.871   0.282   6.329  0.1780 -0.0156 -0.4236
10079TIP3    H151652   2.944   0.255   6.385 -0.5897 -1.2106  0.0308
10079TIP3    H251653   2.813   0.331   6.388 -0.0234 -0.2048 -0.4621
10080TIP3   OH251654   2.426   4.604  13.123 -0.4932 -0.0344  0.4956
10080TIP3    H151655   2.333   4.602  13.098  0.0770 -0.9253 -1.8532
10080TIP3    H251656   2.473   4.602  13.039  1.6791 -3.6837  1.5383
10081TIP3   OH251657   4.196   1.260  11.558  0.1185  0.4832  0.4191
10081TIP3    H151658   4.206   1.187  11.497 -1.7236  1.4388 -1.1520
10081TIP3    H251659   4.156   1.221  11.636 -1.6768 -0.1275 -0.7263
10082TIP3   OH251660   5.538   4.495  16.532 -0.2050 -0.3435  0.6311
10082TIP3    H151661   5.535   4.483  16.627  0.8945 -1.1635  0.5785
10082TIP3    H251662   5.457   4.541  16.511 -0.7172 -0.6341  1.8985
10083TIP3   OH251663   6.075   2.983   0.946  0.0887  0.2421 -0.2100
10083TIP3    H151664   6.054   3.056   0.889 -0.6723  1.7254  1.8578
10083TIP3    H251665   6.170   2.989   0.959  0.0591  0.7530 -0.2187
10084TIP3   OH251666   0.598   5.951   2.464 -0.1381  0.2239  0.3512
10084TIP3    H151667   0.519   6.006   2.472  0.1462  0.4392  1.9340
10084TIP3    H251668   0.571   5.866   2.498 -0.1520 -0.1985 -0.6993
10085TIP3   OH251669   5.626   5.636   0.241 -0.2810 -0.5075 -0.2789
10085TIP3    H151670   5.645   5.579   0.166 -0.9338 -1.7875  0.4772
10085TIP3    H251671   5.582   5.712   0.203  0.3785 -0.6152 -1.2954
10086TIP3   OH251672   0.238   6.442   2.212  0.0526  0.1835  0.0875
10086TIP3    H151673   0.187   6.383   2.268  0.3182 -0.1220  0.0131
10086TIP3    H251674   0.287   6.383   2.154  0.5828  0.4622  0.2406
10087TIP3   OH251675   1.405   0.861  14.283  0.3125 -0.1599  0.0262
10087TIP3    H151676   1.356   0.860  14.365 -2.3903  1.2400 -1.4367
10087TIP3    H251677   1.471   0.928  14.296 -1.0405  1.1172  0.6161
10088TIP3   OH251678   5.178   3.682   1.197  0.0949  0.3406  0.4142
10088TIP3    H151679   5.086   3.670   1.172  0.3663  1.8059 -1.5457
10088TIP3    H251680   5.226   3.622   1.139  0.4702  0.8736  0.1594
10089TIP3   OH251681   2.542   5.374  16.570 -0.2718  0.2584 -1.0569
10089TIP3    H151682   2.472   5.411  16.517 -0.5317  1.7639  0.2789
10089TIP3    H251683   2.558   5.439  16.639  2.0746 -0.2780 -0.9991
10090TIP3   OH251684   2.455   5.144   5.465 -0.3519  0.3061  0.0116
10090TIP3    H151685   2.480   5.171   5.377 -0.9691  0.2057 -0.1949
10090TIP3    H251686   2.530   5.167   5.519 -0.4463  1.4522 -0.3358
10091TIP3   OH251687   0.792   4.208   1.186  0.2806 -0.0877 -0.0652
10091TIP3    H151688   0.804   4.132   1.129 -1.2628  0.2754 -0.9331
10091TIP3    H251689   0.697   4.215   1.197  0.4200  1.3792  0.4650
10092TIP3   OH251690   5.973   4.689  14.133 -0.2161  0.1876 -0.0102
10092TIP3    H151691   6.022   4.697  14.216  0.4797 -1.2152 -0.2415
10092TIP3    H251692   5.882   4.705  14.157  0.0364  0.2714  0.9398
10093TIP3   OH251693   0.013   5.936  16.583  0.0250  0.1257  0.1973
10093TIP3    H151694  -0.068   5.941  16.635 -0.2591 -0.4896 -0.1759
10093TIP3    H251695  -0.006   5.988  16.505 -0.5266 -1.1326 -0.5454
10094TIP3   OH251696   0.328   0.720  13.247  0.6456  0.0661  1.0107
10094TIP3    H151697   0.402   0.659  13.244  0.7805  0.1348  2.4437
10094TIP3    H251698   0.367   0.804  13.268  0.2327  0.2489  1.0443
10095TIP3   OH251699   6.216   2.829   4.085  0.4696 -0.6940  0.2508
10095TIP3    H151700   6.235   2.767   4.156  0.0998 -1.2767 -0.1458
10095TIP3    H251701   6.254   2.789   4.007 -0.6943 -0.9617 -0.2065
10096TIP3   OH251702   6.068   1.791  12.629 -0.1461  0.0001 -0.2340
10096TIP3    H151703   6.137   1.792  12.695 -0.8824 -0.5758  0.5679
10096TIP3    H251704   6.048   1.699  12.615 -0.6702  0.1523 -0.5440
10097TIP3   OH251705   2.034   0.083   5.981  0.0578 -0.0644 -0.1097
10097TIP3    H151706   2.011   0.110   6.070  1.4676 -1.8091  0.8636
10097TIP3    H251707   1.954   0.043   5.947 -0.9414  1.9137 -0.2345
10098TIP3   OH251708   5.300   5.056   2.950 -0.2180 -0.7566 -0.0858
10098TIP3    H151709   5.311   5.135   2.897  0.3401 -0.8560 -0.1235
10098TIP3    H251710   5.228   5.009   2.909 -0.7726 -0.1066  0.1324
10099TIP3   OH251711   3.275   2.670   5.321  0.0442  0.1984  0.0195
10099TIP3    H151712   3.221   2.597   5.353  2.2531 -1.6531 -0.2025
10099TIP3    H251713   3.265   2.738   5.388 -1.7766 -0.4066  0.4326
10100TIP3   OH251714   1.190   0.778  12.495  0.6509  0.4624 -0.5129
10100TIP3    H151715   1.253   0.841  12.529  0.3459  1.1525 -1.1858
10100TIP3    H251716   1.215   0.766  12.403 -0.7211  1.4369 -1.0423
10101TIP3   OH251717   0.459   4.992   4.044  0.1259  0.3278  0.4927
10101TIP3    H151718   0.467   5.041   3.962  0.3806  0.9948  0.9119
10101TIP3    H251719   0.414   5.052   4.104 -0.4950 -0.3312  0.7009
10102TIP3   OH251720   5.975   6.297   4.725 -0.0892  0.3759  0.7726
10102TIP3    H151721   6.057   6.343   4.740  0.4664  0.6003 -2.2559
10102TIP3    H251722   5.995   6.205   4.744 -0.1268  0.7973  3.1330
10103TIP3   OH251723   1.567   4.461  12.058 -0.0361 -0.3617  0.7067
10103TIP3    H151724   1.524   4.547  12.053 -0.7161 -0.7368 -3.5798
10103TIP3    H251725   1.510   4.403  12.007  2.1076 -2.5718  0.6585
10104TIP3   OH251726   2.102   4.075  15.218  0.0291  0.3167 -0.5355
10104TIP3    H151727   2.080   4.035  15.134 -0.6292 -0.1486 -0.1489
10104TIP3    H251728   2.036   4.144  15.230  1.4140  1.8789 -1.4086
10105TIP3   OH251729   2.084   0.167  11.984  0.1917 -0.2466 -0.0064
10105TIP3    H151730   2.151   0.201  11.926  0.7281 -0.7011  0.3403
10105TIP3    H251731   2.058   0.084  11.945 -0.4558  0.1060 -0.3503
10106TIP3   OH251732   1.488   4.036   4.454 -0.5759  0.3304 -0.1939
10106TIP3    H151733   1.511   3.947   4.427 -2.2313 -1.0428  2.4748
10106TIP3    H251734   1.434   4.070   4.382 -0.0891 -0.8577 -1.1579
10107TIP3   OH251735   6.309   2.658  14.503 -0.0153 -0.1751  0.0778
10107TIP3    H151736   6.268   2.582  14.544  1.1573  0.0275  1.7012
10107TIP3    H251737   6.318   2.722  14.573  0.6961  0.7751 -0.8404
10108TIP3   OH251738   4.832   2.082  16.512  0.1522  0.3374  0.1522
10108TIP3    H151739   4.870   2.165  16.483 -0.3001  0.8744  1.0458
10108TIP3    H251740   4.814   2.095  16.605 -1.7659 -0.0341 -0.1057
10109TIP3   OH251741   3.519   3.319  14.265  0.1033 -0.1054  0.1938
10109TIP3    H151742   3.480   3.232  14.270 -1.5297  0.4759 -1.2267
10109TIP3    H251743   3.466   3.372  14.325 -0.8312  0.5094 -1.1206
10110TIP3   OH251744   0.929   2.524   0.398  0.0148 -0.0434  0.1978
10110TIP3    H151745   0.961   2.452   0.342  1.1565  0.4702  0.1575
10110TIP3    H251746   0.907   2.481   0.480 -0.7012 -0.6556 -0.2970
10111TIP3   OH251747   3.404   1.184  16.301 -0.3844  0.0372 -0.5452
10111TIP3    H151748   3.450   1.114  16.255 -0.4318 -0.2738 -0.1248
10111TIP3    H251749   3.311   1.166  16.287 -0.3892  0.3488 -0.9252
10112TIP3   OH251750   6.573   1.969   0.595  0.0420 -0.3302  0.0110
10112TIP3    H151751   6.575   2.018   0.677  3.3404 -0.5672  0.2411
10112TIP3    H251752   6.508   1.901   0.608  1.0947 -0.9101  2.8208
10113TIP3   OH251753   1.761   4.379   1.940  0.0148 -0.0714  0.2892
10113TIP3    H151754   1.819   4.345   2.009 -0.0898  1.3957  1.1499
10113TIP3    H251755   1.745   4.470   1.966  0.4364  0.7125 -1.9864
10114TIP3   OH251756   2.932   5.579  12.748 -0.4051 -0.5228 -0.1525
10114TIP3    H151757   2.945   5.521  12.673 -1.8297 -1.3912  0.2302
10114TIP3    H251758   2.925   5.519  12.823  0.4946  0.3006  0.6080
10115TIP3   OH251759   1.049   1.028   6.140 -0.2905 -0.0727 -0.1608
10115TIP3    H151760   1.134   1.002   6.175 -0.5427 -2.4258 -1.0736
10115TIP3    H251761   0.993   1.038   6.217  1.0365  2.7763  0.5456
10116TIP3   OH251762   5.795   3.684   5.596 -0.7216 -0.1550  0.3645
10116TIP3    H151763   5.767   3.674   5.505  1.6838  1.4352 -0.6350
10116TIP3    H251764   5.862   3.616   5.608  1.9796  2.1383 -0.4977
10117TIP3   OH251765   4.267   2.973   3.909  0.4770 -0.9522 -0.6804
10117TIP3    H151766   4.193   2.912   3.913 -1.1197  0.7544 -2.0070
10117TIP3    H251767   4.243   3.034   3.839  2.3930  0.6687 -0.0095
10118TIP3   OH251768   1.149   3.744   4.275  0.2526 -0.9723  0.5259
10118TIP3    H151769   1.057   3.719   4.276 -0.0776 -0.0352 -1.1687
10118TIP3    H251770   1.148   3.840   4.286  0.9800 -0.8994  0.0484
10119TIP3   OH251771   5.926   5.374   0.243 -0.5423 -0.5196  0.2195
10119TIP3    H151772   5.885   5.304   0.293 -0.7301  0.2057  1.1204
10119TIP3    H251773   5.864   5.393   0.173 -1.3452 -0.0525  1.0328
10120TIP3   OH251774   5.687   6.126  12.601  0.2241 -0.4212 -0.3261
10120TIP3    H151775   5.696   6.115  12.695  2.1991 -1.9302 -0.6159
10120TIP3    H251776   5.673   6.037  12.568 -0.4521  0.0830 -1.4755
10121TIP3   OH251777   6.653   4.375   0.782  0.1443 -0.0867 -0.7086
10121TIP3    H151778   6.671   4.292   0.827  2.3739  0.3339 -0.7110
10121TIP3    H251779   6.694   4.365   0.696 -2.6475 -0.2623 -2.1225
10122TIP3   OH251780   2.903   6.390  12.314  0.0737  0.0609 -0.2144
10122TIP3    H151781   2.809   6.403  12.327  0.3551  0.9326  1.1014
10122TIP3    H251782   2.918   6.298  12.332 -0.1837  0.4002  1.9090
10123TIP3   OH251783   0.802   5.272   5.031  0.9221 -0.1540  0.9231
10123TIP3    H151784   0.784   5.334   4.961  0.8232 -1.4936 -0.2875
10123TIP3    H251785   0.716   5.257   5.072  0.6281 -0.7469  0.1180
10124TIP3   OH251786   1.116   4.795   6.896 -0.4182  0.2967 -0.0766
10124TIP3    H151787   1.156   4.852   6.830 -0.5291  0.2736 -0.1631
10124TIP3    H251788   1.023   4.792   6.873 -0.5260  0.5908  0.2969
10125TIP3   OH251789   5.357   6.177  17.126 -0.3933  0.1969  0.1106
10125TIP3    H151790   5.384   6.093  17.089 -0.0973 -0.5590  1.9684
10125TIP3    H251791   5.411   6.242  17.081  0.5515 -0.7701 -0.1736
10126TIP3   OH251792   0.139   6.417  12.139  0.3130 -0.3026  0.2988
10126TIP3    H151793   0.055   6.433  12.095  1.1520  0.4822 -1.0855
10126TIP3    H251794   0.120   6.429  12.232 -0.8267  1.2600 -0.0880
10127TIP3   OH251795   1.376   3.862  12.279 -0.1088 -0.4618 -0.0200
10127TIP3    H151796   1.354   3.841  12.188 -0.7199  2.0508 -0.5456
10127TIP3    H251797   1.466   3.896  12.274 -0.8912  1.7566 -0.1300
10128TIP3   OH251798   1.405   4.625   0.048 -0.3289  0.4745 -0.0900
10128TIP3    H151799   1.397   4.720   0.054  0.1599  0.6001 -1.1542
10128TIP3    H251800   1.362   4.592   0.127 -0.8448  1.5598  0.1012
10129TIP3   OH251801   5.711   5.309  11.970 -0.1655 -0.1143  0.0204
10129TIP3    H151802   5.762   5.291  11.891 -0.8979 -1.0049 -0.2623
10129TIP3    H251803   5.776   5.309  12.041  0.2360 -1.2424 -0.3307
10130TIP3   OH251804   2.459   1.438   2.979 -0.6505  0.1197  0.4835
10130TIP3    H151805   2.483   1.502   3.046 -1.6288  2.3320 -1.1641
10130TIP3    H251806   2.541   1.394   2.958  0.0977  0.9550  1.5306
10131TIP3   OH251807   6.089   5.491   4.697 -0.7315  0.0300  0.3074
10131TIP3    H151808   6.079   5.508   4.790 -1.4459 -2.1247  0.6704
10131TIP3    H251809   6.075   5.397   4.687 -0.4137  0.1499 -1.9448
10132TIP3   OH251810   4.049   4.958   4.907  0.3319 -0.4501  0.1527
10132TIP3    H151811   4.003   5.040   4.921  0.9771 -0.0797  0.1644
10132TIP3    H251812   4.005   4.895   4.964 -0.8016 -0.3633 -0.6057
10133TIP3   OH251813   3.991   6.377  12.975  0.3050  0.3584 -0.4499
10133TIP3    H151814   3.907   6.366  12.930 -1.5713  0.9371  2.6051
10133TIP3    H251815   3.972   6.439  13.045  3.0990 -0.1652  0.8885
10134TIP3   OH251816   1.599   2.114   4.662 -0.1010  0.1036 -0.8406
10134TIP3    H151817   1.580   2.091   4.571  0.0488 -0.6438 -0.6878
10134TIP3    H251818   1.631   2.033   4.701  0.7335  0.6523 -0.3610
10135TIP3   OH251819   2.691   3.959  11.347 -0.3618  0.4997 -0.5546
10135TIP3    H151820   2.730   3.878  11.312  0.3678  0.0734  1.1265
10135TIP3    H251821   2.597   3.944  11.340 -0.2877 -1.3099  1.3338
10136TIP3   OH251822   1.169   5.284   6.135 -0.0454 -0.6597 -0.5365
10136TIP3    H151823   1.111   5.324   6.200 -0.9238 -2.5479 -0.0872
10136TIP3    H251824   1.250   5.267   6.182  0.5588  0.9919 -0.8813
10137TIP3   OH251825   5.708   4.661   0.673 -0.4998 -0.3151 -0.3666
10137TIP3    H151826   5.696   4.751   0.645  0.5697 -0.5890 -1.8192
10137TIP3    H251827   5.799   4.656   0.701 -0.9506 -0.6061  1.1117
10138TIP3   OH251828   2.119   1.628  13.106 -0.3661  0.3467  0.1305
10138TIP3    H151829   2.133   1.709  13.154 -0.7470  0.1159  0.6350
10138TIP3    H251830   2.027   1.606  13.120  0.0579 -0.9378  1.2462
10139TIP3   OH251831   4.307   3.039   0.429 -0.1387  0.0379  0.7325
10139TIP3    H151832   4.318   3.131   0.453  1.1467 -0.1673  1.0387
10139TIP3    H251833   4.315   3.037   0.334  3.0528 -0.0716  0.8882
10140TIP3   OH251834   0.016   5.884   0.800  0.4498  0.0887  0.2568
10140TIP3    H151835   0.084   5.818   0.812  1.1540  0.4185 -1.6500
10140TIP3    H251836   0.020   5.907   0.707 -2.2920  0.1184  0.0724
10141TIP3   OH251837   0.056   4.901  14.558  0.4412  0.2489 -0.4150
10141TIP3    H151838   0.103   4.852  14.491 -1.5727 -0.5652 -1.3046
10141TIP3    H251839   0.058   4.844  14.635 -0.2651 -0.4051 -0.8700
10142TIP3   OH251840   2.946   0.647  12.429  0.1193  0.2494  0.0411
10142TIP3    H151841   3.021   0.690  12.388  0.3056 -0.2886 -0.1902
10142TIP3    H251842   2.885   0.630  12.356  0.3126 -0.4204  0.0308
10143TIP3   OH251843   6.709   6.678   2.291  0.4753  0.2653 -0.1277
10143TIP3    H151844   6.683   6.622   2.218  0.4353 -1.0242  0.8355
10143TIP3    H251845   6.772   6.739   2.253 -0.8224  0.7477 -1.5883
10144TIP3   OH251846   6.295   2.214  16.218  0.1507 -0.2886  0.3921
10144TIP3    H151847   6.233   2.229  16.290 -1.3278  2.6793 -1.3022
10144TIP3    H251848   6.251   2.150  16.161 -1.1194  1.2159 -0.3999
10145TIP3   OH251849   1.651   5.745   2.685 -0.2072  0.2711 -0.3095
10145TIP3    H151850   1.710   5.738   2.610  1.2718 -0.3426  0.8678
10145TIP3    H251851   1.596   5.667   2.680  0.2210 -0.0198 -0.4707
10146TIP3   OH251852   5.114   4.641  11.424  0.0193  0.2017  0.0474
10146TIP3    H151853   5.169   4.585  11.369 -1.3552 -1.0000 -0.1668
10146TIP3    H251854   5.044   4.583  11.455  0.3773  1.0045  2.5474
10147TIP3   OH251855   1.452   1.210  17.146  0.7006  0.3063  0.4951
10147TIP3    H151856   1.412   1.158  17.215  1.2643  0.1668  0.7176
10147TIP3    H251857   1.500   1.278  17.192 -0.0073  1.0193  0.2067
10148TIP3   OH251858   5.841   3.293   0.311  0.6864  0.4686 -0.3794
10148TIP3    H151859   5.928   3.253   0.307  0.5232  0.1863 -1.2825
10148TIP3    H251860   5.784   3.223   0.345  0.5261  0.1386 -1.3095
10149TIP3   OH251861   4.188   0.068   1.039 -0.3953  0.0388  0.2946
10149TIP3    H151862   4.179  -0.021   1.074 -1.0008  0.3489  0.9317
10149TIP3    H251863   4.198   0.055   0.944 -0.5502 -0.7031  0.3715
10150TIP3   OH251864   0.014   1.857  13.449  0.0416 -0.0759 -0.1963
10150TIP3    H151865  -0.016   1.929  13.393  0.5833  0.9925  0.8480
10150TIP3    H251866   0.094   1.890  13.490 -1.9188  0.5435  3.6783
10151TIP3   OH251867   0.443   2.075  13.802  0.5267 -0.5400 -0.3024
10151TIP3    H151868   0.409   2.025  13.877 -1.1333  1.4248  0.3172
10151TIP3    H251869   0.529   2.105  13.831  0.3400 -0.6659  0.3959
10152TIP3   OH251870   4.407   4.964  16.300 -0.1539  0.7536 -0.2241
10152TIP3    H151871   4.366   4.877  16.304 -1.4518  1.3254 -0.6288
10152TIP3    H251872   4.419   4.980  16.206 -1.4257  1.6758 -0.2482
10153TIP3   OH251873   0.543   5.713  11.751  0.3042 -0.3189  0.0874
10153TIP3    H151874   0.563   5.804  11.773 -1.1529  0.5173 -1.7071
10153TIP3    H251875   0.483   5.719  11.677  1.4092 -2.8009 -1.1258
10154TIP3   OH251876   0.877   4.937  14.613 -0.5471 -0.2626 -0.1746
10154TIP3    H151877   0.791   4.944  14.573 -0.7190 -0.3248  0.1731
10154TIP3    H251878   0.939   4.943  14.541 -0.8441 -0.1794 -0.4205
10155TIP3   OH251879   5.674   5.037  14.281  0.5085 -0.0771  0.1349
10155TIP3    H151880   5.598   5.003  14.328  1.0943 -3.2523 -0.9390
10155TIP3    H251881   5.639   5.104  14.223 -0.9406  0.6302  1.7404
10156TIP3   OH251882   2.214   1.291  10.921  0.3089  0.1522 -0.1459
10156TIP3    H151883   2.171   1.372  10.950  1.1934 -0.1142  2.0963
10156TIP3    H251884   2.178   1.276  10.833 -2.2601  1.2704  0.5935
10157TIP3   OH251885   3.730   3.473   0.841  0.0525  0.3180 -0.3547
10157TIP3    H151886   3.649   3.421   0.847 -0.6539  1.3641 -0.4929
10157TIP3    H251887   3.704   3.550   0.791  0.8052  1.2996  0.7343
10158TIP3   OH251888   6.158   3.088  11.488  0.1053  0.0386 -0.4706
10158TIP3    H151889   6.147   3.073  11.394 -0.0814 -1.3319 -0.2503
10158TIP3    H251890   6.212   3.166  11.493  0.4328 -0.0815 -1.7327
10159TIP3   OH251891   1.337   4.649  16.403  0.0243  0.0248  0.1227
10159TIP3    H151892   1.397   4.577  16.382  1.2560  1.2292 -0.6643
10159TIP3    H251893   1.362   4.675  16.492 -1.1267 -1.1627  0.8199
10160TIP3   OH251894   1.597   1.279  11.377 -0.4192  0.3742 -0.1059
10160TIP3    H151895   1.503   1.284  11.366 -0.6470 -0.0175  1.4302
10160TIP3    H251896   1.617   1.340  11.448  0.2963 -0.4383  0.4252
10161TIP3   OH251897   3.628   5.368   4.487  0.1381 -0.0918 -0.1807
10161TIP3    H151898   3.547   5.389   4.442 -0.1244 -0.2984  0.1920
10161TIP3    H251899   3.610   5.286   4.534  0.7212 -0.4237 -0.5177
10162TIP3   OH251900   3.376   2.020  13.538  0.0643 -0.3650  0.0026
10162TIP3    H151901   3.380   2.103  13.584  0.3593  0.8136 -2.0496
10162TIP3    H251902   3.393   2.041  13.446  2.7501 -3.0030 -0.2811
10163TIP3   OH251903   5.520   5.761  15.093 -0.3051 -0.2566 -0.2622
10163TIP3    H151904   5.464   5.817  15.148 -0.1955  0.2632 -0.6685
10163TIP3    H251905   5.460   5.719  15.033 -0.4480 -0.9688  0.3640
10164TIP3   OH251906   1.382   6.008  11.416 -0.1386 -0.2807 -0.8660
10164TIP3    H151907   1.454   5.991  11.355 -0.3072 -0.2367 -1.0772
10164TIP3    H251908   1.396   5.945  11.488  0.0044 -0.3982 -0.9963
10165TIP3   OH251909   5.924   1.100   4.008  0.0574  0.1822 -0.1260
10165TIP3    H151910   5.877   1.172   3.967 -0.1015 -0.5356 -1.2533
10165TIP3    H251911   5.977   1.141   4.076 -0.1080  1.3406 -0.6774
10166TIP3   OH251912   4.318   5.624  15.108  0.0322  0.0167 -0.5198
10166TIP3    H151913   4.413   5.630  15.100  0.1867 -1.3305  0.0355
10166TIP3    H251914   4.303   5.606  15.201 -0.7053 -0.6209 -0.7535
10167TIP3   OH251915   3.408   6.556  15.934 -0.2820  0.2257  0.1802
10167TIP3    H151916   3.381   6.618  16.001 -2.0083  1.1412 -1.2702
10167TIP3    H251917   3.410   6.608  15.853 -0.2577 -1.2733 -0.8257
10168TIP3   OH251918   4.965   5.858  15.279  0.4502 -0.1494  0.0015
10168TIP3    H151919   5.047   5.821  15.311 -0.5574 -1.5977  1.0259
10168TIP3    H251920   4.960   5.830  15.188  1.6340  0.9879 -0.4519
10169TIP3   OH251921   0.273   3.204   4.352  0.1692  0.2367  0.0642
10169TIP3    H151922   0.269   3.195   4.257  3.2362 -0.6228 -0.0812
10169TIP3    H251923   0.246   3.295   4.368 -0.5484  0.3617 -1.5673
10170TIP3   OH251924   1.955   3.086   4.655 -0.2822 -0.2195 -0.3365
10170TIP3    H151925   2.005   3.162   4.624 -0.8278  0.5468  0.6016
10170TIP3    H251926   2.022   3.023   4.682  0.1837 -0.2575 -1.5324
10171TIP3   OH251927   1.213   2.098  16.621  0.4596  0.0793 -0.0637
10171TIP3    H151928   1.197   2.013  16.582 -0.2186  0.7210 -1.2295
10171TIP3    H251929   1.148   2.156  16.582  1.8323  1.4611 -0.4236
10172TIP3   OH251930   0.729   5.037  15.360  0.0815  0.0237  0.2163
10172TIP3    H151931   0.672   5.053  15.285  0.5898 -1.9159 -0.6556
10172TIP3    H251932   0.818   5.046  15.324  0.3368  0.7479  1.0041
10173TIP3   OH251933   4.047   2.107  10.895  0.1915 -0.6915 -0.0785
10173TIP3    H151934   4.128   2.118  10.845 -0.0371 -1.0256 -0.5246
10173TIP3    H251935   4.006   2.194  10.892 -0.8756 -1.2103 -2.3258
10174TIP3   OH251936   5.622   5.361  11.422  0.0629 -0.3825  0.3556
10174TIP3    H151937   5.621   5.301  11.496 -1.6518  2.8361  3.2070
10174TIP3    H251938   5.686   5.428  11.445 -0.3470  0.6085 -1.1913
10175TIP3   OH251939   1.192   3.215   0.279 -0.0941 -0.2584  0.1647
10175TIP3    H151940   1.244   3.172   0.211  0.3567 -1.0368  0.9896
10175TIP3    H251941   1.117   3.158   0.293 -0.3245  0.0342  0.1335
10176TIP3   OH251942   0.956   1.768  15.184 -0.0079 -0.4609 -0.1097
10176TIP3    H151943   0.967   1.725  15.269 -0.8837  0.1145  0.2979
10176TIP3    H251944   1.025   1.834  15.182  0.0890 -0.5540  0.1022
10177TIP3   OH251945   0.921   0.046   5.682  0.0005  0.2135 -0.1572
10177TIP3    H151946   1.013   0.023   5.670 -0.0592  0.5004 -1.2172
10177TIP3    H251947   0.922   0.119   5.744  0.3719 -0.7529  1.0168
10178TIP3   OH251948   4.499   4.905   0.393 -0.2365 -0.4402 -0.3563
10178TIP3    H151949   4.468   4.847   0.463 -0.9624 -1.0272 -1.1387
10178TIP3    H251950   4.477   4.993   0.423 -0.6285 -0.6950  0.1174
10179TIP3   OH251951   5.182   6.080   0.279  0.7144  0.4151 -0.2006
10179TIP3    H151952   5.177   5.994   0.321  1.3241  0.1709 -0.6039
10179TIP3    H251953   5.115   6.076   0.210 -2.0681  1.7096  2.2124
10180TIP3   OH251954   0.451   3.171  14.824 -0.0045  0.3197 -0.4599
10180TIP3    H151955   0.544   3.151  14.831 -0.4128 -3.1235 -2.6518
10180TIP3    H251956   0.439   3.199  14.733 -1.2062 -0.3110 -0.5233
10181TIP3   OH251957   4.924   5.428  14.329 -0.0532  0.1645  0.3302
10181TIP3    H151958   5.014   5.410  14.302 -0.2098 -0.5706  0.2833
10181TIP3    H251959   4.921   5.402  14.421  0.1832  1.6261  0.7732
10182TIP3   OH251960   1.724   5.513  13.411 -0.5390  0.3820 -0.2359
10182TIP3    H151961   1.796   5.450  13.414 -0.7526  0.1613  0.4857
10182TIP3    H251962   1.653   5.466  13.368 -1.1543 -0.3764  1.5168
10183TIP3   OH251963   4.453   5.074  15.806 -0.0032 -0.0301  0.8994
10183TIP3    H151964   4.401   5.154  15.808 -1.8752 -1.1067 -1.0342
10183TIP3    H251965   4.486   5.069  15.716  0.5252 -1.1632  1.1399
10184TIP3   OH251966   0.752   0.426  17.242 -0.1960 -0.2259  0.0782
10184TIP3    H151967   0.811   0.469  17.303 -1.4145  0.3658  0.8742
10184TIP3    H251968   0.810   0.381  17.180  1.0675  0.0029  1.0567
10185TIP3   OH251969   5.980   1.164  16.234 -0.2551  0.2346  0.3041
10185TIP3    H151970   5.921   1.206  16.172 -1.4465 -2.3869 -0.5024
10185TIP3    H251971   6.036   1.109  16.180  0.5146 -0.0638  1.3597
10186TIP3   OH251972   3.759   6.422   6.290 -0.1016 -0.3514 -0.0517
10186TIP3    H151973   3.796   6.508   6.307  0.5252 -0.2022 -1.9220
10186TIP3    H251974   3.835   6.364   6.283 -0.5202 -1.0929  1.2310
10187TIP3   OH251975   4.000   5.756  13.680  0.3074 -0.2468 -0.4149
10187TIP3    H151976   3.918   5.772  13.633 -0.1027 -0.7807  0.0951
10187TIP3    H251977   4.011   5.834  13.735 -0.3920 -0.5903  0.2441
10188TIP3   OH251978   0.310   4.696  16.386 -0.0891  0.5547  0.2127
10188TIP3    H151979   0.352   4.611  16.371 -0.2967  0.4958 -0.0534
10188TIP3    H251980   0.337   4.750  16.311 -0.7919  0.3920 -0.1719
10189TIP3   OH251981   0.801   0.319   4.043  0.0316 -0.4562  0.0183
10189TIP3    H151982   0.822   0.309   4.136 -2.4406 -1.6144  0.5471
10189TIP3    H251983   0.774   0.410   4.033 -1.8577 -0.8590  1.0068
10190TIP3   OH251984   2.544   1.507   1.892 -0.9847 -0.1527  0.3924
10190TIP3    H151985   2.497   1.493   1.974  1.4463  3.1992  2.6357
10190TIP3    H251986   2.631   1.471   1.907 -0.3768  0.8648 -0.5477
10191TIP3   OH251987   4.173   5.563   1.320  0.2885 -0.2802 -0.0507
10191TIP3    H151988   4.162   5.651   1.283  1.9740  0.5323  1.1849
10191TIP3    H251989   4.225   5.516   1.256 -0.5369 -0.3501 -0.6757
10192TIP3   OH251990   5.898   5.150   0.444 -0.4179 -0.5525 -0.1952
10192TIP3    H151991   5.946   5.155   0.526 -0.6566 -1.3222 -0.0053
10192TIP3    H251992   5.953   5.099   0.386  0.7938  1.8088 -1.2814
10193TIP3   OH251993   3.682   2.640  15.921  0.3403 -0.2086  0.2522
10193TIP3    H151994   3.626   2.717  15.928 -1.5766 -1.6923  3.1132
10193TIP3    H251995   3.623   2.569  15.895  1.2026 -1.4463  1.5051
10194TIP3   OH251996   3.577   4.650  13.158  0.3705 -0.3046  0.1155
10194TIP3    H151997   3.524   4.589  13.209 -0.7187  1.9142  1.8637
10194TIP3    H251998   3.666   4.617  13.164  0.2066 -0.4313  3.1370
10195TIP3   OH251999   0.232   6.012   4.944 -0.6119  0.8520  0.0562
10195TIP3    H152000   0.299   6.060   4.993  2.5990 -0.7544 -2.3690
10195TIP3    H252001   0.195   6.077   4.884  0.6937  1.2382 -0.3573
10196TIP3   OH252002   3.222   2.812  11.920  0.1306 -0.4649  0.2079
10196TIP3    H152003   3.292   2.761  11.960 -0.5085 -1.9127 -0.4309
10196TIP3    H252004   3.267   2.871  11.860  1.0718  1.4373  2.6050
10197TIP3   OH252005   0.631   4.076  14.477  0.4312  0.1320  0.6461
10197TIP3    H152006   0.709   4.112  14.434 -1.0115  1.0776 -1.3272
10197TIP3    H252007   0.632   4.116  14.564  2.8722 -1.0148  1.2473
10198TIP3   OH252008   4.450   1.031  13.524  0.0577  0.4326  0.0781
10198TIP3    H152009   4.364   0.990  13.533  0.0339  0.4903  0.1191
10198TIP3    H252010   4.511   0.968  13.562 -0.0745  0.8136  0.9623
10199TIP3   OH252011   4.484   1.642   5.663 -0.1257 -0.2397  0.4660
10199TIP3    H152012   4.553   1.675   5.720  0.2028  0.0251 -0.0694
10199TIP3    H252013   4.523   1.646   5.575 -1.1402  0.7813  0.0409
10200TIP3   OH252014   3.910   2.400  13.861  0.4276 -0.0091  0.1209
10200TIP3    H152015   3.890   2.310  13.834 -2.4809  0.2868  0.9790
10200TIP3    H252016   3.971   2.389  13.934 -0.9259 -1.4186  1.1164
10201TIP3   OH252017   5.746   0.684  16.647  0.1588  0.0009 -0.5552
10201TIP3    H152018   5.663   0.730  16.641 -1.2071 -2.1727  0.4350
10201TIP3    H252019   5.781   0.708  16.733  0.6207  0.9589 -0.9939
10202TIP3   OH252020   1.970   2.499  16.786 -0.4022  0.5784  0.0644
10202TIP3    H152021   1.939   2.414  16.817 -0.5565  1.4355  2.4746
10202TIP3    H252022   1.913   2.520  16.712 -0.7614 -1.0983 -0.1731
10203TIP3   OH252023   5.048   2.388  12.809  0.2544 -0.1119 -0.3186
10203TIP3    H152024   5.068   2.411  12.718  0.2609  0.2087 -0.2357
10203TIP3    H252025   5.071   2.466  12.859 -0.0277 -0.1825 -0.0770
10204TIP3   OH252026   2.909   4.319   6.233 -0.2301  0.5217 -0.0332
10204TIP3    H152027   2.817   4.337   6.211 -0.1725  0.0755 -0.6324
10204TIP3    H252028   2.954   4.317   6.149  0.1048 -0.5294  0.1637
10205TIP3   OH252029   2.630   3.883  12.720  0.1797 -0.0647  0.3547
10205TIP3    H152030   2.568   3.902  12.649  0.3422  1.2323  0.5303
10205TIP3    H252031   2.662   3.969  12.747 -0.8780 -0.3812  2.9020
10206TIP3   OH252032   1.938   1.436  11.412  0.2339  0.1181 -0.2205
10206TIP3    H152033   2.006   1.453  11.346 -0.5611 -0.3771 -1.2066
10206TIP3    H252034   1.938   1.340  11.421 -2.3799 -0.2508 -2.5933
10207TIP3   OH252035   5.429   6.456   1.235 -0.0199  0.2873  0.3023
10207TIP3    H152036   5.524   6.459   1.222 -0.0349  2.4974  0.3362
10207TIP3    H252037   5.396   6.405   1.161  1.1931 -0.7887  0.4671
10208TIP3   OH252038   1.594   5.605  17.122 -0.4438  0.7720 -0.1041
10208TIP3    H152039   1.502   5.579  17.136 -0.0740  0.7719  3.3000
10208TIP3    H252040   1.596   5.698  17.144  0.1933  1.0866 -1.4191
10209TIP3   OH252041   3.972   2.695  13.904 -0.0886 -0.2444 -0.3554
10209TIP3    H152042   3.961   2.600  13.909 -0.0579 -0.1891  1.0179
10209TIP3    H252043   3.885   2.731  13.922  0.0417  0.0018 -0.2115
10210TIP3   OH252044   6.568   1.135   4.193  0.3921 -0.3472 -0.2395
10210TIP3    H152045   6.520   1.110   4.272 -0.4130  1.7202 -0.0139
10210TIP3    H252046   6.658   1.148   4.223  0.1342  0.2227  0.3229
10211TIP3   OH252047   6.209   0.082   4.910  0.1904  0.0546 -0.0168
10211TIP3    H152048   6.294   0.110   4.875  0.6523 -0.9524  0.2821
10211TIP3    H252049   6.230   0.046   4.997 -0.4573 -0.7513 -0.1905
10212TIP3   OH252050   2.285   1.900  11.624 -0.6853 -0.2989  0.7040
10212TIP3    H152051   2.244   1.833  11.679  0.4161 -1.0152  0.6719
10212TIP3    H252052   2.246   1.887  11.537 -0.0325 -1.3309  0.5451
10213TIP3   OH252053   5.830   2.473   1.197  0.1245 -0.1177 -0.3429
10213TIP3    H152054   5.831   2.568   1.190 -1.6223 -0.1582 -1.7015
10213TIP3    H252055   5.820   2.455   1.291  1.3858  0.9850  0.0317
10214TIP3   OH252056   4.273   2.904   0.689 -0.6394  0.1928 -0.1848
10214TIP3    H152057   4.187   2.947   0.692 -0.5445  0.6521 -2.4060
10214TIP3    H252058   4.316   2.942   0.612  0.1764 -2.5515 -1.1823
10215TIP3   OH252059   6.355   4.741   0.092 -0.0754 -0.2958 -0.0843
10215TIP3    H152060   6.340   4.818   0.037 -2.8138 -1.1096 -0.6379
10215TIP3    H252061   6.309   4.670   0.047  0.4753 -1.7655  1.5543
10216TIP3   OH252062   6.726   6.038  11.595 -0.2174 -0.0646  0.3099
10216TIP3    H152063   6.748   6.131  11.602  1.9529 -0.5730  0.8396
10216TIP3    H252064   6.808   5.992  11.613 -1.2940 -2.1054  0.3025
10217TIP3   OH252065   4.411   1.974  14.952  0.3163 -0.1085  0.5041
10217TIP3    H152066   4.480   1.956  14.888 -0.5537 -0.6331 -0.3079
10217TIP3    H252067   4.385   2.064  14.935  0.4185 -0.0925  0.4354
10218TIP3   OH252068   1.397   4.209  14.831 -0.9317 -0.6775  0.0625
10218TIP3    H152069   1.406   4.220  14.736  1.2944  1.5402  0.4192
10218TIP3    H252070   1.411   4.115  14.845  0.6482 -0.7784 -1.7000
10219TIP3   OH252071   6.743   5.721  15.599 -0.1153  0.2989  0.6513
10219TIP3    H152072   6.773   5.691  15.512 -1.4674 -1.5375  0.7545
10219TIP3    H252073   6.738   5.816  15.591 -1.3321  0.1148 -1.7076
10220TIP3   OH252074   4.119   0.821  16.789  0.1984  0.3144 -0.6909
10220TIP3    H152075   4.156   0.781  16.710 -0.8633  2.5254 -2.3897
10220TIP3    H252076   4.174   0.898  16.804  0.5102 -0.1886  0.8920
10221TIP3   OH252077   4.967   3.332  16.105  0.8016 -0.0430 -0.0545
10221TIP3    H152078   4.883   3.289  16.089  0.3065 -0.5153  3.1449
10221TIP3    H252079   5.029   3.260  16.116  0.8605  0.1723  1.1055
10222TIP3   OH252080   2.752   6.152  13.374  0.1012 -0.2038 -0.0923
10222TIP3    H152081   2.669   6.137  13.330  0.3595  1.3713 -1.2110
10222TIP3    H252082   2.807   6.079  13.347 -1.0341 -1.5785  1.1144
10223TIP3   OH252083   0.151   0.905   2.431  0.2952 -0.4613  0.1144
10223TIP3    H152084   0.134   0.850   2.507 -1.4993 -0.2346 -0.0757
10223TIP3    H252085   0.098   0.984   2.446  1.1045  0.2536 -0.6596
10224TIP3   OH252086   0.199   3.322   2.206  0.6667 -0.2485  0.5472
10224TIP3    H152087   0.201   3.402   2.153  0.7471  0.1187  1.0934
10224TIP3    H252088   0.274   3.271   2.175  0.4691 -0.2262  0.0230
10225TIP3   OH252089   6.501   4.511  16.479  0.0078 -0.0098 -0.1959
10225TIP3    H152090   6.408   4.491  16.491 -0.0012  0.6165  0.8477
10225TIP3    H252091   6.502   4.603  16.453  0.3083 -0.2032 -0.9061
10226TIP3   OH252092   1.077   6.527   1.669 -0.0136  0.2671 -0.6783
10226TIP3    H152093   1.163   6.569   1.665  1.5786 -2.6831 -0.7272
10226TIP3    H252094   1.051   6.534   1.761  0.9208  0.1068 -0.3862
10227TIP3   OH252095   5.083   5.556   5.769 -0.2175 -0.2817 -0.0350
10227TIP3    H152096   5.008   5.524   5.718 -1.6411  0.6178  1.3807
10227TIP3    H252097   5.114   5.632   5.720 -0.9630 -0.0001 -0.0948
10228TIP3   OH252098   0.186   3.429   2.995 -0.0434 -0.3219 -0.0755
10228TIP3    H152099   0.162   3.458   3.083 -0.1436 -1.0782  0.1503
10228TIP3    H252100   0.242   3.499   2.962  0.9900 -0.5845  1.0554
10229TIP3   OH252101   5.586   3.726   3.808  0.6186  0.0947  0.3893
10229TIP3    H152102   5.502   3.721   3.852  1.1118 -0.6322  1.2952
10229TIP3    H252103   5.645   3.673   3.863  0.9875 -1.9619 -1.7907
10230TIP3   OH252104   3.641   4.974  13.474  0.0105 -0.4992 -0.5900
10230TIP3    H152105   3.735   4.959  13.460  0.0731  0.0939 -0.8649
10230TIP3    H252106   3.629   4.967  13.568  0.6472  1.0149 -0.3554
10231TIP3   OH252107   0.657   1.248   3.446  0.2808 -0.3612  0.4352
10231TIP3    H152108   0.729   1.221   3.388  0.8610 -0.0418  1.0081
10231TIP3    H252109   0.695   1.314   3.504 -0.2412 -0.8323  1.3320
10232TIP3   OH252110   3.923   4.639  12.628  0.2259  0.2238 -0.6634
10232TIP3    H152111   3.868   4.616  12.703  0.9414  1.1646  0.1887
10232TIP3    H252112   3.868   4.697  12.575  0.4749  1.4892  0.3915
10233TIP3   OH252113   6.100   6.618  13.520 -0.4128 -0.4408 -0.2527
10233TIP3    H152114   6.095   6.580  13.608  0.4841  0.4015  0.1774
10233TIP3    H252115   6.182   6.668  13.520 -0.1707 -0.8000 -1.7238
10234TIP3   OH252116   6.691   2.061   3.456 -0.2498 -0.1189 -0.7544
10234TIP3    H152117   6.739   1.979   3.467 -1.7964 -1.1227 -1.1678
10234TIP3    H252118   6.599   2.036   3.458 -0.7878  1.7107 -0.1720
10235TIP3   OH252119   4.304   3.838  11.313  0.1712 -0.1066  0.2901
10235TIP3    H152120   4.212   3.862  11.304 -0.0548 -1.4843 -1.8855
10235TIP3    H252121   4.340   3.848  11.225  1.9370 -0.2810  0.9525
10236TIP3   OH252122   1.433   1.011  13.658  0.2511 -0.3079 -0.5122
10236TIP3    H152123   1.365   0.943  13.665 -0.3190  0.4177  1.6350
10236TIP3    H252124   1.418   1.068  13.733  3.1145  0.0232 -0.0860
10237TIP3   OH252125   2.525   1.845  17.026 -0.3354 -0.0888  0.1198
10237TIP3    H152126   2.478   1.908  17.081 -1.8863 -0.0254 -1.2063
10237TIP3    H252127   2.590   1.897  16.979 -0.6977  0.2913  0.0373
10238TIP3   OH252128   5.388   6.727  16.357  0.3115 -0.3746  0.3422
10238TIP3    H152129   5.462   6.762  16.406  0.7181 -1.2118  0.3564
10238TIP3    H252130   5.401   6.632  16.359 -0.7177 -0.5317  0.2679
10239TIP3   OH252131   4.249   0.649  12.102 -0.3106 -0.1044 -0.3392
10239TIP3    H152132   4.313   0.700  12.052  0.1185 -1.2846 -1.0293
10239TIP3    H252133   4.270   0.669  12.193  1.6748 -1.1400 -0.4966
10240TIP3   OH252134   2.983   5.877  12.467 -0.1656 -0.2255  0.6764
10240TIP3    H152135   2.918   5.811  12.493  0.5575 -1.1052  0.3153
10240TIP3    H252136   3.056   5.826  12.433  0.3658  0.7828  0.2664
10241TIP3   OH252137   2.632   3.050  15.095 -0.4091 -0.4077  0.1512
10241TIP3    H152138   2.611   3.126  15.148 -1.0059  0.2375 -0.9849
10241TIP3    H252139   2.725   3.060  15.074 -0.3105 -0.3770  0.5900
10242TIP3   OH252140   1.399   4.438  15.449 -0.3696 -0.5565 -0.1055
10242TIP3    H152141   1.336   4.495  15.493 -0.3533 -0.6641  0.0574
10242TIP3    H252142   1.485   4.471  15.479 -0.3302 -0.0810 -0.7283
10243TIP3   OH252143   0.222   6.649   0.542 -0.7204 -0.2478 -0.2784
10243TIP3    H152144   0.133   6.623   0.518 -0.4262 -1.5572  0.0042
10243TIP3    H252145   0.256   6.690   0.462 -1.5794  0.3196 -0.3760
10244TIP3   OH252146   4.984   6.779  13.867  0.5401  0.2503  0.2654
10244TIP3    H152147   4.986   6.684  13.859 -1.9287  0.2931 -2.4159
10244TIP3    H252148   5.071   6.807  13.837  1.0395 -1.1109  0.3654
10245TIP3   OH252149   2.592   6.190  13.132  0.2161 -0.2471 -0.5066
10245TIP3    H152150   2.527   6.133  13.173 -1.0557  0.4229 -1.4926
10245TIP3    H252151   2.572   6.277  13.165  2.2502 -0.3340  1.1199
10246TIP3   OH252152   6.565   4.014  10.942  0.2114 -0.2350  0.0279
10246TIP3    H152153   6.575   3.968  10.858 -1.7895 -1.0010  0.1578
10246TIP3    H252154   6.603   3.955  11.006  0.6389 -0.2057 -0.1972
10247TIP3   OH252155   0.258   1.056   2.145  0.6007 -0.7349 -0.0261
10247TIP3    H152156   0.172   1.019   2.161  0.0319  0.4433 -0.2474
10247TIP3    H252157   0.246   1.151   2.155  1.9704 -0.5778  0.4071
10248TIP3   OH252158   4.352   3.147  11.347  0.2334 -0.8653  0.0532
10248TIP3    H152159   4.280   3.085  11.341 -0.1148 -0.4544 -0.0071
10248TIP3    H252160   4.386   3.136  11.436 -0.3034 -0.6192  0.2941
10249TIP3   OH252161   0.409   0.790  13.553 -0.4652  0.0236 -0.6903
10249TIP3    H152162   0.355   0.716  13.582 -1.2805  0.0588 -2.0318
10249TIP3    H252163   0.479   0.749  13.501 -0.0206  0.0941 -0.1597
10250TIP3   OH252164   2.968   5.059  13.914  0.3737  0.4424  0.1789
10250TIP3    H152165   2.947   5.019  13.829  0.2401  1.0609 -0.0842
10250TIP3    H252166   3.059   5.033  13.930  0.0479 -0.6283  0.4008
10251TIP3   OH252167   5.827   0.084  17.181  0.0749  0.0784  0.2271
10251TIP3    H152168   5.865   0.005  17.142  0.1445  1.2367 -2.2362
10251TIP3    H252169   5.763   0.113  17.117  1.9462  3.5101 -0.2953
10252TIP3   OH252170   4.583   0.098   5.185 -0.0360 -0.0415 -0.6143
10252TIP3    H152171   4.651   0.058   5.239 -1.7200 -0.9012  0.9752
10252TIP3    H252172   4.593   0.056   5.099  2.6553  1.3079 -1.0685
10253TIP3   OH252173   1.896   1.259  13.263 -0.0509  0.2661  0.3652
10253TIP3    H152174   1.845   1.179  13.267 -1.4715  1.0366 -1.1416
10253TIP3    H252175   1.988   1.230  13.262 -0.4665 -1.2133  1.5039
10254TIP3   OH252176   6.139   5.698   1.346  0.2590  0.0529 -0.2649
10254TIP3    H152177   6.178   5.734   1.267  1.2128 -2.2917 -0.9507
10254TIP3    H252178   6.211   5.653   1.390 -0.1537  1.6481  2.2298
10255TIP3   OH252179   3.444   4.426   5.541 -0.0992 -0.2097  0.4825
10255TIP3    H152180   3.349   4.431   5.532  0.0067  1.0240 -0.1134
10255TIP3    H252181   3.459   4.439   5.635 -0.4707  0.7060  0.4280
10256TIP3   OH252182   2.587   0.785  13.900  0.6390  0.2454  0.3760
10256TIP3    H152183   2.644   0.718  13.939 -1.3608 -2.4813 -0.9940
10256TIP3    H252184   2.578   0.757  13.809 -1.4584  1.5621  0.1215
10257TIP3   OH252185   0.675   1.885  13.533 -0.3580 -0.5789  0.1313
10257TIP3    H152186   0.607   1.950  13.514 -0.2857 -0.0817  1.5076
10257TIP3    H252187   0.756   1.924  13.501 -0.2861  0.1037  1.1205
10258TIP3   OH252188   2.445   3.839   2.305 -0.2578 -0.6061  0.2141
10258TIP3    H152189   2.395   3.788   2.368  0.1181 -0.8773  0.2960
10258TIP3    H252190   2.536   3.813   2.319 -0.1377 -0.4457 -0.2309
10259TIP3   OH252191   4.344   5.752  12.114  0.0268 -0.4480  0.1630
10259TIP3    H152192   4.291   5.812  12.167 -2.2606 -1.5251 -0.7550
10259TIP3    H252193   4.337   5.668  12.159 -0.8104 -1.0646 -1.0422
10260TIP3   OH252194   0.222   4.389  12.679 -0.3654  0.1360 -0.5153
10260TIP3    H152195   0.150   4.447  12.657 -0.5762  0.3639  0.7071
10260TIP3    H252196   0.181   4.315  12.724  0.2899  1.2550  2.1222
10261TIP3   OH252197   0.409   3.596  16.305  0.7240  0.3772  0.4113
10261TIP3    H152198   0.386   3.688  16.318  2.3070  0.9902 -0.7308
10261TIP3    H252199   0.345   3.564  16.242 -1.2735 -0.0202  2.4997
10262TIP3   OH252200   4.429   0.861  12.366 -0.3437 -0.3080 -0.2367
10262TIP3    H152201   4.459   0.877  12.276 -0.6082  0.9017 -0.1362
10262TIP3    H252202   4.342   0.901  12.369 -0.9002 -1.5220  0.1956
10263TIP3   OH252203   3.412   5.860   2.746  0.1863 -0.0654 -0.1313
10263TIP3    H152204   3.501   5.850   2.711  1.6478  4.1881  1.6428
10263TIP3    H252205   3.362   5.897   2.673 -0.8501 -4.0380 -1.6874
10264TIP3   OH252206   5.744   5.659  15.866  0.3264 -0.2328 -0.1538
10264TIP3    H152207   5.810   5.698  15.809  0.2953 -0.6079 -0.4477
10264TIP3    H252208   5.683   5.731  15.884  0.2624 -0.1428 -0.7033
10265TIP3   OH252209   5.870   4.390  11.703 -0.0925  0.5039 -0.1137
10265TIP3    H152210   5.958   4.417  11.675  0.0666  0.9044  0.7258
10265TIP3    H252211   5.812   4.456  11.665  0.2113  1.5924  1.1949
10266TIP3   OH252212   0.691   5.837  14.713 -0.4238  0.6170 -0.1097
10266TIP3    H152213   0.655   5.847  14.624 -0.6584  0.4803 -0.0321
10266TIP3    H252214   0.755   5.767  14.705 -0.4406  0.6087 -0.1742
10267TIP3   OH252215   3.941   6.633   2.515 -0.1342 -0.7360 -0.1333
10267TIP3    H152216   3.865   6.673   2.474  0.6243  0.3189 -0.5604
10267TIP3    H252217   4.009   6.636   2.448  1.3798  1.7498  1.3428
10268TIP3   OH252218   0.003   2.315   0.977  0.1919 -0.1555  0.3657
10268TIP3    H152219  -0.046   2.332   0.897 -1.3163  1.8355  1.6230
10268TIP3    H252220   0.071   2.383   0.978  0.8173 -0.7639  0.3492
10269TIP3   OH252221   3.499   6.097  12.387 -0.6583 -0.0066  0.3305
10269TIP3    H152222   3.465   6.171  12.337 -2.0250  0.5465  1.9991
10269TIP3    H252223   3.421   6.052  12.419  0.1654 -0.5327  1.6710
10270TIP3   OH252224   4.821   4.247  12.878 -0.1351 -0.2581  0.0492
10270TIP3    H152225   4.815   4.262  12.783  0.0435 -0.0996  0.0630
10270TIP3    H252226   4.757   4.178  12.895 -0.9906  0.4925 -0.0130
10271TIP3   OH252227   6.190   6.550   4.473  0.6367 -0.1344 -0.2448
10271TIP3    H152228   6.253   6.622   4.472 -1.4511  1.8065  0.1987
10271TIP3    H252229   6.194   6.516   4.562 -0.0282  1.0248  0.2422
10272TIP3   OH252230   0.584   4.267   4.692 -0.2277 -0.7363 -0.3364
10272TIP3    H152231   0.663   4.311   4.722 -2.7547  2.2862  2.6778
10272TIP3    H252232   0.582   4.185   4.742  0.4646 -0.3222  0.3932
10273TIP3   OH252233   4.673   2.366   4.692 -0.0863 -0.1115 -0.1588
10273TIP3    H152234   4.694   2.459   4.699 -3.2199  0.8894 -1.9787
10273TIP3    H252235   4.724   2.335   4.617  0.7475  0.1596  0.2782
10274TIP3   OH252236   0.084   5.457  16.572 -0.0912 -0.2728 -0.0850
10274TIP3    H152237   0.062   5.475  16.663 -2.4867 -0.1887 -0.6239
10274TIP3    H252238   0.142   5.380  16.576  0.5666  0.2670  1.5234
10275TIP3   OH252239   4.745   5.646   6.175  0.1633 -0.2432 -0.2155
10275TIP3    H152240   4.835   5.618   6.162  0.5170  0.5015  0.5281
10275TIP3    H252241   4.738   5.727   6.125  0.0159 -0.1080  0.0221
10276TIP3   OH252242   5.815   2.734  15.763 -0.1164 -0.0924 -0.2564
10276TIP3    H152243   5.762   2.743  15.842  1.2555  0.1791  0.6716
10276TIP3    H252244   5.834   2.824  15.735  2.7871 -0.0356  1.5219
10277TIP3   OH252245   2.363   3.643   5.173 -0.1295 -0.1003  0.1813
10277TIP3    H152246   2.325   3.676   5.254 -0.2116  0.9636 -0.2721
10277TIP3    H252247   2.451   3.614   5.197  0.5040  1.8181  0.3486
10278TIP3   OH252248   2.889   4.713  14.464 -0.3138 -0.2856 -0.4845
10278TIP3    H152249   2.813   4.680  14.513 -0.3335  0.1465 -0.2127
10278TIP3    H252250   2.869   4.806  14.450 -0.0596 -0.2840 -0.8428
10279TIP3   OH252251   5.565   3.777  16.251 -0.2792 -0.5932  0.0887
10279TIP3    H152252   5.473   3.804  16.250  0.0507  0.6098 -0.3877
10279TIP3    H252253   5.572   3.716  16.324 -1.3414 -0.2520  0.4913
10280TIP3   OH252254   6.672   3.405   1.183 -0.2018  0.0118  0.0130
10280TIP3    H152255   6.583   3.399   1.218  0.4407 -1.4934  1.5503
10280TIP3    H252256   6.662   3.389   1.089 -1.5415 -0.3996  0.1987
10281TIP3   OH252257   6.011   2.840  13.263 -0.0211  0.6862  0.2947
10281TIP3    H152258   6.003   2.875  13.175 -0.6495 -0.7169 -0.2336
10281TIP3    H252259   5.948   2.890  13.315 -2.0061 -0.5990 -0.7651
10282TIP3   OH252260   3.398   1.533  16.484  0.0489  0.1031 -0.4476
10282TIP3    H152261   3.391   1.504  16.575  0.7859 -0.7794 -0.6586
10282TIP3    H252262   3.418   1.627  16.490 -0.1249  0.0974  0.2939
10283TIP3   OH252263   0.182   5.315   3.100 -0.4398 -0.0714  0.2901
10283TIP3    H152264   0.138   5.362   3.029 -0.1198  0.1512  0.2353
10283TIP3    H252265   0.115   5.307   3.168 -0.5538  0.3026  0.2264
10284TIP3   OH252266   6.648   4.523  14.281 -0.5837  0.1519 -0.5425
10284TIP3    H152267   6.660   4.431  14.304  0.8692 -0.1878 -2.4218
10284TIP3    H252268   6.574   4.523  14.221 -0.5983  0.2061 -0.5240
10285TIP3   OH252269   6.081   4.338   4.407 -0.5110 -0.0656 -0.5022
10285TIP3    H152270   6.013   4.291   4.454 -0.5882 -0.9958 -1.5276
10285TIP3    H252271   6.132   4.270   4.363 -0.0738  0.7440 -1.2748
10286TIP3   OH252272   5.215   5.213  13.782  0.4681  0.3946  0.1724
10286TIP3    H152273   5.145   5.214  13.847  0.4673  1.3811  0.1751
10286TIP3    H252274   5.225   5.121  13.759 -0.5562  0.1933  0.4676
10287TIP3   OH252275   4.566   4.336  14.540  0.1155 -0.2094  0.1415
10287TIP3    H152276   4.639   4.328  14.479 -1.3831  0.0533 -1.7796
10287TIP3    H252277   4.595   4.289  14.618  1.8748 -1.1203 -0.9939
10288TIP3   OH252278   3.915   6.172   4.001 -0.3331 -0.4746 -0.3240
10288TIP3    H152279   3.971   6.249   4.015 -1.3208  0.4992 -1.4700
10288TIP3    H252280   3.973   6.106   3.963  0.0875  0.4549 -1.3458
10289TIP3   OH252281   5.931   5.793   4.863 -0.0727  0.1705 -0.2164
10289TIP3    H152282   5.888   5.759   4.941  1.6962 -1.8279 -0.0136
10289TIP3    H252283   5.867   5.779   4.793 -0.9153  0.1110  0.5404
10290TIP3   OH252284   6.190   6.448  13.710 -0.5776 -0.1192  0.2022
10290TIP3    H152285   6.213   6.379  13.648 -0.3756  1.0029 -1.0149
10290TIP3    H252286   6.184   6.404  13.794  0.1234 -1.5098 -0.4512
10291TIP3   OH252287   5.394   4.559   4.385 -0.0170  0.2718  0.0731
10291TIP3    H152288   5.409   4.639   4.434 -1.6675 -0.4519  1.8972
10291TIP3    H252289   5.475   4.508   4.396  0.4411  1.0253  0.2018
10292TIP3   OH252290   2.830   4.439   5.543 -0.2721 -0.4912 -0.1780
10292TIP3    H152291   2.803   4.414   5.454 -1.1627  1.1122 -0.3860
10292TIP3    H252292   2.857   4.356   5.584 -2.9265 -1.8069 -0.8875
10293TIP3   OH252293   1.599   3.563   1.149 -0.6635  0.2087 -0.0324
10293TIP3    H152294   1.668   3.501   1.174 -0.7223  0.4266  0.6734
10293TIP3    H252295   1.640   3.618   1.082 -0.4512 -0.2681 -0.2968
10294TIP3   OH252296   2.553   3.344   3.479  0.3791 -0.3959  0.2691
10294TIP3    H152297   2.556   3.322   3.572  3.8196 -0.4296  0.2965
10294TIP3    H252298   2.618   3.286   3.439  1.7332  2.1605 -1.4808
10295TIP3   OH252299   6.223   3.984   1.270  0.2445  0.2379  0.1493
10295TIP3    H152300   6.238   4.002   1.178 -0.6139  1.1811  0.1728
10295TIP3    H252301   6.232   3.889   1.278 -1.1520 -0.0517 -1.2050
10296TIP3   OH252302   4.864   1.091   4.339 -0.3940 -0.0815 -0.4547
10296TIP3    H152303   4.953   1.115   4.365 -0.9188  0.9177  0.5158
10296TIP3    H252304   4.846   1.009   4.384 -0.7154  0.8221  1.1484
10297TIP3   OH252305   1.982   4.448   4.723  0.2231 -0.3111  0.1109
10297TIP3    H152306   1.944   4.364   4.696  0.7683  0.1458 -2.3136
10297TIP3    H252307   1.944   4.512   4.663  0.7535  0.9922  1.1145
10298TIP3   OH252308   5.226   5.055   3.331  0.4420 -0.1714 -0.2881
10298TIP3    H152309   5.270   5.070   3.415  2.4005  2.9299 -1.7049
10298TIP3    H252310   5.145   5.105   3.337 -0.3661 -1.5027  0.3687
10299TIP3   OH252311   0.377   6.399  14.953 -0.3881  0.0845  0.3736
10299TIP3    H152312   0.322   6.439  15.020 -1.1215 -0.8102  0.3262
10299TIP3    H252313   0.465   6.432  14.972 -0.9032  1.4447  0.5264
10300TIP3   OH252314   5.320   0.718  12.874 -0.0484 -0.0672  0.3716
10300TIP3    H152315   5.388   0.764  12.923 -0.1375  0.5438 -0.0600
10300TIP3    H252316   5.238   0.748  12.913 -0.0766 -1.1884  1.2286
10301TIP3   OH252317   2.771   1.279   2.181 -0.4226 -0.9331 -0.8790
10301TIP3    H152318   2.761   1.373   2.166 -0.6535 -1.0524 -1.5260
10301TIP3    H252319   2.781   1.242   2.093 -1.0209 -1.5869 -0.6847
10302TIP3   OH252320   6.336   0.974  14.433 -0.2972  0.8439  0.4401
10302TIP3    H152321   6.284   1.043  14.474  0.2306  1.2247  0.4850
10302TIP3    H252322   6.398   1.021  14.377 -1.6640  0.3038 -1.6274
10303TIP3   OH252323   4.542   6.253  15.631 -0.2579 -0.0470 -0.0427
10303TIP3    H152324   4.454   6.284  15.610  0.4849  1.2010 -1.5422
10303TIP3    H252325   4.600   6.308  15.578  1.7750  1.9868  3.8664
10304TIP3   OH252326   4.883   6.554   5.335 -0.0615 -0.2895 -0.6443
10304TIP3    H152327   4.799   6.513   5.315  0.1325 -0.9862 -0.0676
10304TIP3    H252328   4.946   6.507   5.280 -0.2653  1.4197 -2.4413
10305TIP3   OH252329   0.078   6.035  14.775  0.4316 -0.4809 -0.2361
10305TIP3    H152330   0.090   6.053  14.868  0.6843  1.4114 -0.5813
10305TIP3    H252331   0.157   5.989  14.748  1.5071  1.1120  0.0261
10306TIP3   OH252332   3.961   3.463   3.806 -0.3107  0.2554  0.1200
10306TIP3    H152333   4.024   3.516   3.854 -1.2093  0.5875  0.9712
10306TIP3    H252334   3.924   3.403   3.871 -1.7574  0.9185 -0.0387
10307TIP3   OH252335   5.007   1.937  12.897 -0.7453  0.1292 -0.1467
10307TIP3    H152336   5.053   2.019  12.917 -0.2370  0.2873 -1.8246
10307TIP3    H252337   5.074   1.869  12.906 -1.1596 -0.1218  1.2132
10308TIP3   OH252338   4.558   3.075  13.065 -0.2300  0.1878 -0.0115
10308TIP3    H152339   4.524   3.122  12.989  0.1511  1.2460  0.4464
10308TIP3    H252340   4.558   2.983  13.039 -0.4664  0.4950 -1.1419
10309TIP3   OH252341   6.215   0.575   5.328 -0.4670 -0.0032  0.9222
10309TIP3    H152342   6.184   0.613   5.410 -1.6122 -0.9278  0.9449
10309TIP3    H252343   6.149   0.509   5.306  0.3625 -0.4826 -0.2080
10310TIP3   OH252344   2.495   1.091   3.136 -0.8307 -0.1509 -0.1273
10310TIP3    H152345   2.454   1.149   3.200 -0.0554  0.5811 -0.2597
10310TIP3    H252346   2.438   1.015   3.130 -0.0914 -1.0328  2.6834
10311TIP3   OH252347   3.235   3.091  15.534  0.1177  0.6781  0.0097
10311TIP3    H152348   3.208   3.137  15.614  2.1809  1.4385  0.3432
10311TIP3    H252349   3.287   3.017  15.566 -0.8816 -0.3239 -0.6111
10312TIP3   OH252350   1.784   2.871   4.589 -0.1381 -0.2588 -0.2108
10312TIP3    H152351   1.867   2.918   4.586 -0.3659  0.4756  2.6606
10312TIP3    H252352   1.808   2.779   4.576  0.7871  0.1494 -1.7210
10313TIP3   OH252353   3.579   5.786   6.824 -0.2363  0.3189  0.0346
10313TIP3    H152354   3.515   5.857   6.819 -0.4916  0.0620 -0.4027
10313TIP3    H252355   3.536   5.712   6.781  0.1743  0.0115  0.1518
10314TIP3   OH252356   2.129   3.296   6.246  0.0160  0.7558 -0.4907
10314TIP3    H152357   2.048   3.344   6.263 -0.6177 -0.4326 -0.0622
10314TIP3    H252358   2.180   3.307   6.327 -0.3195  0.3392 -0.2198
10315TIP3   OH252359   2.370   0.667   0.097  0.2488 -0.4584  0.2281
10315TIP3    H152360   2.392   0.757   0.071 -1.1932 -0.6644 -2.0367
10315TIP3    H252361   2.344   0.675   0.189 -0.4342  1.6000 -0.0716
10316TIP3   OH252362   6.660   6.320   0.740 -0.1506 -0.7920 -0.1547
10316TIP3    H152363   6.742   6.369   0.736 -0.8004  0.3500  0.2233
10316TIP3    H252364   6.645   6.291   0.650  0.6335 -0.9667 -0.2335
10317TIP3   OH252365   5.457   5.087  13.216 -0.5515  0.1039  0.2300
10317TIP3    H152366   5.378   5.119  13.260 -0.3303 -0.1421  0.8236
10317TIP3    H252367   5.521   5.079  13.286 -0.4203 -1.0752 -0.0032
10318TIP3   OH252368   3.901   4.479  13.187 -0.1779  0.1353 -0.6602
10318TIP3    H152369   3.980   4.482  13.134 -1.0772  1.7016 -2.0185
10318TIP3    H252370   3.921   4.532  13.264  0.5074 -0.5771 -0.3341
10319TIP3   OH252371   3.056   3.985   1.190  0.1070  0.9711  0.3473
10319TIP3    H152372   3.039   3.973   1.097  1.9952  1.9283 -0.1832
10319TIP3    H252373   3.106   4.067   1.195  0.1131  0.8990  2.1892
10320TIP3   OH252374   0.930   6.256   0.279  0.5426 -0.7870  0.2229
10320TIP3    H152375   0.897   6.324   0.338  0.6010  1.5939 -2.3022
10320TIP3    H252376   0.853   6.231   0.227  1.0350 -0.9401 -0.4379
10321TIP3   OH252377   2.910   3.467  14.241 -0.0658  0.1721  0.2374
10321TIP3    H152378   2.937   3.375  14.238 -1.0960 -0.1274 -2.7271
10321TIP3    H252379   2.970   3.511  14.180 -0.5385  1.1875  0.4911
10322TIP3   OH252380   2.544   4.963   3.204 -0.1181 -0.1628 -0.2803
10322TIP3    H152381   2.553   4.892   3.140 -0.1942  1.9286 -2.7613
10322TIP3    H252382   2.627   4.963   3.251  0.3564 -1.1266 -1.0757
10323TIP3   OH252383   5.289   1.393   5.143 -0.4875 -0.6278 -0.0913
10323TIP3    H152384   5.259   1.307   5.114 -1.1423  0.0295 -1.4373
10323TIP3    H252385   5.261   1.399   5.235 -0.4727 -1.8111 -0.0008
10324TIP3   OH252386   5.621   2.992   5.356  0.2263  0.4480  0.1826
10324TIP3    H152387   5.631   2.897   5.341  0.1627  0.3483  0.7502
10324TIP3    H252388   5.651   3.005   5.446  2.0283  1.2538 -0.4754
10325TIP3   OH252389   3.573   1.167  11.919 -0.4183  0.5871 -0.2244
10325TIP3    H152390   3.495   1.210  11.884 -0.3398 -0.6767 -2.0675
10325TIP3    H252391   3.639   1.180  11.852 -0.1908 -1.7506 -0.5221
10326TIP3   OH252392   5.198   2.804  16.991 -0.7063 -0.2864 -0.7525
10326TIP3    H152393   5.240   2.888  17.010 -0.6228 -0.3049 -0.8551
10326TIP3    H252394   5.157   2.778  17.074  1.6381 -1.5193  0.0972
10327TIP3   OH252395   0.566   4.733   4.867 -0.1380  0.0724 -0.1631
10327TIP3    H152396   0.641   4.727   4.807 -0.8585  0.8616 -1.1779
10327TIP3    H252397   0.587   4.671   4.937  0.9376 -0.5477 -0.9961
10328TIP3   OH252398   0.099   4.575  16.763  0.1220  0.6932  0.1210
10328TIP3    H152399   0.077   4.609  16.849  2.0515 -0.8025  1.2814
10328TIP3    H252400   0.195   4.575  16.761  0.1305 -0.5164 -1.5357
10329TIP3   OH252401   2.238   4.642   2.396 -0.0182 -0.3094 -0.2296
10329TIP3    H152402   2.253   4.659   2.303 -0.4552  0.2278 -0.2068
10329TIP3    H252403   2.292   4.706   2.442  1.2599 -1.4544 -0.0785
10330TIP3   OH252404   1.457   6.214  12.310  0.3091  0.8476  0.4281
10330TIP3    H152405   1.487   6.303  12.328 -1.4578  1.4123  0.7574
10330TIP3    H252406   1.374   6.206  12.357  0.6080 -1.1230  0.7385
10331TIP3   OH252407   5.063   4.039   5.607  0.1460 -0.0546 -0.1924
10331TIP3    H152408   5.075   4.051   5.701 -0.2310 -0.6007 -0.0709
10331TIP3    H252409   5.141   3.990   5.579  0.6444  0.7830 -0.3143
10332TIP3   OH252410   5.743   2.300  13.822  0.5749  0.7914 -0.3092
10332TIP3    H152411   5.770   2.392  13.820  2.2255  0.3544  0.4070
10332TIP3    H252412   5.648   2.304  13.818  0.6050  2.5252 -0.4631
10333TIP3   OH252413   4.764   5.690   3.548 -0.5397 -0.1706 -0.0710
10333TIP3    H152414   4.825   5.631   3.591 -0.2698 -1.7624 -2.4610
10333TIP3    H252415   4.713   5.729   3.619  0.2170 -2.2149  1.6741
10334TIP3   OH252416   0.446   1.080  16.245  0.1421 -0.0538 -0.1562
10334TIP3    H152417   0.353   1.097  16.231  0.1344  0.4116  0.3883
10334TIP3    H252418   0.469   1.016  16.178 -0.1667  1.0960 -1.4039
10335TIP3   OH252419   2.487   5.690   3.235  0.0171  0.5030  0.2839
10335TIP3    H152420   2.418   5.709   3.172  0.1982  1.9132  0.4635
10335TIP3    H252421   2.564   5.671   3.182  0.5935  3.2790 -0.0177
10336TIP3   OH252422   6.425   2.055   4.201 -0.3404 -0.2486  0.0926
10336TIP3    H152423   6.431   2.149   4.183 -0.7588 -0.1347  0.5412
10336TIP3    H252424   6.503   2.036   4.255 -0.4716 -0.0783  0.3428
10337TIP3   OH252425   0.946   2.129   4.384  0.1948  0.0389 -0.0888
10337TIP3    H152426   0.948   2.223   4.403  0.3990  0.5935 -2.5431
10337TIP3    H252427   1.034   2.099   4.408  0.0840  0.4241  0.8503
10338TIP3   OH252428   5.311   0.676  14.030 -0.3327  0.1074 -0.2983
10338TIP3    H152429   5.395   0.630  14.027  0.0011  0.6406  0.6122
10338TIP3    H252430   5.257   0.631  13.964  0.7704  0.0001 -1.1504
10339TIP3   OH252431   2.688   2.486   0.989 -0.1504 -0.0526 -0.2592
10339TIP3    H152432   2.695   2.510   1.081 -0.1315 -1.2852  0.0795
10339TIP3    H252433   2.757   2.421   0.975 -1.8322 -1.9213 -0.4108
10340TIP3   OH252434   0.858   2.767   4.435  0.0400 -0.2739  0.2566
10340TIP3    H152435   0.891   2.783   4.347  1.6877 -1.7848  0.5487
10340TIP3    H252436   0.795   2.696   4.424  0.2694 -0.4846  0.2841
10341TIP3   OH252437   3.705   3.740   3.010  0.4629 -0.0961 -0.0747
10341TIP3    H152438   3.766   3.755   3.082  0.8769 -0.1541 -0.4097
10341TIP3    H252439   3.739   3.792   2.938  0.9355 -1.2440 -0.7137
10342TIP3   OH252440   5.806   1.815   5.760  0.0798  0.3086  0.3203
10342TIP3    H152441   5.814   1.746   5.826 -2.8694 -0.7358 -0.2613
10342TIP3    H252442   5.755   1.884   5.803 -0.3324  0.3957 -0.2898
10343TIP3   OH252443   4.399   1.107   0.019  0.3940 -0.0570  0.1492
10343TIP3    H152444   4.424   1.121   0.110 -0.5958 -2.0627  0.7907
10343TIP3    H252445   4.460   1.162  -0.031  0.8048  1.2833  1.9943
10344TIP3   OH252446   5.779   3.167   5.845  0.0760 -0.1594 -0.2514
10344TIP3    H152447   5.720   3.205   5.909 -0.2356  0.0702 -0.6696
10344TIP3    H252448   5.857   3.222   5.849 -0.8741  1.3964 -1.8020
10345TIP3   OH252449   4.184   3.930  13.206 -0.3771  0.0672  0.3855
10345TIP3    H152450   4.092   3.953  13.215 -0.8333 -1.4418 -0.1548
10345TIP3    H252451   4.191   3.843  13.246  0.5474 -0.3909 -0.7193
10346TIP3   OH252452   3.858   4.173   2.306  0.1197 -0.0682  0.7938
10346TIP3    H152453   3.841   4.119   2.383  0.7845 -0.2255  0.8386
10346TIP3    H252454   3.896   4.113   2.242 -0.9838 -0.0689  0.1116
10347TIP3   OH252455   5.972   6.533  11.293  0.3574  0.5474 -0.4097
10347TIP3    H152456   5.916   6.583  11.234 -0.8327 -0.5674 -0.2588
10347TIP3    H252457   5.987   6.592  11.368  0.1503  1.1824 -0.8588
10348TIP3   OH252458   4.017   6.089   1.045 -0.5914 -0.1863 -0.1793
10348TIP3    H152459   4.099   6.104   1.093 -1.4915 -0.2531  1.4647
10348TIP3    H252460   4.032   6.008   0.997 -0.0419 -0.8018  0.9712
10349TIP3   OH252461   4.104   4.333  12.196  0.1687 -0.1154  0.0810
10349TIP3    H152462   4.097   4.365  12.286  0.2510  0.2832 -0.0562
10349TIP3    H252463   4.015   4.310  12.171  0.2968 -1.3946  0.6918
10350TIP3   OH252464   6.332   0.627  13.479 -0.3826 -0.2386 -0.1062
10350TIP3    H152465   6.283   0.691  13.427  0.0746  2.0262  2.0623
10350TIP3    H252466   6.282   0.546  13.472 -0.5473  0.0317 -3.6403
10351TIP3   OH252467   0.870   2.359  14.451  0.8268 -0.3277  0.0810
10351TIP3    H152468   0.902   2.291  14.510  0.2404 -0.4151  0.3068
10351TIP3    H252469   0.879   2.321  14.364 -1.9590 -1.8134  0.3259
10352TIP3   OH252470   4.688   1.119  11.784  0.1375  0.0307  0.5609
10352TIP3    H152471   4.769   1.099  11.738  1.2696 -0.7382  2.7326
10352TIP3    H252472   4.704   1.203  11.826  0.2599 -0.6228  1.8795
10353TIP3   OH252473   0.999   0.815   3.578 -0.1382  0.3300  0.2739
10353TIP3    H152474   0.988   0.783   3.668 -0.7463  1.9523  0.8189
10353TIP3    H252475   0.971   0.907   3.582  1.3295  0.8968 -1.2362
10354TIP3   OH252476   3.632   5.579  13.350 -0.4535 -0.8482  0.5427
10354TIP3    H152477   3.586   5.495  13.342  0.8239 -1.6398  1.1203
10354TIP3    H252478   3.720   5.555  13.381 -0.3043  0.7655  1.4880
10355TIP3   OH252479   3.290   6.718  16.109  0.2118 -0.3442  0.0094
10355TIP3    H152480   3.339   6.777  16.166 -0.4083  1.1195 -0.9056
10355TIP3    H252481   3.206   6.762  16.095 -0.3003 -1.4805 -0.6564
10356TIP3   OH252482   3.714   0.702   5.519 -0.0499  0.5283 -0.1643
10356TIP3    H152483   3.634   0.742   5.553 -0.9762 -2.5900  1.7047
10356TIP3    H252484   3.740   0.639   5.586  2.8094 -0.1130 -1.6913
10357TIP3   OH252485   1.864   0.964   4.986  0.3619  0.6409 -0.3154
10357TIP3    H152486   1.945   1.005   4.958 -0.0162  1.4283 -0.2684
10357TIP3    H252487   1.854   0.888   4.928  1.3502  0.2719 -0.0287
10358TIP3   OH252488   3.798   2.457   3.349  0.1389  0.2385 -0.4546
10358TIP3    H152489   3.771   2.514   3.420 -3.2336  1.8260 -2.7669
10358TIP3    H252490   3.724   2.398   3.336  2.0465 -2.3126 -0.5636
10359TIP3   OH252491   3.522   0.616  11.959  0.5077  0.5019  0.3691
10359TIP3    H152492   3.525   0.545  12.023 -0.2582  1.9415  2.0938
10359TIP3    H252493   3.594   0.598  11.899 -0.2591 -2.2378  0.1274
10360TIP3   OH252494   4.058   2.845   3.421 -0.3289  0.3756 -0.5428
10360TIP3    H152495   4.079   2.762   3.465 -0.2367  1.1145  0.8415
10360TIP3    H252496   4.081   2.829   3.329  2.1999 -0.3048  0.1139
10361TIP3   OH252497   4.891   0.192   3.459  0.1747 -0.3086  0.0067
10361TIP3    H152498   4.804   0.223   3.483 -0.6923 -2.6071  0.0549
10361TIP3    H252499   4.898   0.105   3.499  2.5069 -0.1988  0.0128
10362TIP3   OH252500   1.282   0.086  16.444 -0.1898  0.6136 -0.3367
10362TIP3    H152501   1.365   0.129  16.426  0.0072 -0.6238 -2.8094
10362TIP3    H252502   1.291  -0.001  16.405 -1.1359 -1.1989  3.0714
10363TIP3   OH252503   2.445   1.087  15.692  0.0926  0.4533 -0.1667
10363TIP3    H152504   2.487   1.163  15.652  2.3795 -0.1955  0.8849
10363TIP3    H252505   2.471   1.091  15.784  1.6959 -2.4886 -0.3982
10364TIP3   OH252506   1.672   5.838  11.705  0.2043 -0.5491 -0.3295
10364TIP3    H152507   1.681   5.894  11.782 -0.4030 -2.6384  1.3574
10364TIP3    H252508   1.605   5.881  11.651 -0.0507  0.4650  0.7625
10365TIP3   OH252509   6.652   4.671  12.790 -0.2720 -0.3874 -0.0716
10365TIP3    H152510   6.718   4.664  12.860  0.1201 -0.0865 -0.4038
10365TIP3    H252511   6.625   4.763  12.792  2.0188  0.4674 -2.3108
10366TIP3   OH252512   0.631   2.323   4.901 -0.4156 -0.1243 -0.6781
10366TIP3    H152513   0.595   2.240   4.930 -2.9189  1.2089  0.3880
10366TIP3    H252514   0.637   2.315   4.806 -2.6295 -0.8537 -0.8182
10367TIP3   OH252515   0.653   5.360  17.105 -0.1686 -0.0665 -0.3523
10367TIP3    H152516   0.638   5.293  17.038  0.9416 -0.7506  0.0589
10367TIP3    H252517   0.618   5.441  17.067 -0.3320 -0.6170 -1.3917
10368TIP3   OH252518   3.722   3.873  17.231  0.2206 -0.7055  0.2814
10368TIP3    H152519   3.813   3.897  17.217 -0.2677 -0.2951 -2.9006
10368TIP3    H252520   3.682   3.950  17.270  0.6318  0.3482 -1.2798
10369TIP3   OH252521   0.557   0.974  12.011  0.3226  0.0781  0.2648
10369TIP3    H152522   0.536   1.058  11.971  1.2358 -0.0012 -0.4167
10369TIP3    H252523   0.561   0.912  11.938  2.3670  0.0071  0.3853
10370TIP3   OH252524   5.502   0.284   3.266  0.2221  0.6214 -0.0758
10370TIP3    H152525   5.576   0.249   3.216 -1.2573 -0.7834 -1.3826
10370TIP3    H252526   5.487   0.371   3.228 -1.4185 -0.7280 -2.8884
10371TIP3   OH252527   6.211   6.089   0.161 -0.4759  0.2193  0.0116
10371TIP3    H152528   6.151   6.075   0.235 -0.4464  1.7650  0.3624
10371TIP3    H252529   6.298   6.075   0.198 -0.2703  3.1602  0.9636
10372TIP3   OH252530   6.651   5.962  10.900  0.1854  0.6138  0.5322
10372TIP3    H152531   6.606   5.987  10.980 -0.1742  1.7938 -0.0060
10372TIP3    H252532   6.634   5.869  10.890 -0.1617  0.5559  1.5737
10373TIP3   OH252533   2.428   6.066  10.443  0.3465  0.6159  0.3269
10373TIP3    H152534   2.443   6.060  10.349  0.7620 -0.2578  0.4394
10373TIP3    H252535   2.500   6.120  10.475  0.1815  0.9486  0.1444
10374TIP3   OH252536   1.483   5.603  12.567 -0.8738 -0.2243  0.2393
10374TIP3    H152537   1.551   5.631  12.628 -0.7594  0.7892 -0.3301
10374TIP3    H252538   1.485   5.507  12.572  0.0395 -0.1951  0.8212
10375TIP3   OH252539   5.579   3.393   5.194 -0.5190 -0.0133 -1.4540
10375TIP3    H152540   5.535   3.308   5.190  0.2640 -0.5086 -0.3168
10375TIP3    H252541   5.581   3.424   5.104 -1.7281 -0.7248 -1.7459
10376TIP3   OH252542   0.134   0.051   2.953  0.2297  0.3455  0.4175
10376TIP3    H152543   0.095  -0.029   2.990 -0.4489 -0.1605 -1.2902
10376TIP3    H252544   0.098   0.122   3.006 -1.0555 -0.3113  0.4696
10377TIP3   OH252545   0.063   3.994  16.675 -0.0284  0.4742 -0.2954
10377TIP3    H152546   0.129   3.944  16.723  0.3313  0.6701 -0.5766
10377TIP3    H252547   0.097   3.999  16.586 -0.2577  0.8756 -0.3620
10378TIP3   OH252548   6.167   1.590   0.714  0.0333  0.0046  0.4504
10378TIP3    H152549   6.159   1.682   0.742  0.1575 -0.0750  0.7523
10378TIP3    H252550   6.182   1.542   0.795 -0.3881 -0.3278  0.3381
10379TIP3   OH252551   4.604   1.269   1.663 -0.1933 -0.1630  0.1208
10379TIP3    H152552   4.637   1.329   1.596  2.1059  0.2363  1.4960
10379TIP3    H252553   4.538   1.319   1.711  0.6335  0.7805  0.3044
10380TIP3   OH252554   5.060   0.737  12.985  0.0519  0.1607 -0.3848
10380TIP3    H152555   5.051   0.731  13.080  0.0449 -0.2554 -0.4094
10380TIP3    H252556   5.058   0.646  12.955 -0.8804  0.3179 -0.8653
10381TIP3   OH252557   5.114   1.187  15.827  0.2102 -0.5387  0.0728
10381TIP3    H152558   5.025   1.167  15.799 -0.3330 -1.8033  2.3528
10381TIP3    H252559   5.139   1.111  15.881  1.6361  0.9713  1.6661
10382TIP3   OH252560   1.482   3.475   6.258  0.7418  0.6823 -0.4744
10382TIP3    H152561   1.562   3.448   6.213  1.2422 -0.9692  1.2720
10382TIP3    H252562   1.448   3.394   6.298 -0.7618  1.6942  0.4166
10383TIP3   OH252563   3.495   2.255   2.263 -0.5430 -0.3481 -0.1151
10383TIP3    H152564   3.402   2.279   2.260 -0.0443  2.2304  1.5846
10383TIP3    H252565   3.533   2.316   2.325  2.3113 -1.4087 -0.6781
10384TIP3   OH252566   1.724   4.914   0.070  0.3592  0.2916 -0.9824
10384TIP3    H152567   1.726   5.001   0.109 -1.6549 -0.0918  0.1093
10384TIP3    H252568   1.730   4.854   0.144 -0.0251 -0.4861 -1.5678
10385TIP3   OH252569   3.498   5.083  12.610  0.0991 -0.0421  0.4851
10385TIP3    H152570   3.438   5.047  12.545  0.2339  1.3987 -0.4968
10385TIP3    H252571   3.449   5.081  12.692 -0.4645 -0.9348  0.1402
10386TIP3   OH252572   5.691   2.145   6.112 -0.1561  0.3726  0.3383
10386TIP3    H152573   5.597   2.160   6.120  0.1076  2.0971  0.5449
10386TIP3    H252574   5.698   2.063   6.062 -1.7540 -2.4615  4.2889
10387TIP3   OH252575   1.928   5.781  12.942 -0.0946 -0.6623  0.2635
10387TIP3    H152576   2.011   5.821  12.917 -0.6993  0.0129 -0.7982
10387TIP3    H252577   1.951   5.708  12.998  1.1036  0.7331  1.6706
10388TIP3   OH252578   0.286   1.363  16.385 -0.3317  0.3273 -0.5789
10388TIP3    H152579   0.256   1.294  16.444  2.4904 -1.7841 -1.4219
10388TIP3    H252580   0.268   1.444  16.433 -3.9607 -0.8223  0.3797
10389TIP3   OH252581   3.929   1.082   2.587 -0.1266 -0.3093  0.5335
10389TIP3    H152582   3.960   1.068   2.498  1.4990  1.8672  0.6949
10389TIP3    H252583   3.849   1.133   2.578  0.7839  1.1336  0.3042
10390TIP3   OH252584   4.687   5.647   5.012 -0.0595  0.3212  0.3433
10390TIP3    H152585   4.674   5.738   4.988 -0.5108 -0.0505 -0.9010
10390TIP3    H252586   4.781   5.639   5.029  0.3355  0.5959 -1.5103
10391TIP3   OH252587   1.849   4.802   4.013  0.3989  0.4543  0.3740
10391TIP3    H152588   1.832   4.892   3.986  1.8483  0.5831 -0.2282
10391TIP3    H252589   1.860   4.807   4.108  0.6990  0.9605  0.3167
10392TIP3   OH252590   3.662   2.935  11.426  0.4257 -0.4413 -0.4347
10392TIP3    H152591   3.751   2.961  11.448 -0.0461  1.0590 -0.1962
10392TIP3    H252592   3.617   3.017  11.408 -1.2964 -1.0340  0.8883
10393TIP3   OH252593   2.125   2.030   3.446  0.3699  0.5597  0.4599
10393TIP3    H152594   2.151   2.100   3.387  0.4555  0.1431 -0.0049
10393TIP3    H252595   2.206   1.981   3.463 -0.0794 -0.8271 -1.1076
10394TIP3   OH252596   1.656   0.593   4.181  0.0996 -0.2185  0.2251
10394TIP3    H152597   1.706   0.646   4.119 -0.7608  0.9997  0.5300
10394TIP3    H252598   1.707   0.594   4.262  1.1875 -1.7471 -0.3786
10395TIP3   OH252599   6.494   0.080  15.862  0.7446  0.1604  0.1244
10395TIP3    H152600   6.505   0.031  15.781  1.7219  0.9832 -0.2735
10395TIP3    H252601   6.493   0.014  15.931 -4.5946 -1.1077 -0.6781
10396TIP3   OH252602   2.413   2.648  13.069 -0.6371 -0.3213  0.3776
10396TIP3    H152603   2.484   2.711  13.059 -2.3750  1.9558  1.5345
10396TIP3    H252604   2.398   2.615  12.981  0.4676  0.7162 -0.2331
10397TIP3   OH252605   0.859   6.169   1.567  0.2143 -0.3640 -0.2424
10397TIP3    H152606   0.840   6.076   1.555 -1.0209  0.0970 -2.4034
10397TIP3    H252607   0.776   6.213   1.549  1.2388  1.2710 -1.2001
10398TIP3   OH252608   1.619   3.481   3.033  0.0230  0.2383 -0.4125
10398TIP3    H152609   1.606   3.387   3.051 -0.5493  0.7152  2.1322
10398TIP3    H252610   1.531   3.517   3.031  0.2628  0.7993 -0.9104
10399TIP3   OH252611   3.294   1.835  15.175 -0.1046 -0.3579 -0.3158
10399TIP3    H152612   3.248   1.891  15.237 -2.1016 -2.2234 -0.0129
10399TIP3    H252613   3.387   1.848  15.195 -0.5673  1.5839  0.7941
10400TIP3   OH252614   3.044   0.155   3.789  0.4065 -0.3271 -0.2631
10400TIP3    H152615   3.025   0.178   3.698 -2.1619  0.2531  0.3118
10400TIP3    H252616   3.034   0.238   3.836  0.0626 -0.9123  0.7261
10401TIP3   OH252617   5.042   4.687   4.048 -0.1070 -0.2154 -0.2003
10401TIP3    H152618   5.033   4.616   3.983  1.0772  0.7034 -1.4226
10401TIP3    H252619   5.115   4.739   4.016 -0.8180  1.4518  0.7941
10402TIP3   OH252620   3.559   1.579   6.322  0.1194  0.4941 -0.3627
10402TIP3    H152621   3.532   1.527   6.398 -0.1054 -0.1974 -0.9072
10402TIP3    H252622   3.655   1.573   6.323  0.1738 -4.1775 -3.1839
10403TIP3   OH252623   0.049   5.994   3.956 -0.2896  0.6247 -0.1877
10403TIP3    H152624   0.087   6.006   3.869 -0.5440  0.8214 -0.2723
10403TIP3    H252625   0.123   6.006   4.016 -0.2043  0.9235 -0.3528
10404TIP3   OH252626   5.785   1.626  14.923  0.2109 -0.1630 -0.3709
10404TIP3    H152627   5.718   1.599  14.986  1.3054  0.6909  1.2123
10404TIP3    H252628   5.756   1.711  14.891 -0.0351 -0.3190 -0.5656
10405TIP3   OH252629   0.456   0.513   4.134 -0.3504 -0.3246 -0.6229
10405TIP3    H152630   0.444   0.603   4.165  0.6279  0.1549 -1.5879
10405TIP3    H252631   0.380   0.496   4.079 -0.0479  0.2694 -1.2342
10406TIP3   OH252632   6.303   5.102  15.526  0.1391 -0.1839 -0.2755
10406TIP3    H152633   6.266   5.178  15.482 -0.0961 -0.0600  0.1377
10406TIP3    H252634   6.393   5.127  15.547 -0.3331  0.4712  1.0383
10407TIP3   OH252635   5.443   6.313   2.496 -0.0404  0.3874  0.3536
10407TIP3    H152636   5.436   6.368   2.419 -1.2600 -0.8011 -0.4351
10407TIP3    H252637   5.475   6.229   2.462 -0.3980 -0.0854  1.1546
10408TIP3   OH252638   1.262   4.384   1.910  0.0466  0.4159 -0.5358
10408TIP3    H152639   1.322   4.408   1.981 -1.3339  0.4054  0.6791
10408TIP3    H252640   1.290   4.297   1.883  0.2566  0.1962  0.3726
10409TIP3   OH252641   1.236   4.607  12.286 -0.1542  0.0414  0.0741
10409TIP3    H152642   1.168   4.553  12.245  0.6358  0.0065 -1.2488
10409TIP3    H252643   1.295   4.544  12.328  0.9567 -0.2218 -1.7580
10410TIP3   OH252644   4.477   4.596   2.910  0.0204 -0.3018  0.7185
10410TIP3    H152645   4.427   4.676   2.894 -0.2593 -0.6041  0.0359
10410TIP3    H252646   4.489   4.558   2.823 -0.0171 -1.1040  1.0589
10411TIP3   OH252647   4.497   2.994   0.964 -0.0021  0.1410 -0.0990
10411TIP3    H152648   4.455   2.920   0.920  1.3762  0.1386 -1.5196
10411TIP3    H252649   4.442   3.069   0.943 -3.0262 -0.7055  3.6355
10412TIP3   OH252650   6.564   0.328   2.650 -0.1470 -0.2650 -0.5810
10412TIP3    H152651   6.571   0.277   2.731 -1.0648  0.5430  0.0320
10412TIP3    H252652   6.646   0.377   2.645  0.3763 -1.1495 -0.7269
10413TIP3   OH252653   5.597   6.730  10.939  0.3451  0.6738 -0.3944
10413TIP3    H152654   5.640   6.718  11.023 -2.0413  0.2619  0.8660
10413TIP3    H252655   5.513   6.685  10.948 -0.0568  0.7421 -2.9640
10414TIP3   OH252656   5.127   5.954  11.975  0.6055  0.2847  0.6473
10414TIP3    H152657   5.164   6.011  12.043  1.3361  0.7423 -0.1081
10414TIP3    H252658   5.078   5.888  12.023 -1.7780  2.5230  1.5464
10415TIP3   OH252659   2.954   5.460   1.777  0.3924 -0.5740  0.0088
10415TIP3    H152660   2.926   5.396   1.843 -0.4593 -0.1873  0.0346
10415TIP3    H252661   2.992   5.532   1.828  0.0235 -0.4157  0.0605
10416TIP3   OH252662   5.241   2.439   0.502 -0.1699  0.5782  0.3503
10416TIP3    H152663   5.198   2.498   0.564  1.7952  2.1762  0.2902
10416TIP3    H252664   5.334   2.447   0.522  0.2436 -1.7334 -0.3893
10417TIP3   OH252665   6.039   3.573  14.864 -0.5166 -0.4963 -0.0693
10417TIP3    H152666   6.051   3.492  14.913  1.0316  0.9714  2.2185
10417TIP3    H252667   6.106   3.570  14.796  0.0301 -0.8322  0.4696
10418TIP3   OH252668   2.096   6.754  16.251 -0.0179  0.2438  0.3369
10418TIP3    H152669   2.148   6.737  16.172  0.0192  1.0747  0.1719
10418TIP3    H252670   2.159   6.750  16.322 -0.0598 -0.5605  0.3433
10419TIP3   OH252671   6.305   4.910   1.588  0.5099 -0.3533 -0.5584
10419TIP3    H152672   6.329   4.929   1.498  0.2191 -0.5620 -0.6837
10419TIP3    H252673   6.301   4.814   1.592  1.8905 -0.4021  0.0436
10420TIP3   OH252674   2.167   4.571   3.972 -0.4241 -0.3431 -0.0692
10420TIP3    H152675   2.237   4.520   3.930  2.1716  0.6010  2.6963
10420TIP3    H252676   2.157   4.648   3.916 -0.3533 -1.2383 -1.3376
10421TIP3   OH252677   5.033   0.501   3.967  0.2642 -0.8825 -0.2643
10421TIP3    H152678   4.948   0.535   3.994  1.0879  0.9604  0.1305
10421TIP3    H252679   5.025   0.491   3.872 -0.6981 -1.7004 -0.1143
10422TIP3   OH252680   0.553   6.057   0.830 -0.0258 -0.2845  0.1624
10422TIP3    H152681   0.636   6.083   0.867 -1.2252  1.1018  2.0302
10422TIP3    H252682   0.487   6.102   0.883 -1.9663 -1.0801 -1.4312
10423TIP3   OH252683   3.200   1.924   1.738  0.0910 -0.4217 -0.1864
10423TIP3    H152684   3.227   1.924   1.830  0.8906 -0.3603 -0.4066
10423TIP3    H252685   3.142   2.000   1.729  1.4584  0.6844 -0.1137
10424TIP3   OH252686   1.614   4.056  16.761  0.5308  0.2685 -0.4106
10424TIP3    H152687   1.589   3.987  16.699  1.1219 -0.7586  0.4717
10424TIP3    H252688   1.682   4.017  16.815  0.8916  1.5583  0.1077
10425TIP3   OH252689   3.623   3.468  13.810 -0.0990 -0.3020  0.6201
10425TIP3    H152690   3.662   3.409  13.745  1.4566  1.7100 -0.4156
10425TIP3    H252691   3.529   3.450  13.805  0.2402 -2.1274 -0.1629
10426TIP3   OH252692   4.529   5.296  11.840 -0.3079 -0.0029 -0.2495
10426TIP3    H152693   4.599   5.358  11.860 -0.2247 -0.6887  1.7983
10426TIP3    H252694   4.506   5.314  11.748  0.4486  2.2849 -0.0443
10427TIP3   OH252695   4.528   0.649   4.097  0.4495 -0.0374 -0.2406
10427TIP3    H152696   4.577   0.650   4.179 -0.7408  0.6868  0.4929
10427TIP3    H252697   4.465   0.720   4.106  1.9969  1.8833 -2.8601
10428TIP3   OH252698   6.234   2.067  11.839 -0.2190 -0.4378 -0.3042
10428TIP3    H152699   6.197   2.135  11.784  1.5522  1.8217  1.0944
10428TIP3    H252700   6.299   2.024  11.784  0.3372  0.6549 -0.5277
10429TIP3   OH252701   3.896   3.813  15.478 -0.3033  0.5334  0.3570
10429TIP3    H152702   3.820   3.871  15.469 -0.3377  0.6768  1.4169
10429TIP3    H252703   3.861   3.732  15.515 -0.4090 -0.5722 -1.9942
10430TIP3   OH252704   0.640   5.263  13.733  0.6256 -0.2879 -0.6378
10430TIP3    H152705   0.629   5.305  13.818 -1.2294  1.4486 -1.6577
10430TIP3    H252706   0.603   5.175  13.745  0.0442  0.0595  0.2460
10431TIP3   OH252707   2.301   5.727  16.042  0.7124  0.0771 -1.0160
10431TIP3    H152708   2.206   5.731  16.054  0.9625 -0.8074  2.6073
10431TIP3    H252709   2.337   5.764  16.123  3.4394 -0.3352 -1.9314
10432TIP3   OH252710   2.831   3.519   2.565  0.3403  0.4144 -0.1645
10432TIP3    H152711   2.925   3.528   2.547  0.5680 -0.5155  0.4749
10432TIP3    H252712   2.823   3.538   2.659 -0.1227  0.5170 -0.2220
10433TIP3   OH252713   0.202   0.508  16.171  0.0764  0.0011  0.0768
10433TIP3    H152714   0.184   0.553  16.253 -0.3874  0.6965 -0.3898
10433TIP3    H252715   0.155   0.560  16.105 -0.5055 -1.2050 -0.4764
10434TIP3   OH252716   3.545   1.563  14.568 -0.1739  0.6349 -0.2344
10434TIP3    H152717   3.475   1.557  14.503 -0.9790  1.2829  0.5614
10434TIP3    H252718   3.515   1.628  14.631  0.1526 -0.6609  1.3314
10435TIP3   OH252719   0.524   3.415  13.027 -0.1315 -0.4018 -0.1255
10435TIP3    H152720   0.466   3.430  13.102  0.3527 -0.4324  0.2609
10435TIP3    H252721   0.590   3.354  13.059  0.0264 -0.4875 -0.6055
10436TIP3   OH252722   1.986   3.759  14.540 -0.3257  0.4939  0.3660
10436TIP3    H152723   2.011   3.678  14.496 -0.0001  1.1959 -0.7742
10436TIP3    H252724   1.924   3.801  14.480 -0.3088  1.1992  0.8282
10437TIP3   OH252725   2.929   0.781  17.224 -0.0225 -0.5494  0.5423
10437TIP3    H152726   2.934   0.858  17.280  0.9586 -0.9600  1.0449
10437TIP3    H252727   2.983   0.715  17.268  0.5878 -0.9598 -0.7463
10438TIP3   OH252728   3.532   2.763  13.772 -0.2382  0.2876 -0.3685
10438TIP3    H152729   3.461   2.819  13.803 -0.2352 -0.7778  1.6896
10438TIP3    H252730   3.612   2.801  13.810 -0.3806 -1.8601  2.4150
10439TIP3   OH252731   4.430   4.129   5.837  0.3235  0.6078  0.5535
10439TIP3    H152732   4.481   4.124   5.918 -0.3649 -1.0602  0.9085
10439TIP3    H252733   4.363   4.195   5.855  0.2555  0.3393  1.3008
10440TIP3   OH252734   1.833   3.433  15.229  0.9030  0.3973 -0.1249
10440TIP3    H152735   1.909   3.383  15.259  1.2729  0.2665 -1.2460
10440TIP3    H252736   1.763   3.407  15.289  1.3671 -0.6385 -0.0038
10441TIP3   OH252737   5.033   1.040  12.453  0.1534 -0.1652  0.6879
10441TIP3    H152738   4.954   0.988  12.441 -0.5701  0.6077  1.9647
10441TIP3    H252739   5.008   1.129  12.430  1.2473 -0.2229 -0.9569
10442TIP3   OH252740   3.923   3.081   1.678 -0.2397  0.0152  0.3868
10442TIP3    H152741   3.976   3.148   1.635 -1.1752  0.3677 -0.2744
10442TIP3    H252742   3.843   3.078   1.625  0.8169 -3.5432 -1.2686
10443TIP3   OH252743   5.990   1.549   6.277  0.1250 -0.7536 -0.4981
10443TIP3    H152744   6.080   1.551   6.244 -0.5369  1.1608 -2.3992
10443TIP3    H252745   5.951   1.470   6.238  0.4935 -0.6604 -1.0600
10444TIP3   OH252746   5.649   2.486   0.006  0.0011  0.6195 -0.1565
10444TIP3    H152747   5.603   2.552   0.059  0.2167 -0.9291  2.0866
10444TIP3    H252748   5.713   2.448   0.065 -0.1666 -1.6574 -1.3425
10445TIP3   OH252749   5.170   1.094  14.299  0.5610 -0.0093 -0.1373
10445TIP3    H152750   5.084   1.111  14.260  1.0144 -0.1742 -1.2333
10445TIP3    H252751   5.220   1.050  14.231  0.5130 -2.8406  1.5036
10446TIP3   OH252752   3.501   6.778  12.135  0.0597  0.5659  0.0727
10446TIP3    H152753   3.409   6.773  12.108 -0.9870 -1.0105  3.3985
10446TIP3    H252754   3.501   6.837  12.210  2.1987  2.0720 -0.9854
10447TIP3   OH252755   4.589   5.499   2.405 -0.6202 -0.1209 -0.5508
10447TIP3    H152756   4.531   5.428   2.433  0.5399 -1.3113 -1.0318
10447TIP3    H252757   4.628   5.467   2.323  0.1799  0.9184 -0.5958
10448TIP3   OH252758   6.405   1.706   3.364 -0.5069 -0.5229  0.3691
10448TIP3    H152759   6.423   1.786   3.414  0.6618 -0.2168 -0.5074
10448TIP3    H252760   6.437   1.635   3.420 -1.4102 -0.3896  1.0830
10449TIP3   OH252761   0.909   3.684   3.692 -0.2967 -0.1082  0.0615
10449TIP3    H152762   0.914   3.773   3.729 -0.3369  0.1394 -0.5220
10449TIP3    H252763   0.903   3.627   3.769 -1.2006  0.4545  0.4303
10450TIP3   OH252764   0.298   5.770   4.833  0.1921  0.4227 -0.2496
10450TIP3    H152765   0.224   5.710   4.841  1.6658 -1.2926  1.5504
10450TIP3    H252766   0.261   5.856   4.853 -1.3481 -0.3640  0.5174
10451TIP3   OH252767   5.513   6.135   3.824 -0.4378 -0.0579 -0.0417
10451TIP3    H152768   5.597   6.133   3.870 -1.1404 -2.4349  1.3210
10451TIP3    H252769   5.516   6.216   3.773  2.9432 -0.3754 -0.5980
10452TIP3   OH252770   1.678   5.361  15.836 -0.2426  0.2085  0.1784
10452TIP3    H152771   1.706   5.329  15.922  0.7057 -1.2280 -0.6215
10452TIP3    H252772   1.615   5.296  15.806  1.0552 -0.5233 -1.1022
10453TIP3   OH252773   2.530   2.879   0.404  0.3582 -0.1516 -0.2770
10453TIP3    H152774   2.601   2.823   0.372  0.7401 -0.7337  1.4796
10453TIP3    H252775   2.574   2.955   0.442 -0.1476  1.2411 -2.2986
10454TIP3   OH252776   0.263   1.010   5.757  0.5204 -0.1607 -0.3106
10454TIP3    H152777   0.184   0.987   5.708  0.7068  1.2740 -1.3139
10454TIP3    H252778   0.230   1.049   5.838  0.1641  1.1616 -1.0687
10455TIP3   OH252779   0.129   4.821  11.919  0.1174 -0.0232 -0.8778
10455TIP3    H152780   0.094   4.773  11.994  0.6895  0.1674 -0.4759
10455TIP3    H252781   0.053   4.841  11.865 -0.3654  0.2554 -0.1045
10456TIP3   OH252782   3.257   2.461  13.245  0.1109 -0.1153 -0.2543
10456TIP3    H152783   3.345   2.484  13.274  0.8379 -1.2896 -1.4392
10456TIP3    H252784   3.235   2.527  13.180  0.6151 -0.5052 -0.8294
10457TIP3   OH252785   3.954   4.750   2.729  0.0904  0.0050  0.0367
10457TIP3    H152786   3.914   4.749   2.642 -2.9277  3.6786  1.1289
10457TIP3    H252787   4.021   4.818   2.724  0.4770 -0.3363  0.4089
10458TIP3   OH252788   5.098   1.146   2.356 -0.3294  0.0430 -0.4151
10458TIP3    H152789   5.177   1.093   2.346  0.5759  1.5441 -1.7472
10458TIP3    H252790   5.051   1.134   2.274 -1.3715 -0.5741  0.2402
10459TIP3   OH252791   3.613   2.806   4.054  0.0936  0.1050 -0.2989
10459TIP3    H152792   3.560   2.769   3.984  0.8824 -0.6438 -0.5163
10459TIP3    H252793   3.632   2.732   4.112  1.8634  0.0714 -0.8502
10460TIP3   OH252794   2.298   0.869  15.320  0.2539  0.2231  0.3157
10460TIP3    H152795   2.313   0.845  15.411  1.1619  0.4781  0.2370
10460TIP3    H252796   2.382   0.855  15.277  0.0586  0.8966 -0.3044
10461TIP3   OH252797   4.602   5.162   4.188  0.3522 -0.1619  0.0142
10461TIP3    H152798   4.551   5.129   4.114 -0.2877 -0.4910  0.5916
10461TIP3    H252799   4.654   5.087   4.217 -1.5137 -0.8856  1.6750
10462TIP3   OH252800   4.195   2.196  13.284 -0.1884 -0.5657 -0.9113
10462TIP3    H152801   4.238   2.115  13.255  2.0121 -0.6497  2.0992
10462TIP3    H252802   4.197   2.190  13.380 -2.5916  1.7876 -0.6223
10463TIP3   OH252803   6.591   0.480   4.698 -0.3903 -0.5460  0.1362
10463TIP3    H152804   6.672   0.480   4.646  0.0438 -0.8428  0.7920
10463TIP3    H252805   6.621   0.493   4.788 -1.1270 -0.0893  0.3216
10464TIP3   OH252806   4.064   4.854  14.103  0.4559  0.4360 -0.0154
10464TIP3    H152807   4.061   4.833  14.010 -0.0532  0.1731  0.0612
10464TIP3    H252808   4.065   4.950  14.106 -0.7067  0.4712 -0.2587
10465TIP3   OH252809   3.172   5.761   4.169  0.1528 -0.6792 -0.4036
10465TIP3    H152810   3.151   5.725   4.083  0.2830 -1.8428  0.0295
10465TIP3    H252811   3.238   5.829   4.151 -0.7631  0.0048 -1.3293
10466TIP3   OH252812   2.381   4.840   2.973  0.3858 -0.2256 -0.6806
10466TIP3    H152813   2.344   4.800   3.051 -1.4518  1.8903 -0.3815
10466TIP3    H252814   2.360   4.779   2.902 -1.7411 -0.1779 -0.1477
10467TIP3   OH252815   3.218   0.638  15.095 -0.2379  0.1842 -0.0210
10467TIP3    H152816   3.298   0.613  15.142  0.4138  1.7408 -0.2326
10467TIP3    H252817   3.233   0.610  15.005  1.7802  3.6678 -0.9673
10468TIP3   OH252818   6.021   2.609   4.231  0.1512 -0.1502  0.1433
10468TIP3    H152819   6.004   2.640   4.320 -0.9549  2.4163 -0.8799
10468TIP3    H252820   6.115   2.619   4.219  0.0781  1.0919  0.5028
10469TIP3   OH252821   0.751   1.476   3.582  0.2077 -0.0844 -0.3581
10469TIP3    H152822   0.826   1.453   3.637 -1.0992 -1.0642  1.1045
10469TIP3    H252823   0.789   1.491   3.496  1.9555 -1.8166  0.0209
10470TIP3   OH252824   3.640   0.216  13.884 -0.7556 -0.0480 -0.2238
10470TIP3    H152825   3.731   0.219  13.913 -0.9419  0.7018  0.3060
10470TIP3    H252826   3.636   0.275  13.809 -0.7110 -0.4588 -0.5590
10471TIP3   OH252827   6.009   5.066   4.366  0.7015 -0.0668 -0.6463
10471TIP3    H152828   6.002   5.144   4.311  0.8376 -0.3800 -1.1097
10471TIP3    H252829   5.945   5.005   4.330  2.0814 -0.9772 -1.6364
10472TIP3   OH252830   3.690   2.788  14.243 -0.1644  0.4647 -0.7334
10472TIP3    H152831   3.770   2.744  14.273  0.4000  1.2756 -1.0168
10472TIP3    H252832   3.709   2.881  14.252 -2.2902  0.7664  2.5151
10473TIP3   OH252833   6.409   4.263  14.153 -0.2523 -0.7056  0.4745
10473TIP3    H152834   6.490   4.240  14.198 -0.3525  0.7807  1.4935
10473TIP3    H252835   6.428   4.251  14.060  1.2382 -0.0714  0.6823
10474TIP3   OH252836   5.461   2.630   0.391  0.2189  0.2625 -0.0117
10474TIP3    H152837   5.487   2.541   0.368  1.1318  0.6472 -0.4989
10474TIP3    H252838   5.479   2.682   0.313  0.4349  1.0226  0.5275
10475TIP3   OH252839   5.487   5.923  12.128 -0.0568 -0.0509 -0.4697
10475TIP3    H152840   5.519   5.841  12.166 -3.3207 -0.3171  2.1274
10475TIP3    H252841   5.441   5.896  12.048 -1.2295 -0.8432  0.4392
10476TIP3   OH252842   1.983   6.343  13.754 -0.2825  0.3399  0.6620
10476TIP3    H152843   2.003   6.333  13.847 -0.7286 -0.5418  0.6707
10476TIP3    H252844   1.992   6.437  13.737 -1.4851  0.6958  1.8828
10477TIP3   OH252845   0.253   1.620  12.231 -0.2323 -0.6117 -0.0931
10477TIP3    H152846   0.316   1.587  12.294  0.6022 -1.7157 -1.4665
10477TIP3    H252847   0.285   1.708  12.209 -0.0349 -0.5723  0.3352
10478TIP3   OH252848   4.623   5.932  11.428 -0.0973  0.0836  0.5676
10478TIP3    H152849   4.556   5.984  11.472  0.4359  1.2803  0.0291
10478TIP3    H252850   4.575   5.863  11.382 -0.9363  0.7336  0.4469
10479TIP3   OH252851   6.420   1.804  16.628  0.2684  0.1495  0.8386
10479TIP3    H152852   6.328   1.829  16.636  0.4298  1.0109  0.1957
10479TIP3    H252853   6.448   1.843  16.546  1.1099 -0.4471  0.8298
10480TIP3   OH252854   4.722   6.104   2.898 -0.1424  0.1331  0.0138
10480TIP3    H152855   4.795   6.164   2.913  0.0736 -0.1255  0.0227
10480TIP3    H252856   4.712   6.057   2.981  0.1863 -0.3695 -0.2203
10481TIP3   OH252857   5.077   0.664   0.240 -0.1122 -0.3878 -0.0146
10481TIP3    H152858   5.012   0.602   0.274 -0.3335 -0.2006 -0.0955
10481TIP3    H252859   5.031   0.710   0.170  0.3549 -0.8063 -0.6077
10482TIP3   OH252860   2.673   3.484  13.163 -0.1890  0.7111  0.1918
10482TIP3    H152861   2.709   3.458  13.248 -1.0397  2.4348  1.1256
10482TIP3    H252862   2.581   3.459  13.167 -0.0970  0.2116 -0.5110
10483TIP3   OH252863   2.065   6.643  16.987  0.3959 -0.1014 -0.6354
10483TIP3    H152864   2.121   6.721  16.984  2.1081 -1.3110 -1.8750
10483TIP3    H252865   1.995   6.661  16.925  0.6764  0.5312 -0.7740
10484TIP3   OH252866   2.946   5.906   1.762 -0.3062 -0.5591  0.0424
10484TIP3    H152867   3.013   5.840   1.746  3.7925  3.0111  0.6867
10484TIP3    H252868   2.938   5.954   1.679  0.7627  1.2752  0.9363
10485TIP3   OH252869   6.553   3.345  11.704 -0.1771 -0.0362  0.5062
10485TIP3    H152870   6.616   3.377  11.768 -0.5709 -0.6397  1.2030
10485TIP3    H252871   6.604   3.289  11.645 -0.2631 -1.5677  1.8217
10486TIP3   OH252872   5.855   4.844  13.891 -0.2240  0.8818  0.1635
10486TIP3    H152873   5.765   4.813  13.880  0.9297 -1.9586 -2.4587
10486TIP3    H252874   5.888   4.793  13.965  0.3955 -1.3068 -1.5215
10487TIP3   OH252875   0.163   6.606   3.251 -0.2525  0.5413 -0.1827
10487TIP3    H152876   0.156   6.657   3.332 -0.5438  1.1297 -0.5667
10487TIP3    H252877   0.257   6.597   3.235 -0.1940  0.2574  0.3234
10488TIP3   OH252878   3.413   4.727   3.119 -0.5425 -0.4136  0.2468
10488TIP3    H152879   3.327   4.686   3.105 -0.8622  0.8451 -1.8682
10488TIP3    H252880   3.465   4.701   3.043  0.0019  1.1090  0.0544
10489TIP3   OH252881   6.490   2.628  10.268 -0.3170 -0.5919 -0.5744
10489TIP3    H152882   6.474   2.545  10.223 -0.3906 -0.4483 -0.8131
10489TIP3    H252883   6.419   2.635  10.332  0.1742 -1.1266  0.0398
10490TIP3   OH252884   1.708   6.205   0.663  0.3976  0.1131  0.4653
10490TIP3    H152885   1.719   6.297   0.640  0.9205 -0.5512 -2.2584
10490TIP3    H252886   1.621   6.183   0.631  0.3522 -0.3975  0.9289
10491TIP3   OH252887   1.846   1.625  13.993 -0.2182  0.5018  0.6498
10491TIP3    H152888   1.905   1.695  13.967  1.4765 -2.0681 -3.5227
10491TIP3    H252889   1.763   1.645  13.950 -0.4754  1.0223  1.3679
10492TIP3   OH252890   6.584   1.369   2.180 -0.6231 -0.4627  0.5986
10492TIP3    H152891   6.567   1.458   2.149 -1.0026 -0.2511  1.4076
10492TIP3    H252892   6.595   1.377   2.274  1.2413 -0.9960  0.4736
10493TIP3   OH252893   5.006   2.326  14.289  0.5972  0.4217 -0.2475
10493TIP3    H152894   5.007   2.265  14.363 -0.3070  1.6117  0.7999
10493TIP3    H252895   5.098   2.334  14.264  0.6397 -2.4336 -1.3973
10494TIP3   OH252896   5.561   4.141   3.899 -0.2069 -0.5890  0.5187
10494TIP3    H152897   5.561   4.056   3.856 -0.3500 -0.3923  0.1290
10494TIP3    H252898   5.519   4.125   3.984 -2.3736 -0.4713 -0.4422
10495TIP3   OH252899   0.913   0.168  12.200 -0.0085 -0.2129  0.4430
10495TIP3    H152900   0.948   0.136  12.117 -0.3622 -1.9369  0.9125
10495TIP3    H252901   0.990   0.196  12.249  0.1314  1.7330 -0.7727
10496TIP3   OH252902   4.825   0.004  16.351  0.0504 -0.3564 -0.6525
10496TIP3    H152903   4.789  -0.039  16.428 -0.0424 -0.9346 -1.0082
10496TIP3    H252904   4.918   0.014  16.371 -0.1364  0.3050 -0.1058
10497TIP3   OH252905   3.947   0.796   3.860 -0.0170  0.8445  0.3047
10497TIP3    H152906   3.998   0.793   3.940 -1.4444  0.5070  1.2347
10497TIP3    H252907   3.997   0.854   3.802  1.2402  0.7701  1.2741
10498TIP3   OH252908   4.104   6.573  11.861  0.0072 -0.5236  0.0358
10498TIP3    H152909   4.197   6.594  11.876 -0.8969  3.8733  0.7229
10498TIP3    H252910   4.068   6.563  11.949 -0.7594  1.3404 -0.0226
10499TIP3   OH252911   5.222   4.861   1.288  0.1397 -0.0911 -0.5339
10499TIP3    H152912   5.297   4.848   1.231 -0.1700  1.0420 -1.2379
10499TIP3    H252913   5.150   4.817   1.244 -0.2644  1.4011 -1.4395
10500TIP3   OH252914   4.284   5.125  16.692  0.2033  0.5466 -0.0819
10500TIP3    H152915   4.205   5.078  16.665  0.1626  1.3763 -1.5516
10500TIP3    H252916   4.354   5.087  16.638  0.1591  2.1470 -1.3296
10501TIP3   OH252917   6.527   1.855  15.224  0.5307 -0.5632 -0.2296
10501TIP3    H152918   6.463   1.867  15.294 -2.1118  1.4085 -2.7345
10501TIP3    H252919   6.529   1.761  15.209 -0.8512 -0.7895  0.7953
10502TIP3   OH252920   0.890   2.818  11.534 -0.4612  0.5752  0.5843
10502TIP3    H152921   0.907   2.726  11.511 -0.2573  0.2639  1.8855
10502TIP3    H252922   0.802   2.817  11.571 -0.8569  1.0926 -0.3260
10503TIP3   OH252923   3.692   6.299   1.684 -0.0308 -0.0445 -0.0551
10503TIP3    H152924   3.705   6.389   1.716  0.7692 -0.0388 -0.3856
10503TIP3    H252925   3.762   6.286   1.620 -0.8603 -0.4991 -0.8883
10504TIP3   OH252926   5.584   4.658   5.171 -0.4742 -0.7522  0.5150
10504TIP3    H152927   5.542   4.712   5.238 -0.3973 -1.5007  1.1722
10504TIP3    H252928   5.511   4.626   5.117 -0.7876 -2.0524  1.6535
10505TIP3   OH252929   1.293   4.265  12.182 -0.0660 -0.3579  0.8068
10505TIP3    H152930   1.316   4.176  12.155  0.2029 -0.6386  1.9183
10505TIP3    H252931   1.206   4.257  12.219 -0.5333  0.0703 -0.1608
10506TIP3   OH252932   3.170   4.646   4.728  0.2850 -0.3195 -0.1927
10506TIP3    H152933   3.098   4.586   4.713  0.0760 -0.1524  0.1260
10506TIP3    H252934   3.184   4.690   4.644  0.4937 -0.8717 -0.4472
10507TIP3   OH252935   0.905   6.055  16.069  0.0287 -0.4603 -0.1945
10507TIP3    H152936   0.831   6.112  16.088  0.1162 -0.1863 -0.6564
10507TIP3    H252937   0.981   6.114  16.069  0.1578 -0.6252 -0.3728
10508TIP3   OH252938   2.516   2.346   5.917 -0.0525  0.1533  0.1402
10508TIP3    H152939   2.432   2.301   5.924 -0.2049  0.5332  0.9099
10508TIP3    H252940   2.581   2.276   5.916 -0.3597 -0.1334 -0.1745
10509TIP3   OH252941   5.600   4.300   3.103 -0.8019  0.0188  0.1887
10509TIP3    H152942   5.583   4.329   3.013 -2.2784  0.6876  0.6563
10509TIP3    H252943   5.629   4.379   3.148  0.5195 -0.4373  0.1939
10510TIP3   OH252944   5.010   0.716   1.817 -0.1076  0.7880 -0.0093
10510TIP3    H152945   4.991   0.659   1.892 -0.0997  0.6655 -0.0998
10510TIP3    H252946   5.089   0.678   1.778 -1.4690 -0.6215 -1.5322
10511TIP3   OH252947   2.111   5.403  15.232  0.3069 -0.2277 -0.4318
10511TIP3    H152948   2.016   5.407  15.229  0.3176  1.0615  0.6224
10511TIP3    H252949   2.132   5.368  15.318  0.7955 -1.2864 -0.9543
10512TIP3   OH252950   6.344   1.501  16.693  0.3128  0.3842 -0.1077
10512TIP3    H152951   6.326   1.575  16.751 -0.6057  0.9783 -1.1197
10512TIP3    H252952   6.413   1.533  16.635 -1.2431  1.0892 -1.6446
10513TIP3   OH252953   5.291   5.413   0.998  0.4884 -0.2648 -0.4998
10513TIP3    H152954   5.341   5.360   1.060  0.4736  0.7768  0.4317
10513TIP3    H252955   5.200   5.395   1.019  0.4823 -0.0471 -0.3429
10514TIP3   OH252956   4.245   2.188   5.553  0.1156 -0.0641 -0.3790
10514TIP3    H152957   4.262   2.121   5.487 -1.0308 -0.9099  0.1276
10514TIP3    H252958   4.329   2.203   5.595  0.6920 -0.0963 -1.4868
10515TIP3   OH252959   3.221   6.000   3.136 -0.0640  0.1077  0.3369
10515TIP3    H152960   3.244   6.069   3.198 -0.0860  1.1040 -0.7373
10515TIP3    H252961   3.178   5.933   3.189 -1.7081  1.7242  1.1578
10516TIP3   OH252962   5.305   5.682  12.307  0.4166  0.0431 -0.6337
10516TIP3    H152963   5.397   5.703  12.297  0.5162  1.5391  2.2130
10516TIP3    H252964   5.261   5.767  12.308 -0.7160 -0.5200  0.0913
10517TIP3   OH252965   5.136   0.139  16.114 -0.7030 -0.3079 -0.1783
10517TIP3    H152966   5.226   0.164  16.134 -0.3706 -2.4759  1.3000
10517TIP3    H252967   5.102   0.104  16.196 -2.8066  0.1259 -0.8087
10518TIP3   OH252968   0.891   1.068   3.567  0.0378  0.1596  0.5089
10518TIP3    H152969   0.935   1.131   3.510  0.0390  0.4771  0.8529
10518TIP3    H252970   0.800   1.070   3.539  0.6252 -2.4637 -2.0128
10519TIP3   OH252971   2.353   2.023   2.134  0.4702 -0.5710  0.2491
10519TIP3    H152972   2.321   1.935   2.112 -1.0310 -0.3739  1.5195
10519TIP3    H252973   2.379   2.017   2.226  1.5403  0.0105  0.0035
10520TIP3   OH252974   2.720   0.033   0.510 -0.3110 -0.5437  1.2134
10520TIP3    H152975   2.640  -0.018   0.520 -0.9174  0.3706  1.1260
10520TIP3    H252976   2.690   0.122   0.491  0.7244 -0.1538  1.3296
10521TIP3   OH252977   1.974   3.193  17.197 -0.4840  0.5305 -0.0136
10521TIP3    H152978   1.902   3.234  17.148 -0.2269  1.3475  0.2700
10521TIP3    H252979   1.982   3.247  17.276  0.8658  0.8478 -0.3471
10522TIP3   OH252980   1.611   6.534   2.878  0.4472 -0.0967 -0.1017
10522TIP3    H152981   1.574   6.458   2.832 -0.6713  0.6103 -0.3909
10522TIP3    H252982   1.535   6.585   2.905  1.0568 -0.3002  2.2606
10523TIP3   OH252983   5.343   1.325   0.868 -0.7224 -0.2741 -0.4928
10523TIP3    H152984   5.375   1.285   0.788 -0.5288 -2.9333  0.8051
10523TIP3    H252985   5.402   1.294   0.937 -1.4112  1.1744  0.8377
10524TIP3   OH252986   5.646   3.467  14.731 -0.1027 -0.0445  0.2092
10524TIP3    H152987   5.657   3.452  14.825 -1.3564  0.0351  0.3792
10524TIP3    H252988   5.682   3.555  14.717  0.0724 -0.0462  0.6152
10525TIP3   OH252989   0.129   4.033  13.724  0.0889 -0.0826 -0.1107
10525TIP3    H152990   0.057   4.096  13.720 -0.4318 -0.7233 -1.8134
10525TIP3    H252991   0.100   3.960  13.668  1.5489 -0.9080  0.1500
10526TIP3   OH252992   3.884   3.073  13.184 -0.0015  0.5072  0.4642
10526TIP3    H152993   3.820   3.064  13.255  0.2606 -1.9986  0.4749
10526TIP3    H252994   3.872   2.995  13.131  0.6722  1.7276 -1.5756
10527TIP3   OH252995   5.629   0.432   0.493 -0.1233 -0.0065 -0.0246
10527TIP3    H152996   5.723   0.436   0.511 -0.2520 -0.0512  0.6970
10527TIP3    H252997   5.622   0.374   0.417  0.4176 -0.1205  0.0057
10528TIP3   OH252998   2.699   2.527  12.493 -0.0907 -0.0715 -0.4735
10528TIP3    H152999   2.709   2.518  12.398  1.0469 -0.9594 -0.2771
10528TIP3    H253000   2.778   2.572  12.521 -0.6887  0.7140  0.0013
10529TIP3   OH253001   6.020   0.960  17.119 -0.2400 -0.2518  0.6906
10529TIP3    H153002   6.097   1.010  17.093  0.4861 -1.4486  0.5082
10529TIP3    H253003   6.038   0.933  17.209 -0.8268  0.1753  0.9427
10530TIP3   OH253004   2.464   1.103   5.697  0.7344  0.5703 -0.2375
10530TIP3    H153005   2.519   1.142   5.765 -0.6919 -0.8960  1.8650
10530TIP3    H253006   2.379   1.147   5.706  0.4724  0.2293 -0.9359
10531TIP3   OH253007   3.379   1.617  12.453  0.2562 -0.2632 -0.3762
10531TIP3    H153008   3.396   1.645  12.543 -0.4370 -2.1803  0.4028
10531TIP3    H253009   3.283   1.622  12.445  0.2731 -0.6471 -0.8239
10532TIP3   OH253010   0.664   0.912   4.417 -0.6753 -0.6237  0.5308
10532TIP3    H153011   0.603   0.986   4.412  0.4484  0.2482 -1.5132
10532TIP3    H253012   0.728   0.939   4.483 -0.1297  0.3912 -0.3789
10533TIP3   OH253013   1.592   2.580   6.815 -0.1286  0.1348  0.1458
10533TIP3    H153014   1.668   2.522   6.824 -0.8262 -0.9935 -0.9304
10533TIP3    H253015   1.528   2.528   6.768 -0.4432  2.0998 -1.7379
10534TIP3   OH253016   4.346   5.816   2.492  0.2212 -0.3830 -0.4465
10534TIP3    H153017   4.402   5.808   2.415  0.4503  2.8719 -0.7721
10534TIP3    H253018   4.375   5.896   2.535 -0.9350 -1.2565  2.2226
10535TIP3   OH253019   0.886   2.534  11.990  0.6079 -0.4093 -0.2899
10535TIP3    H153020   0.872   2.559  11.899  1.2211 -0.8468 -0.5086
10535TIP3    H253021   0.812   2.573  12.037 -1.1436 -2.2704 -1.3301
10536TIP3   OH253022   1.131   1.965  13.719 -0.0706  0.4856 -0.6327
10536TIP3    H153023   1.177   1.920  13.648 -0.7241  1.9519 -2.0605
10536TIP3    H253024   1.055   1.910  13.738 -0.2646  0.3982 -1.5922
10537TIP3   OH253025   5.767   0.881  11.082 -0.8307  0.2012  0.4797
10537TIP3    H153026   5.735   0.966  11.113 -0.4440  0.6058 -0.1907
10537TIP3    H253027   5.692   0.844  11.035 -0.1480  1.5270 -1.8321
10538TIP3   OH253028   2.108   3.769  12.177  0.2215 -0.4469 -0.8613
10538TIP3    H153029   2.159   3.739  12.102  1.6060  1.3004 -0.6830
10538TIP3    H253030   2.054   3.841  12.143 -0.5341 -0.8567 -0.5648
10539TIP3   OH253031   6.709   2.108   3.033 -0.2346  0.0811  0.0303
10539TIP3    H153032   6.766   2.145   3.100  0.4183  0.1865 -0.5681
10539TIP3    H253033   6.658   2.042   3.079  1.3523 -1.0110  0.3225
10540TIP3   OH253034   6.011   0.334  12.381 -0.0588 -0.0075  0.5874
10540TIP3    H153035   5.917   0.350  12.381  0.2021  1.7083  0.7628
10540TIP3    H253036   6.032   0.318  12.289 -0.7238 -1.9359  0.7331
10541TIP3   OH253037   5.417   1.700  14.563  0.1338 -0.2601 -0.0293
10541TIP3    H153038   5.495   1.670  14.610 -0.3546  1.1974  1.8244
10541TIP3    H253039   5.430   1.794  14.553 -1.2400 -0.0516  0.0196
10542TIP3   OH253040   3.555   6.583  13.779  0.1172  0.6723  0.4242
10542TIP3    H153041   3.502   6.515  13.821  0.6596 -1.1693 -1.7014
10542TIP3    H253042   3.502   6.662  13.786 -2.1010 -0.7033  0.0054
10543TIP3   OH253043   2.479   6.739   0.646 -0.2419 -0.1925  0.0370
10543TIP3    H153044   2.512   6.790   0.720 -0.7562 -0.7224  0.6452
10543TIP3    H253045   2.451   6.656   0.685  0.9664 -1.1250 -0.9839
10544TIP3   OH253046   3.079   4.559  15.120 -0.7967 -0.5342 -0.1883
10544TIP3    H153047   3.117   4.575  15.206  1.2306 -0.6494 -0.9821
10544TIP3    H253048   3.098   4.640  15.071 -0.1349 -1.2085 -1.0803
10545TIP3   OH253049   0.795   4.093   5.455 -0.4410 -0.4730  0.2606
10545TIP3    H153050   0.822   4.157   5.521  0.6232 -1.2001  0.5482
10545TIP3    H253051   0.703   4.074   5.476 -0.9554  1.3288 -0.1529
10546TIP3   OH253052   6.771   6.294  15.398  0.2513 -0.0346  0.3270
10546TIP3    H153053   6.852   6.288  15.347 -1.2029  1.4653 -2.3509
10546TIP3    H253054   6.778   6.378  15.444  0.6119 -0.3531  0.8608
10547TIP3   OH253055   3.886   5.520   1.787  0.0102  0.3535  0.1894
10547TIP3    H153056   3.818   5.461   1.754 -0.6625  1.0210  0.3637
10547TIP3    H253057   3.942   5.463   1.840 -0.0678 -0.3227 -0.4316
10548TIP3   OH253058   4.052   4.679   3.799  0.4738  0.8913 -0.0781
10548TIP3    H153059   4.045   4.770   3.770 -2.1575  0.8327  0.0914
10548TIP3    H253060   4.056   4.685   3.894  0.0065  0.8435 -0.0518
10549TIP3   OH253061   5.376   2.234  15.308  0.5194 -0.6169 -0.3554
10549TIP3    H153062   5.328   2.276  15.379  1.8783 -1.3455  1.0867
10549TIP3    H253063   5.311   2.179  15.264 -0.5740  0.6040 -0.3170
10550TIP3   OH253064   6.182   0.412  12.577  0.1476 -0.4485 -0.3080
10550TIP3    H153065   6.156   0.399  12.485  1.0476 -1.8996 -0.4020
10550TIP3    H253066   6.107   0.454  12.618  0.7527  2.8716 -2.2960
10551TIP3   OH253067   5.583   1.527  12.718 -0.1256 -0.3561 -0.8280
10551TIP3    H153068   5.521   1.540  12.647  0.5303  3.5141 -0.8989
10551TIP3    H253069   5.541   1.462  12.775 -1.2371 -2.6419 -3.9484
10552TIP3   OH253070   0.461   5.151  12.579 -0.2352 -0.4005  0.2268
10552TIP3    H153071   0.552   5.181  12.581 -0.8492  1.7866 -1.0353
10552TIP3    H253072   0.412   5.224  12.540 -2.6098 -1.3541  1.1995
10553TIP3   OH253073   5.800   3.685  14.719 -0.1817 -0.8250 -0.0036
10553TIP3    H153074   5.740   3.745  14.764  0.4511  1.6395 -2.1573
10553TIP3    H253075   5.875   3.678  14.777 -0.6378 -0.1861  0.6840
10554TIP3   OH253076   2.877   3.179   3.119  0.0340  0.0143  0.4082
10554TIP3    H153077   2.806   3.156   3.178 -0.8220 -0.3845 -0.7556
10554TIP3    H253078   2.867   3.274   3.105 -1.2078 -0.2762 -0.9075
10555TIP3   OH253079   2.835   3.400   0.728  0.3675 -0.1098 -0.8127
10555TIP3    H153080   2.780   3.437   0.796 -0.1894 -0.6414 -0.9685
10555TIP3    H253081   2.823   3.458   0.652  1.8639  1.1548 -0.1557
10556TIP3   OH253082   1.887   1.569   3.056  0.2120  0.5133  0.7052
10556TIP3    H153083   1.812   1.509   3.062  0.3548 -0.1343 -2.2812
10556TIP3    H253084   1.954   1.530   3.112  0.9614 -3.3784 -2.3812
10557TIP3   OH253085   2.256   2.449  16.903 -0.0199 -0.2629  0.3003
10557TIP3    H153086   2.216   2.380  16.956  1.5694 -1.4245  0.0655
10557TIP3    H253087   2.184   2.507  16.879 -1.5336 -2.2254 -0.0706
10558TIP3   OH253088   5.199   3.821  14.979  0.2537  0.3153 -0.1556
10558TIP3    H153089   5.172   3.884  15.045 -2.2850 -0.7456 -0.0693
10558TIP3    H253090   5.205   3.873  14.898  0.7385  1.1248  0.3886
10559TIP3   OH253091   4.896   3.304  13.686  0.7552  0.3285  0.4599
10559TIP3    H153092   4.877   3.317  13.778 -0.3059  1.7997  0.0702
10559TIP3    H253093   4.940   3.385  13.659 -2.5074  1.7647 -1.1751
10560TIP3   OH253094   2.229   3.063   4.023  0.1285  0.3668 -0.0342
10560TIP3    H153095   2.198   2.973   4.030  1.7005 -0.1501  0.9641
10560TIP3    H253096   2.269   3.081   4.109 -1.0330  2.3766  0.1435
10561TIP3   OH253097   4.466   3.330   6.412  0.4838 -0.5023  0.1921
10561TIP3    H153098   4.415   3.249   6.416  0.3772 -0.4004  0.9799
10561TIP3    H253099   4.442   3.377   6.492  1.5599 -0.3025  0.4005
10562TIP3   OH253100   4.845   6.090   0.310 -0.1498 -0.3231 -0.3684
10562TIP3    H153101   4.925   6.083   0.362 -0.5736  1.5964  0.6205
10562TIP3    H253102   4.872   6.065   0.221  0.7773 -2.8123  0.5223
10563TIP3   OH253103   4.857   3.381  11.306  0.1585  0.5865  0.2981
10563TIP3    H153104   4.918   3.444  11.344 -1.0483  0.6290  2.2479
10563TIP3    H253105   4.910   3.303  11.289  1.4583  1.7339 -1.2606
10564TIP3   OH253106   4.656   4.472  13.209 -0.4727 -0.1155  0.0150
10564TIP3    H153107   4.575   4.477  13.159 -0.4008 -1.4856 -0.2883
10564TIP3    H253108   4.681   4.379  13.204  1.2473  0.3219 -0.1427
10565TIP3   OH253109   3.041   6.365  12.748 -0.0980  0.0474  0.7936
10565TIP3    H153110   3.032   6.441  12.690 -3.1667 -0.1316  0.8821
10565TIP3    H253111   3.024   6.289  12.691  1.7100 -0.5498  0.9739
10566TIP3   OH253112   3.758   3.532   6.014  0.2383 -0.1318  0.4745
10566TIP3    H153113   3.790   3.618   5.986  0.0837 -0.1481  0.2395
10566TIP3    H253114   3.775   3.529   6.108  0.0896  0.2224  0.5123
10567TIP3   OH253115   6.723   0.836  16.112  0.1156 -0.6768 -0.2427
10567TIP3    H153116   6.646   0.893  16.118  1.7095  1.4634  0.9302
10567TIP3    H253117   6.757   0.852  16.024  1.0502  0.9688  0.3669
10568TIP3   OH253118   3.180   1.877  12.017 -0.2264 -0.1832  0.3259
10568TIP3    H153119   3.257   1.834  11.980 -0.7030  0.0422 -0.9607
10568TIP3    H253120   3.177   1.962  11.974 -0.9213  0.0036  0.7322
10569TIP3   OH253121   5.760   1.913  16.786 -0.3905  0.2348  0.6905
10569TIP3    H153122   5.761   1.919  16.881  1.1088  0.3846  0.6954
10569TIP3    H253123   5.668   1.898  16.763 -0.6710 -0.5000  2.1916
10570TIP3   OH253124   3.260   2.225  11.969  0.2586 -0.2130 -0.2462
10570TIP3    H153125   3.202   2.300  11.985  1.2650  1.0879 -2.2052
10570TIP3    H253126   3.207   2.165  11.918  0.6817  1.2065 -2.4941
10571TIP3   OH253127   2.057   1.613  16.523 -0.8142  0.1723 -0.4757
10571TIP3    H153128   2.084   1.686  16.467  1.2456 -1.3065 -1.5669
10571TIP3    H253129   2.054   1.650  16.611 -0.2074  1.6574 -1.0514
10572TIP3   OH253130   1.263   6.474   4.731  0.2529  0.0059 -0.3355
10572TIP3    H153131   1.253   6.525   4.812  0.7260 -0.3965 -0.0243
10572TIP3    H253132   1.288   6.539   4.665  1.4957  0.0889  0.1994
10573TIP3   OH253133   2.655   3.727   1.301  0.2697 -0.3019 -0.2372
10573TIP3    H153134   2.597   3.793   1.338 -0.3347  0.8223 -3.0002
10573TIP3    H253135   2.601   3.681   1.236  1.8382 -0.7082 -1.3122
10574TIP3   OH253136   2.979   3.664   4.735  0.4242  0.9512 -0.7109
10574TIP3    H153137   2.947   3.578   4.762  2.3831 -0.5109 -2.5677
10574TIP3    H253138   2.907   3.703   4.686  0.0106 -0.3718 -1.2015
10575TIP3   OH253139   3.060   6.358  11.039 -0.1674  0.1054 -0.0673
10575TIP3    H153140   3.104   6.276  11.064 -1.1396  0.0919  1.8294
10575TIP3    H253141   2.993   6.370  11.107  0.0355  2.5356 -0.2133
10576TIP3   OH253142   6.098   4.371  10.538  0.0546  0.3018 -0.7388
10576TIP3    H153143   6.170   4.434  10.551  1.7202 -1.3818 -1.3097
10576TIP3    H253144   6.123   4.324  10.458 -0.6764 -1.6475  0.1499
10577TIP3   OH253145   1.827   0.927   4.556 -0.1828  0.4056 -0.2118
10577TIP3    H153146   1.766   0.854   4.568 -0.5963  0.7749 -0.0252
10577TIP3    H253147   1.794   0.996   4.614  1.0727  0.2147  0.7786
10578TIP3   OH253148   5.648   6.066  14.862 -0.3636  0.5488  0.2967
10578TIP3    H153149   5.613   5.994  14.914  1.7614 -0.3483  0.5932
10578TIP3    H253150   5.741   6.044  14.850 -0.0786  2.3246 -1.1824
10579TIP3   OH253151   0.310   4.821  15.849 -0.1492  0.7898  0.0376
10579TIP3    H153152   0.351   4.786  15.769  2.2744  0.0284  1.4889
10579TIP3    H253153   0.373   4.885  15.882 -1.5812  1.8524  0.8400
10580TIP3   OH253154   5.465   0.588  17.182 -0.6841 -0.3528 -0.4475
10580TIP3    H153155   5.394   0.605  17.243 -0.1203  1.2111 -0.1927
10580TIP3    H253156   5.432   0.518  17.125 -1.9760 -0.4279  0.3690
10581TIP3   OH253157   2.848   2.592   3.559  0.0250 -0.1417 -0.2230
10581TIP3    H153158   2.818   2.608   3.649  0.8133  2.5962 -0.3567
10581TIP3    H253159   2.777   2.624   3.504 -0.3636 -1.6207 -0.6066
10582TIP3   OH253160   1.502   4.706  14.193  0.4705 -0.8378  0.3591
10582TIP3    H153161   1.471   4.645  14.126  0.6384  0.2009 -0.6902
10582TIP3    H253162   1.528   4.650  14.266 -1.4372 -1.8960  0.2950
10583TIP3   OH253163   5.737   6.442  12.017 -0.4533  0.4013  0.3870
10583TIP3    H153164   5.652   6.401  12.035 -0.6879  0.1294 -1.2246
10583TIP3    H253165   5.731   6.471  11.926  1.3183  0.0093  0.1098
10584TIP3   OH253166   5.860   1.157   2.031 -0.3874  0.0126  0.6042
10584TIP3    H153167   5.766   1.141   2.019 -0.6398  1.6848  0.0656
10584TIP3    H253168   5.892   1.081   2.080 -2.2112 -0.1043  1.6859
10585TIP3   OH253169   5.799   1.597   2.394 -0.5530  0.0530  0.3512
10585TIP3    H153170   5.893   1.585   2.381 -0.3351  2.3823 -0.7216
10585TIP3    H253171   5.793   1.649   2.475 -0.7393  1.5378 -0.5709
10586TIP3   OH253172   3.549   1.206  12.681  0.0977  0.0820  0.0721
10586TIP3    H153173   3.562   1.112  12.697 -1.3763 -0.4765 -1.6942
10586TIP3    H253174   3.629   1.247  12.712  0.5087 -1.6786  1.5158
10587TIP3   OH253175   3.289   6.518   5.490 -0.1548 -0.1572 -0.3239
10587TIP3    H153176   3.266   6.468   5.568 -0.4798 -0.6786 -0.7556
10587TIP3    H253177   3.258   6.607   5.509  0.2348 -0.1542  0.3514
10588TIP3   OH253178   3.199   4.927  13.092  0.3360 -0.3783  0.4977
10588TIP3    H153179   3.122   4.984  13.086  0.7486  0.1047 -0.3879
10588TIP3    H253180   3.271   4.987  13.113  0.4839 -0.8258  1.3189
10589TIP3   OH253181   1.497   1.796  16.210 -0.3696  0.3850  0.3652
10589TIP3    H153182   1.557   1.843  16.152  1.2518 -0.2267  1.4956
10589TIP3    H253183   1.437   1.750  16.150  0.4498  0.7885 -0.7935
10590TIP3   OH253184   1.704   3.952   0.142  0.0338 -0.7508  0.2309
10590TIP3    H153185   1.665   3.891   0.204  0.2301  0.7791  1.9382
10590TIP3    H253186   1.794   3.963   0.171  0.3642 -0.6061 -0.8022
10591TIP3   OH253187   0.013   5.535  16.829  0.3220  0.2406 -0.2788
10591TIP3    H153188   0.044   5.624  16.846  0.3090  0.0473  0.8051
10591TIP3    H253189  -0.069   5.527  16.879  0.4339 -0.4470 -0.1858
10592TIP3   OH253190   2.961   0.375   0.788  0.3348 -0.1735 -0.0208
10592TIP3    H153191   3.029   0.436   0.758 -1.4741  3.2391  2.1570
10592TIP3    H253192   2.958   0.307   0.721  3.2198  1.5764 -2.1398
10593TIP3   OH253193   4.348   0.249   5.820 -0.1521 -0.3856  0.1724
10593TIP3    H153194   4.394   0.235   5.903 -1.0577  2.3258  1.2488
10593TIP3    H253195   4.339   0.161   5.782  1.6374 -1.5297  2.1849
10594TIP3   OH253196   5.557   2.539  13.912 -0.1988 -0.4320 -0.4570
10594TIP3    H153197   5.607   2.493  13.979 -0.2059 -0.8431 -0.7306
10594TIP3    H253198   5.483   2.481  13.893 -0.3129 -0.2210 -0.6675
10595TIP3   OH253199   1.813   2.736   2.047 -0.0235  0.0014  0.2871
10595TIP3    H153200   1.811   2.758   1.954 -2.2150  1.1598  0.5400
10595TIP3    H253201   1.903   2.753   2.074  0.4418  0.4349 -1.4352
10596TIP3   OH253202   1.261   1.876   2.191 -0.4069  0.2692  0.0391
10596TIP3    H153203   1.353   1.888   2.168  0.0567  0.5312  1.8724
10596TIP3    H253204   1.232   1.801   2.138  0.7930  0.2871 -0.6753
10597TIP3   OH253205   2.457   2.698   3.948 -0.7291  0.2037 -0.0756
10597TIP3    H153206   2.505   2.753   4.010  0.7122  0.5323 -1.4401
10597TIP3    H253207   2.493   2.611   3.959 -0.2277  0.3298 -0.6746
10598TIP3   OH253208   5.609   0.392  16.360 -0.5021  0.4898  0.0448
10598TIP3    H153209   5.669   0.456  16.324 -1.1031  0.6380 -0.7241
10598TIP3    H253210   5.614   0.317  16.300  0.7489 -0.5046  1.3392
10599TIP3   OH253211   5.290   1.808  12.864 -0.0270 -0.6549  0.1409
10599TIP3    H153212   5.318   1.895  12.836  0.1252 -1.2467 -1.7280
10599TIP3    H253213   5.332   1.795  12.949 -0.6897  1.3803  0.8303
10600TIP3   OH253214   5.416   5.884  16.654 -0.2182  0.0438  0.5020
10600TIP3    H153215   5.482   5.891  16.723  1.3089  0.9559 -0.9670
10600TIP3    H253216   5.389   5.974  16.637 -0.4831 -0.1601 -0.1893
10601TIP3   OH253217   1.852   4.681   1.515 -0.0695 -0.8225  0.1279
10601TIP3    H153218   1.881   4.592   1.535  2.0488  0.0491  1.2489
10601TIP3    H253219   1.865   4.690   1.421 -0.6077 -1.7667 -0.0533
10602TIP3   OH253220   5.607   3.529  12.472  0.2938 -0.0370 -0.4568
10602TIP3    H153221   5.578   3.592  12.407  1.1532  0.3399 -0.4945
10602TIP3    H253222   5.648   3.583  12.540  0.8235 -0.5288 -0.3791
10603TIP3   OH253223   5.762   4.159  13.189 -0.2562 -0.2410  0.2938
10603TIP3    H153224   5.825   4.176  13.259 -0.1842 -0.9784  0.4157
10603TIP3    H253225   5.730   4.246  13.164 -0.4958  0.0144  1.4321
10604TIP3   OH253226   5.186   6.081  13.577 -0.3542  0.3145  0.1827
10604TIP3    H153227   5.279   6.094  13.563  0.0345 -2.4008 -0.4306
10604TIP3    H253228   5.168   6.118  13.663  0.7335  2.9498 -0.6411
10605TIP3   OH253229   2.465   2.635  11.350 -0.6832  0.4702  0.1839
10605TIP3    H153230   2.440   2.629  11.258  1.7248  2.2810 -0.6813
10605TIP3    H253231   2.384   2.657  11.396 -1.8667 -0.1656 -1.5069
10606TIP3   OH253232   5.146   2.333  17.252  0.2613 -0.4751  0.4807
10606TIP3    H153233   5.226   2.355  17.300  0.9780 -1.1241 -0.3761
10606TIP3    H253234   5.177   2.293  17.171 -0.9181  0.2760 -0.3798
10607TIP3   OH253235   5.120   5.947   1.642 -0.3946  0.2265 -0.0140
10607TIP3    H153236   5.047   6.009   1.643  0.4442  1.2573  1.1998
10607TIP3    H253237   5.197   6.001   1.624  0.5322 -0.1952  2.3456
10608TIP3   OH253238   1.256   0.399   4.109  0.1612 -0.0026  0.0626
10608TIP3    H153239   1.342   0.391   4.150  0.6707  0.7269 -0.8356
10608TIP3    H253240   1.223   0.309   4.105  1.5415 -0.4920 -0.9508
10609TIP3   OH253241   2.832   0.936  12.272 -0.2702 -0.5512 -0.0149
10609TIP3    H153242   2.901   0.920  12.207 -0.3256  2.5462 -1.0357
10609TIP3    H253243   2.875   0.989  12.340 -1.4400  1.0233 -0.4308
10610TIP3   OH253244   4.384   5.992   3.780  0.3731  0.0728 -0.7264
10610TIP3    H153245   4.385   5.948   3.865 -0.1517 -0.1038 -0.8092
10610TIP3    H253246   4.427   6.076   3.796 -1.9652  1.1639  0.3399
10611TIP3   OH253247   3.618   4.310  14.266  0.2407 -0.2588 -0.4631
10611TIP3    H153248   3.659   4.346  14.187  0.1666  1.6493  0.3310
10611TIP3    H253249   3.612   4.384  14.326 -1.7095 -1.1684  0.5340
10612TIP3   OH253250   5.704   4.770  14.193  0.2146  0.0308 -0.4065
10612TIP3    H153251   5.621   4.735  14.227  0.1263  0.8704  0.2658
10612TIP3    H253252   5.694   4.865  14.199  2.2331  0.1879  2.1878
10613TIP3   OH253253   6.658   1.449   0.543  0.0220 -0.2773 -0.0002
10613TIP3    H153254   6.599   1.514   0.582 -0.1452 -1.4437  1.8019
10613TIP3    H253255   6.726   1.436   0.609  1.3661 -0.2366 -1.3299
10614TIP3   OH253256   2.133   2.501  13.450 -0.4894  0.1083 -0.2245
10614TIP3    H153257   2.129   2.408  13.430  2.0673 -0.0077 -0.4397
10614TIP3    H253258   2.216   2.531  13.414  0.0935  1.8536  2.2456
10615TIP3   OH253259   0.301   3.690   0.313  1.2031  0.2844  0.1537
10615TIP3    H153260   0.247   3.764   0.340 -0.8540 -1.1920  0.3644
10615TIP3    H253261   0.244   3.613   0.325  2.6924 -1.1817 -1.5052
10616TIP3   OH253262   1.984   2.141  16.557  0.2077  0.2586  0.4916
10616TIP3    H153263   1.890   2.153  16.547  0.4690  1.7254 -0.5616
10616TIP3    H253264   1.997   2.135  16.652 -1.1252 -2.0620  0.5919
10617TIP3   OH253265   0.362   5.407   1.574  0.0739 -0.1174 -0.6405
10617TIP3    H153266   0.352   5.370   1.486  1.7607 -0.9668 -0.5147
10617TIP3    H253267   0.401   5.493   1.559 -3.2713  1.4965 -0.8950
10618TIP3   OH253268   0.628   0.034   1.773  0.4100  0.1628 -0.0294
10618TIP3    H153269   0.579  -0.023   1.714  1.2968 -0.1057 -0.5195
10618TIP3    H253270   0.574   0.113   1.782  0.2107  0.1568 -1.1007
10619TIP3   OH253271   3.263   0.898  15.642 -0.0369  0.1512  0.0855
10619TIP3    H153272   3.266   0.969  15.578 -1.5587  1.8269  1.7420
10619TIP3    H253273   3.181   0.852  15.624 -1.2230  1.5219  1.5867
10620TIP3   OH253274   3.659   5.812  12.569  0.0914  0.1593  0.6974
10620TIP3    H153275   3.739   5.770  12.538  0.1020  0.7288 -0.0846
10620TIP3    H253276   3.645   5.776  12.656  0.0401 -1.5246  0.0198
10621TIP3   OH253277   0.734   5.224  12.609  0.4606 -0.1984  0.6695
10621TIP3    H153278   0.722   5.305  12.561  2.5335  0.2961  0.8643
10621TIP3    H253279   0.817   5.188  12.575 -0.0505 -1.8708  1.0831
10622TIP3   OH253280   4.346   5.762   5.220 -0.1356 -0.3773 -0.4214
10622TIP3    H153281   4.330   5.779   5.127 -0.0449 -0.7173 -0.5015
10622TIP3    H253282   4.270   5.711   5.249  1.1189 -2.7051 -1.0050
10623TIP3   OH253283   0.440   5.898  11.280  0.2380  0.6763 -0.3500
10623TIP3    H153284   0.464   5.931  11.193 -1.2496  0.6986 -0.7747
10623TIP3    H253285   0.426   5.977  11.332  1.4133  0.6640  0.0206
10624TIP3   OH253286   5.585   5.018  14.853 -0.2381 -0.3769 -0.1050
10624TIP3    H153287   5.509   4.960  14.854  0.3568 -1.1886 -0.8222
10624TIP3    H253288   5.555   5.097  14.898 -1.7376 -0.3877 -1.0196
10625TIP3   OH253289   4.923   1.753  12.261  0.4154 -0.2414  0.1564
10625TIP3    H153290   4.900   1.663  12.238  0.8833 -0.5252  0.7657
10625TIP3    H253291   5.006   1.745  12.308  0.2929  0.4812  0.5040
10626TIP3   OH253292   1.457   5.893  10.950 -0.1529  0.3657 -0.3486
10626TIP3    H153293   1.460   5.816  11.007 -0.3155  0.6056 -0.0141
10626TIP3    H253294   1.521   5.953  10.988  1.0543 -0.1653 -1.4453
10627TIP3   OH253295   0.057   2.708   2.632  0.1838  0.5812 -0.2111
10627TIP3    H153296   0.138   2.664   2.606 -0.1590 -0.4529  0.3938
10627TIP3    H253297   0.085   2.795   2.661  0.8353  0.9695 -1.8444
10628TIP3   OH253298   3.513   2.387   0.468 -0.3725  0.4601  0.3687
10628TIP3    H153299   3.494   2.325   0.397 -1.8737 -0.0661  1.1846
10628TIP3    H253300   3.451   2.458   0.455 -0.6121  0.3936  1.1168
10629TIP3   OH253301   4.184   1.254   2.404 -0.1463  0.5905  0.0461
10629TIP3    H153302   4.244   1.303   2.459  0.5471  0.0755 -0.2406
10629TIP3    H253303   4.197   1.290   2.316  1.4142 -1.0289 -0.4381
10630TIP3   OH253304   6.329   3.302   6.532  0.6988 -0.0656  0.4954
10630TIP3    H153305   6.315   3.209   6.548  0.4080 -0.0643  0.2381
10630TIP3    H253306   6.315   3.343   6.618 -0.7258 -0.0784  0.2897
10631TIP3   OH253307   3.877   1.646  16.849 -0.3180  0.0437 -0.3166
10631TIP3    H153308   3.878   1.574  16.786 -0.5720  1.5365 -2.1047
10631TIP3    H253309   3.859   1.724  16.796  0.5168  1.5089  1.4572
10632TIP3   OH253310   0.650   5.298   0.955  0.2778 -0.3990 -0.1423
10632TIP3    H153311   0.680   5.246   0.881 -0.6224 -0.8536 -0.2031
10632TIP3    H253312   0.668   5.243   1.031 -1.7624 -1.3798 -0.2927
10633TIP3   OH253313   6.046   2.764  17.120  0.6842  0.3513 -0.2561
10633TIP3    H153314   6.001   2.709  17.055 -0.4613  1.2282 -0.2211
10633TIP3    H253315   6.019   2.853  17.099  2.9096  1.0152 -0.6305
10634TIP3   OH253316   2.154   0.028   1.596  0.3988  0.1186  0.3160
10634TIP3    H153317   2.169   0.123   1.594 -0.9044  0.3543 -1.4715
10634TIP3    H253318   2.231  -0.009   1.552  0.6838  0.3960  0.5797
10635TIP3   OH253319   4.379   6.130   3.488  0.3114 -0.1581 -0.3694
10635TIP3    H153320   4.334   6.214   3.498  1.5770  0.6040 -0.7997
10635TIP3    H253321   4.316   6.074   3.442  0.5029  1.5616 -2.9491
10636TIP3   OH253322   1.968   6.475  16.631 -0.8883  0.2264 -0.6416
10636TIP3    H153323   1.986   6.382  16.639  0.2377  0.3944 -0.9892
10636TIP3    H253324   1.881   6.486  16.668 -0.9430 -0.9231 -0.3863
10637TIP3   OH253325   2.543   1.976  16.219 -0.3007  0.3504 -0.4057
10637TIP3    H153326   2.516   1.886  16.236  0.7323 -0.5296 -2.9577
10637TIP3    H253327   2.623   1.988  16.270 -0.1404 -0.3617 -0.4932
10638TIP3   OH253328   6.518   2.658  16.664 -0.2250  0.0733  0.4925
10638TIP3    H153329   6.557   2.668  16.578  1.0627  1.4823  1.1952
10638TIP3    H253330   6.559   2.580  16.700 -2.0901 -1.5935 -0.7981
10639TIP3   OH253331   6.530   3.262   5.736  0.4507  0.4595  0.1292
10639TIP3    H153332   6.435   3.251   5.736  0.6838 -2.5975 -1.1979
10639TIP3    H253333   6.550   3.302   5.821 -1.8798 -0.5551  1.2323
10640TIP3   OH253334   3.793   0.009  13.676 -0.5503  0.2175  0.1032
10640TIP3    H153335   3.831   0.064  13.745 -0.0438  1.7218 -1.3057
10640TIP3    H253336   3.741  -0.056  13.723  1.6883 -0.3462  1.9996
10641TIP3   OH253337   5.576   5.786  15.554  0.2329 -0.4503 -0.5291
10641TIP3    H153338   5.573   5.691  15.548  2.0510 -0.7937  2.3446
10641TIP3    H253339   5.642   5.812  15.490 -1.7317 -0.7980 -2.8515
10642TIP3   OH253340   5.289   3.155   0.948 -0.1971  0.2435  0.5434
10642TIP3    H153341   5.356   3.159   1.017  0.2158 -3.0824  0.4967
10642TIP3    H253342   5.337   3.171   0.867  0.7831 -2.6406  0.4553
10643TIP3   OH253343   0.700   0.774   3.807 -0.2213 -0.1589 -0.3909
10643TIP3    H153344   0.612   0.795   3.837 -0.0719  0.9701 -0.7122
10643TIP3    H253345   0.692   0.688   3.767 -0.6990 -1.1547  1.6711
10644TIP3   OH253346   4.092   4.766   0.534  0.0241 -0.2261 -0.3415
10644TIP3    H153347   4.169   4.776   0.478 -1.4928 -1.0035 -2.6767
10644TIP3    H253348   4.026   4.823   0.495 -0.8549 -0.1449  1.1770
10645TIP3   OH253349   5.077   3.592  10.975  0.4589  0.1204 -0.5240
10645TIP3    H153350   5.158   3.623  11.015 -0.0298  0.1960  0.4511
10645TIP3    H253351   5.101   3.511  10.930  0.9676 -0.2042  0.3017
10646TIP3   OH253352   2.243   0.999   1.206  0.4090  0.0602  0.7837
10646TIP3    H153353   2.312   0.974   1.268  2.9590 -0.8155 -2.1471
10646TIP3    H253354   2.208   0.916   1.173 -0.8093  0.5048  0.8889
10647TIP3   OH253355   0.106   4.437   0.308  0.0980  0.2946 -0.6590
10647TIP3    H153356   0.194   4.421   0.273 -0.3179  0.4786 -1.8284
10647TIP3    H253357   0.087   4.527   0.281  0.0567  0.7297  0.7275
10648TIP3   OH253358   5.380   3.472  16.787 -0.2054  0.1890 -0.2321
10648TIP3    H153359   5.316   3.402  16.802 -0.2108  0.3952  0.7370
10648TIP3    H253360   5.352   3.511  16.704  0.7185 -1.9307 -1.6564
10649TIP3   OH253361   3.137   4.696  12.734  0.0669 -0.3668  0.5075
10649TIP3    H153362   3.097   4.740  12.659 -0.0908 -1.7166 -0.2455
10649TIP3    H253363   3.074   4.707  12.805  0.2240  0.9456  0.4691
10650TIP3   OH253364   2.965   4.373  15.914  0.2765  0.0210 -0.4145
10650TIP3    H153365   3.042   4.320  15.936  1.8021  2.3097  0.1065
10650TIP3    H253366   2.900   4.349  15.980  1.9080  0.7500  1.5770
10651TIP3   OH253367   4.516   1.620   0.672  0.1157  0.7354  0.3552
10651TIP3    H153368   4.604   1.585   0.688  0.3587  1.2397  0.1434
10651TIP3    H253369   4.469   1.604   0.754  0.0563 -0.5634  0.0816
10652TIP3   OH253370   3.564   2.625  15.275 -0.0453  0.4626  0.1545
10652TIP3    H153371   3.502   2.561  15.312 -1.5461  0.8860 -1.4805
10652TIP3    H253372   3.592   2.585  15.192  2.3768  0.0328  1.0940
10653TIP3   OH253373   2.200   0.615  15.758 -0.6032  0.3415 -0.2779
10653TIP3    H153374   2.223   0.531  15.798 -1.6040  0.0869 -0.2176
10653TIP3    H253375   2.198   0.597  15.664  1.3308  0.8397 -0.4606
10654TIP3   OH253376   3.665   3.543  12.291  0.1450  0.5795 -0.5480
10654TIP3    H153377   3.713   3.542  12.374  0.7934  0.0870 -0.9296
10654TIP3    H253378   3.692   3.464  12.246 -0.0543  0.9456 -1.3297
10655TIP3   OH253379   2.982   6.276   5.527 -0.9798 -0.6173 -0.3039
10655TIP3    H153380   3.020   6.334   5.594  0.5432 -2.0036  0.0857
10655TIP3    H253381   2.890   6.267   5.553 -0.4401 -1.1006  1.6395
10656TIP3   OH253382   6.656   5.776  15.107  0.9494  0.0188 -0.0102
10656TIP3    H153383   6.594   5.707  15.084  0.7099  0.1650  0.2001
10656TIP3    H253384   6.649   5.839  15.036 -0.8540  1.1966  1.1370
10657TIP3   OH253385   0.535   1.747  14.068 -0.1951  0.0678 -0.0962
10657TIP3    H153386   0.458   1.723  14.016 -1.5787  1.1204  1.3576
10657TIP3    H253387   0.516   1.713  14.155  1.5158 -0.5928  0.0428
10658TIP3   OH253388   5.948   1.417  14.904 -0.6304  0.1524 -0.6219
10658TIP3    H153389   5.867   1.462  14.929 -1.6188 -1.6276 -0.4819
10658TIP3    H253390   5.967   1.449  14.816 -3.1383 -1.5221 -1.8689
10659TIP3   OH253391   0.993   6.768   3.996 -0.0293 -0.0862 -0.1273
10659TIP3    H153392   0.949   6.825   3.933  1.8489 -0.8093 -2.2721
10659TIP3    H253393   0.990   6.681   3.955  4.6575  0.0595 -1.4100
10660TIP3   OH253394   1.561   0.797   2.466 -0.5940 -0.1344 -0.0129
10660TIP3    H153395   1.545   0.888   2.489 -0.5299  0.3949 -1.8864
10660TIP3    H253396   1.496   0.747   2.514 -2.0407  1.1185 -0.6051
10661TIP3   OH253397   3.931   4.364   3.007  0.1887  0.0728  0.6697
10661TIP3    H153398   3.971   4.451   3.016  1.4341 -0.4943  0.9514
10661TIP3    H253399   3.876   4.371   2.929  0.8917  0.9051  0.2212
10662TIP3   OH253400   4.820   4.681  17.221 -0.6793 -0.1430  0.7181
10662TIP3    H153401   4.788   4.715  17.138 -0.9884 -0.0922  0.8575
10662TIP3    H253402   4.742   4.652  17.267 -0.4984 -0.2650  0.9496
10663TIP3   OH253403   4.528   6.226   3.843  0.1055 -0.1430  0.5208
10663TIP3    H153404   4.587   6.263   3.909  1.6387  1.1156 -1.4458
10663TIP3    H253405   4.578   6.227   3.762 -2.1233 -0.4409 -0.9656
10664TIP3   OH253406   0.737   1.202   3.772  0.0997  0.4149 -0.1190
10664TIP3    H153407   0.771   1.115   3.793 -1.2993 -0.4614 -1.2721
10664TIP3    H253408   0.808   1.245   3.723  0.4939 -0.3974 -0.2751
10665TIP3   OH253409   1.688   1.010  12.699 -0.6080 -0.2675  0.6243
10665TIP3    H153410   1.673   1.044  12.611 -0.1463  0.9264  0.9896
10665TIP3    H253411   1.779   1.033  12.718 -0.7945 -0.2403  1.5259
10666TIP3   OH253412   2.362   3.457  12.324  0.2717 -0.2819 -0.3936
10666TIP3    H153413   2.382   3.370  12.359  0.0398  0.0688  0.6246
10666TIP3    H253414   2.310   3.500  12.392  0.7903  0.8357 -0.6712
10667TIP3   OH253415   4.674   1.306   2.486  0.0288 -0.1211  0.2799
10667TIP3    H153416   4.763   1.337   2.504  0.0013  0.1408 -0.0223
10667TIP3    H253417   4.684   1.242   2.416 -0.1148  0.5735 -0.3866
10668TIP3   OH253418   3.983   6.385  12.671 -0.2695 -0.0342  0.7040
10668TIP3    H153419   3.970   6.312  12.731 -2.3089  0.4600  0.9535
10668TIP3    H253420   3.919   6.450  12.700  0.3234  1.1505 -0.5791
10669TIP3   OH253421   6.370   5.558   1.432  0.2992 -0.2525  0.2212
10669TIP3    H153422   6.371   5.562   1.528 -0.2417  3.9232  0.2312
10669TIP3    H253423   6.448   5.606   1.405 -1.7741  2.5977 -1.2595
10670TIP3   OH253424   0.788   5.682  17.242 -0.1524 -0.4250 -0.0525
10670TIP3    H153425   0.863   5.648  17.192  1.9174  2.4601  0.8471
10670TIP3    H253426   0.824   5.701  17.328 -1.9798  0.9176  0.4668
10671TIP3   OH253427   3.383   5.144  14.212  0.2997  0.1937  0.3077
10671TIP3    H153428   3.463   5.172  14.167  2.0345 -1.4503  2.1501
10671TIP3    H253429   3.397   5.051  14.231 -2.0586 -0.1382  0.7430
10672TIP3   OH253430   4.064   3.238   1.443  0.3771 -0.0755  0.1763
10672TIP3    H153431   3.988   3.261   1.388  0.3032  0.9658  0.6949
10672TIP3    H253432   4.137   3.284   1.402  0.9432 -1.7489 -0.8278
10673TIP3   OH253433   0.826   3.626  10.894  0.1070 -0.1427 -0.8250
10673TIP3    H153434   0.861   3.654  10.809 -0.1756  2.3007 -0.2094
10673TIP3    H253435   0.731   3.632  10.884  0.0304 -0.9889 -0.6761
10674TIP3   OH253436   2.385   0.222   3.069  0.1095  0.6121 -1.0052
10674TIP3    H153437   2.294   0.195   3.058  0.1404  1.2692 -3.4654
10674TIP3    H253438   2.383   0.317   3.061  0.9241  0.7289 -0.0443
10675TIP3   OH253439   0.150   6.409   0.007 -0.5295 -0.7002 -0.1828
10675TIP3    H153440   0.114   6.374  -0.075  0.6321 -0.5917 -0.7555
10675TIP3    H253441   0.116   6.351   0.075  0.6816 -2.4770 -1.0173
10676TIP3   OH253442   3.297   1.903  17.093  0.6986 -0.2216 -0.5089
10676TIP3    H153443   3.274   1.990  17.127 -0.8303 -0.5837 -0.5262
10676TIP3    H253444   3.254   1.898  17.008 -0.4880 -1.5106  0.1163
10677TIP3   OH253445   6.400   3.274  15.723  0.0186 -0.1276 -0.6885
10677TIP3    H153446   6.309   3.288  15.751 -0.7184 -1.4548 -2.2788
10677TIP3    H253447   6.451   3.332  15.780 -1.6512 -0.4940  1.3151
10678TIP3   OH253448   3.603   5.660  11.355  0.0502 -0.3620 -0.3071
10678TIP3    H153449   3.609   5.750  11.323 -0.7242 -0.8775 -1.9715
10678TIP3    H253450   3.691   5.642  11.391  0.0602  1.2111  0.5930
10679TIP3   OH253451   5.495   6.024   1.883 -0.4847 -0.1407 -0.3311
10679TIP3    H153452   5.457   6.040   1.969 -0.8481  1.0103 -0.6976
10679TIP3    H253453   5.500   5.928   1.878 -2.1110 -0.2995  0.2547
10680TIP3   OH253454   5.329   4.055   5.390  0.4615 -0.6799 -0.1018
10680TIP3    H153455   5.352   4.009   5.471  2.3985 -1.1691 -0.8667
10680TIP3    H253456   5.363   3.999   5.320 -2.0962 -0.7932 -1.3615
10681TIP3   OH253457   1.890   2.065  16.133  0.1116  0.1462  0.6132
10681TIP3    H153458   1.818   2.111  16.176 -0.3275 -2.2889  2.7415
10681TIP3    H253459   1.893   1.980  16.177  1.0655 -1.7574 -2.7930
10682TIP3   OH253460   1.299   3.349  14.174 -0.2730 -0.0457  0.3720
10682TIP3    H153461   1.218   3.299  14.174 -0.6011  0.4302  1.7492
10682TIP3    H253462   1.301   3.392  14.089 -1.3240 -0.3120  0.2008
10683TIP3   OH253463   0.799   6.552   6.296  0.2445 -0.4851 -0.5572
10683TIP3    H153464   0.827   6.476   6.347 -1.0583 -0.8116 -0.2838
10683TIP3    H253465   0.712   6.572   6.330  0.0882  0.4033 -1.4464
10684TIP3   OH253466   4.700   2.958   2.098  0.3728  0.4168  0.0108
10684TIP3    H153467   4.612   2.988   2.077  0.1093  0.3043  0.8947
10684TIP3    H253468   4.734   2.923   2.016 -0.5968 -0.0068 -0.2278
10685TIP3   OH253469   5.752   2.566  13.720 -0.4220  0.3643 -0.1715
10685TIP3    H153470   5.683   2.588  13.783 -0.9452 -0.0690 -0.5762
10685TIP3    H253471   5.761   2.644  13.666  1.0953  1.3100  1.3551
10686TIP3   OH253472   1.710   3.047   2.346  0.2721 -0.2227  0.5807
10686TIP3    H153473   1.763   3.091   2.280  0.4127  1.8323  1.9514
10686TIP3    H253474   1.634   3.013   2.298  1.2271 -0.3623 -0.8770
10687TIP3   OH253475   5.375   6.519  11.872  0.3500  0.2310  0.0781
10687TIP3    H153476   5.293   6.471  11.863  0.7970 -0.2136 -2.2074
10687TIP3    H253477   5.350   6.611  11.859  0.4138 -0.0662 -2.5417
10688TIP3   OH253478   3.367   2.318   4.967  0.1478 -0.2521 -0.0908
10688TIP3    H153479   3.338   2.259   5.036  3.7321  0.6296  2.4461
10688TIP3    H253480   3.315   2.398   4.979 -2.4473 -1.6088 -1.5015
10689TIP3   OH253481   1.213   1.654  16.752 -0.0041  0.5632  0.5921
10689TIP3    H153482   1.147   1.614  16.808 -0.8667  0.1151 -0.7074
10689TIP3    H253483   1.294   1.608  16.773 -0.7857 -1.2746 -0.2175
10690TIP3   OH253484   2.472   0.357   6.577 -0.2068 -0.1651  0.0798
10690TIP3    H153485   2.516   0.419   6.519 -3.6871  2.6798  0.1250
10690TIP3    H253486   2.497   0.385   6.665 -1.7135  1.2952  0.0970
10691TIP3   OH253487   2.348   2.782  15.626  0.4026 -0.3397  0.1799
10691TIP3    H153488   2.291   2.783  15.549  0.2418  0.8422  0.2969
10691TIP3    H253489   2.296   2.823  15.695  0.3925 -1.7616  1.0482
10692TIP3   OH253490   4.708   2.362   5.090 -0.3108  0.4747 -0.0758
10692TIP3    H153491   4.661   2.290   5.049  1.1919 -1.1703  0.9419
10692TIP3    H253492   4.662   2.376   5.173  0.6058 -0.8219  0.7046
10693TIP3   OH253493   3.887   5.399  12.119 -0.2267  0.2998 -0.6575
10693TIP3    H153494   3.853   5.347  12.046 -0.1932  1.5573 -1.5978
10693TIP3    H253495   3.971   5.432  12.089 -0.0328  0.5226  0.0995
10694TIP3   OH253496   1.261   0.877   0.847 -0.3535 -0.1243 -0.1055
10694TIP3    H153497   1.237   0.827   0.925  2.0717 -0.5509  0.4507
10694TIP3    H253498   1.270   0.811   0.778  1.1538 -0.2929  0.2114
10695TIP3   OH253499   0.159   3.162   6.232  0.5066  0.2157  0.5871
10695TIP3    H153500   0.092   3.144   6.298  0.6422 -0.9318  0.4356
10695TIP3    H253501   0.109   3.175   6.151  0.4548 -1.3023  0.3335
10696TIP3   OH253502   4.490   1.068  13.247 -0.0210 -0.3146 -0.1081
10696TIP3    H153503   4.476   1.037  13.336 -0.8394 -0.4618 -0.2780
10696TIP3    H253504   4.430   1.142  13.237  1.7332  1.2340  0.2136
10697TIP3   OH253505   4.426   6.591   0.822 -0.0012  0.1061 -0.3024
10697TIP3    H153506   4.340   6.554   0.842  0.0344  0.4193  0.4638
10697TIP3    H253507   4.422   6.612   0.729 -0.3835 -0.8467 -0.5110
10698TIP3   OH253508   3.180   3.838   4.738 -0.2296 -0.1198 -0.1856
10698TIP3    H153509   3.243   3.770   4.761 -0.5997 -1.0342 -1.7189
10698TIP3    H253510   3.095   3.794   4.744 -0.5076  0.3417 -0.7009
10699TIP3   OH253511   1.477   0.529   2.864  0.1882  0.1114 -0.3038
10699TIP3    H153512   1.445   0.456   2.811 -0.8615 -0.2398  0.7648
10699TIP3    H253513   1.567   0.505   2.885 -0.2048 -0.9918  0.2045
10700TIP3   OH253514   4.736   1.502  15.895  0.1198  0.3677 -0.0199
10700TIP3    H153515   4.682   1.445  15.840  2.9562 -1.0759 -1.5579
10700TIP3    H253516   4.755   1.577  15.840  1.0035  0.0605 -0.1529
10701TIP3   OH253517   2.718   1.292   6.221  0.8062 -0.0073 -0.1556
10701TIP3    H153518   2.762   1.359   6.170 -0.3454 -0.3970 -1.7177
10701TIP3    H253519   2.737   1.210   6.175  1.5068 -0.6751  1.2577
10702TIP3   OH253520   5.689   0.511   4.605  0.0205  0.3697  0.0143
10702TIP3    H153521   5.604   0.470   4.618 -0.2106  0.1205 -1.9860
10702TIP3    H253522   5.669   0.596   4.566  0.6510  0.9183  0.8484
10703TIP3   OH253523   5.022   0.906   2.903 -0.7438  0.3236  0.4760
10703TIP3    H153524   5.072   0.965   2.847 -0.4424  0.0391  0.4441
10703TIP3    H253525   4.977   0.848   2.841 -0.4831  0.0682  0.5221
10704TIP3   OH253526   3.167   0.309  15.575  0.0162 -0.1083 -0.3915
10704TIP3    H153527   3.075   0.314  15.600  0.5263  1.8028  1.4284
10704TIP3    H253528   3.185   0.391  15.530  1.5719  1.2727  2.4549
10705TIP3   OH253529   2.990   3.912   2.036  0.0566 -0.3862 -0.2857
10705TIP3    H153530   3.058   3.883   2.096 -1.7543 -0.9213  1.6037
10705TIP3    H253531   2.909   3.907   2.086 -1.4868 -0.2718 -2.5895
10706TIP3   OH253532   2.979   2.249   2.594  0.5970  0.1046  0.3984
10706TIP3    H153533   2.890   2.227   2.621  0.8719  0.5460  1.7092
10706TIP3    H253534   2.997   2.191   2.520 -0.6899 -0.1526  0.2755
10707TIP3   OH253535   3.117   1.840   4.078  0.4292  0.1496  0.6258
10707TIP3    H153536   3.206   1.873   4.065  0.2374 -0.1180 -1.9976
10707TIP3    H253537   3.127   1.745   4.079  0.1373  0.0988 -0.3185
10708TIP3   OH253538   3.639   3.167  14.783 -0.2738 -0.3116  0.2968
10708TIP3    H153539   3.547   3.164  14.758  0.1794  0.1169 -1.6203
10708TIP3    H253540   3.683   3.108  14.720  0.8877  0.3577  0.4498
10709TIP3   OH253541   5.259   1.362   3.652 -0.4539 -0.4405 -0.1003
10709TIP3    H153542   5.174   1.348   3.610  0.0097 -1.4709 -0.7418
10709TIP3    H253543   5.238   1.375   3.744 -1.2616 -1.6378 -0.0902
10710TIP3   OH253544   3.665   5.954  13.142 -0.2488  0.1679  0.1612
10710TIP3    H153545   3.616   5.958  13.224  3.8333 -1.1820  2.9853
10710TIP3    H253546   3.736   6.017  13.154  0.8067 -0.5021 -2.0942
10711TIP3   OH253547   2.742   1.563   2.705  0.2358 -0.4920 -0.2976
10711TIP3    H153548   2.691   1.485   2.729  1.3099 -0.8382  0.9891
10711TIP3    H253549   2.830   1.545   2.737  0.0900  2.0629  1.9082
10712TIP3   OH253550   5.477   6.466  14.009  0.4816 -0.1805 -0.5917
10712TIP3    H153551   5.403   6.461  13.948  0.0983 -0.9560 -0.0810
10712TIP3    H253552   5.455   6.539  14.067  0.7184  0.3865 -1.2046
10713TIP3   OH253553   5.711   3.270  10.888  0.0405  0.0419  0.7829
10713TIP3    H153554   5.769   3.274  10.812  0.1314  0.2756  0.8613
10713TIP3    H253555   5.750   3.202  10.944 -0.8398 -1.1613 -0.0280
10714TIP3   OH253556   3.671   0.510   3.740  0.4285  0.2121  0.4966
10714TIP3    H153557   3.690   0.501   3.833  1.1389 -1.2733  0.2297
10714TIP3    H253558   3.669   0.421   3.706 -3.2827  0.4242 -0.3086
10715TIP3   OH253559   0.245   1.897  12.108  0.5236  0.1643  0.5034
10715TIP3    H153560   0.243   1.979  12.156 -1.7249  0.7907 -0.5406
10715TIP3    H253561   0.170   1.902  12.048 -1.0133 -3.4880  1.8414
10716TIP3   OH253562   6.467   3.983  16.824  0.4131 -0.3654 -0.2402
10716TIP3    H153563   6.428   4.070  16.817  1.5745  0.2251  0.3407
10716TIP3    H253564   6.561   4.000  16.832  0.5140 -1.5776  1.6377
10717TIP3   OH253565   5.333   0.574   0.188  0.1487  0.3623 -0.1567
10717TIP3    H153566   5.262   0.635   0.206  0.4694  0.6205  0.2224
10717TIP3    H253567   5.290   0.489   0.179 -0.3132  0.6612 -0.8215
10718TIP3   OH253568   6.044   4.172  10.748  0.0632  0.6690  0.2586
10718TIP3    H153569   6.128   4.133  10.728 -0.5921 -0.1976 -0.9039
10718TIP3    H253570   6.015   4.212  10.666 -2.3205 -2.2945 -0.5230
10719TIP3   OH253571   2.076   4.329   3.130 -0.4236  0.2435 -1.0311
10719TIP3    H153572   2.040   4.347   3.217 -0.4196  0.5053 -1.0847
10719TIP3    H253573   2.062   4.235   3.118  0.7277 -0.0518 -0.2155
10720TIP3   OH253574   3.710   4.749  10.440 -0.3672 -0.7335 -0.0007
10720TIP3    H153575   3.670   4.682  10.385  0.5120 -0.9548 -0.3895
10720TIP3    H253576   3.642   4.815  10.451 -0.4800 -0.5504 -1.5772
10721TIP3   OH253577   5.367   3.555  11.723 -0.0136 -0.1046 -0.5432
10721TIP3    H153578   5.454   3.586  11.749 -0.7782  0.9582  0.8409
10721TIP3    H253579   5.341   3.615  11.652  1.3576 -1.9634 -2.7829
10722TIP3   OH253580   1.036   2.579  11.490  0.5452 -0.0824 -0.3837
10722TIP3    H153581   1.090   2.633  11.433 -0.9193  0.3924 -1.3918
10722TIP3    H253582   1.088   2.500  11.504  1.3620  0.2067 -1.5910
10723TIP3   OH253583   5.632   6.741   3.041 -0.2859  0.0743 -0.3345
10723TIP3    H153584   5.703   6.742   2.976  0.3823  0.3732  0.3940
10723TIP3    H253585   5.600   6.651   3.040 -0.1169  0.0145 -0.8985
10724TIP3   OH253586   2.218   3.630   4.425 -0.2065  0.1866 -0.7344
10724TIP3    H153587   2.201   3.683   4.347 -0.2533  0.0336 -0.8294
10724TIP3    H253588   2.313   3.617   4.426  0.1746  2.5178  0.7541
10725TIP3   OH253589   4.592   5.459  13.512 -0.3150 -0.1011  0.0255
10725TIP3    H153590   4.684   5.459  13.484 -0.7101 -0.9210 -1.3822
10725TIP3    H253591   4.581   5.542  13.558  0.8961  0.4464 -0.6147
10726TIP3   OH253592   2.466   2.942  13.766 -0.0178 -0.6939  0.0050
10726TIP3    H153593   2.559   2.937  13.787  0.4211  0.5727 -1.5217
10726TIP3    H253594   2.431   2.856  13.791  0.9491 -0.2672  3.2687
10727TIP3   OH253595   1.740   2.308   5.910  0.1745  0.3700  0.2257
10727TIP3    H153596   1.781   2.223   5.925 -0.6867 -0.1441 -0.2533
10727TIP3    H253597   1.787   2.368   5.969  2.3330  0.0617 -1.0901
10728TIP3   OH253598   3.971   3.310  13.837 -0.2431  0.5384  0.2896
10728TIP3    H153599   4.063   3.299  13.812  0.5113  2.5026  1.9641
10728TIP3    H253600   3.929   3.342  13.757  0.6215  0.1011 -0.3609
10729TIP3   OH253601   3.242   5.251  10.877  0.9324 -0.3636 -0.4597
10729TIP3    H153602   3.153   5.222  10.856  0.6938 -0.2480  0.3435
10729TIP3    H253603   3.255   5.329  10.824  0.7336 -0.6527 -0.9405
10730TIP3   OH253604   6.682   6.151  14.613  0.3347  0.4396 -0.0425
10730TIP3    H153605   6.607   6.103  14.649  0.5729 -1.0463 -1.4019
10730TIP3    H253606   6.757   6.120  14.664  0.2886  0.5023  0.0647
10731TIP3   OH253607   6.547   3.236  12.993  0.8414 -0.8013  0.4928
10731TIP3    H153608   6.479   3.262  13.055 -0.3097  0.1250 -1.0815
10731TIP3    H253609   6.510   3.161  12.947  1.5093 -1.2101  0.6052
10732TIP3   OH253610   5.052   5.444   0.668  0.0277 -0.2408 -0.8782
10732TIP3    H153611   4.995   5.389   0.615  0.8142 -3.3928  1.2274
10732TIP3    H253612   5.132   5.392   0.678  0.9481  1.4149  1.0754
10733TIP3   OH253613   4.236   3.927   2.026 -0.3520 -0.2138 -0.2719
10733TIP3    H153614   4.259   3.840   1.994 -0.3932 -0.1604 -0.4481
10733TIP3    H253615   4.316   3.959   2.069  0.1930  0.3141 -1.6364
10734TIP3   OH253616   4.855   4.828   3.265  0.2118 -0.4761  0.4665
10734TIP3    H153617   4.770   4.828   3.310  0.1896  2.0878  0.5744
10734TIP3    H253618   4.852   4.751   3.208 -1.5028 -1.3664  1.6722
10735TIP3   OH253619   2.971   2.971   2.588 -0.4178  0.2815  0.0707
10735TIP3    H153620   3.063   2.967   2.562 -0.6974 -0.6212 -0.8369
10735TIP3    H253621   2.974   2.995   2.681  0.7597 -0.3969  0.2353
10736TIP3   OH253622   2.770   6.690   2.110 -0.4422  0.2083 -0.0252
10736TIP3    H153623   2.726   6.771   2.086 -0.7887 -0.0387 -0.2341
10736TIP3    H253624   2.813   6.661   2.030 -0.9541 -0.2077 -0.1635
10737TIP3   OH253625   1.287   2.206  15.246 -0.3475 -0.3240  0.2321
10737TIP3    H153626   1.250   2.294  15.240 -0.5476 -0.4662 -0.8050
10737TIP3    H253627   1.316   2.198  15.337  0.6344  1.2003  0.0965
10738TIP3   OH253628   3.945   4.635   1.751  1.0376  0.8414 -0.5131
10738TIP3    H153629   4.018   4.667   1.803  2.7555 -0.5471 -1.9606
10738TIP3    H253630   3.965   4.660   1.662 -0.0305  0.0325 -1.0102
10739TIP3   OH253631   5.274   2.164  17.073  0.4234 -0.0455  0.5992
10739TIP3    H153632   5.349   2.171  17.132  0.4942  1.1891  0.3831
10739TIP3    H253633   5.313   2.150  16.987  0.4655  1.5746  0.3337
10740TIP3   OH253634   1.448   2.330  16.450 -0.1206 -0.2072  0.3742
10740TIP3    H153635   1.397   2.410  16.455  0.5069  0.1780  0.8648
10740TIP3    H253636   1.385   2.260  16.464 -0.4897  0.2670  1.1744
10741TIP3   OH253637   4.723   6.099  12.628  0.0344 -0.4772 -0.1855
10741TIP3    H153638   4.764   6.094  12.715 -0.2073 -1.1124 -0.1013
10741TIP3    H253639   4.629   6.104  12.645  0.0316  0.2774 -0.3959
10742TIP3   OH253640   2.719   4.641   1.131  0.2923  0.1337 -0.8374
10742TIP3    H153641   2.667   4.582   1.077 -0.4357  1.2925 -1.4526
10742TIP3    H253642   2.781   4.681   1.070  2.2447 -1.5370 -0.0410
10743TIP3   OH253643   1.172   6.609  15.653 -0.4452 -0.3991 -0.5119
10743TIP3    H153644   1.247   6.563  15.692  0.0798 -0.0376 -1.0766
10743TIP3    H253645   1.098   6.550  15.669 -0.3451 -0.0714  1.3964
10744TIP3   OH253646   5.842   6.464   1.823 -0.0223  1.1261  0.0821
10744TIP3    H153647   5.840   6.399   1.753  0.5753 -0.7054  1.6710
10744TIP3    H253648   5.754   6.465   1.859  0.0210  1.0261  0.1931
10745TIP3   OH253649   1.599   5.189  12.020  0.2299 -0.7927  0.2119
10745TIP3    H153650   1.523   5.216  11.970  0.9910 -0.7175 -0.9431
10745TIP3    H253651   1.617   5.262  12.079 -0.0428 -0.4229 -0.1623
10746TIP3   OH253652   1.158   3.514  16.195  0.1869 -0.4743 -0.1764
10746TIP3    H153653   1.216   3.467  16.135  1.4514 -0.6485  1.1417
10746TIP3    H253654   1.071   3.478  16.177  0.1463  0.8151 -3.2256
10747TIP3   OH253655   0.196   6.605   2.806  0.0749 -0.2565 -0.1725
10747TIP3    H153656   0.187   6.692   2.845 -1.2916 -0.6092  0.3593
10747TIP3    H253657   0.170   6.617   2.714  2.0374  0.3132 -0.6959
10748TIP3   OH253658   5.983   4.909  15.511 -0.1765 -0.0901  0.5187
10748TIP3    H153659   5.933   4.964  15.572 -0.6301 -0.4860  0.5090
10748TIP3    H253660   5.917   4.856  15.467  0.1834 -0.0488 -0.0801
10749TIP3   OH253661   6.474   5.404   4.462 -0.5112  0.1492 -0.0903
10749TIP3    H153662   6.451   5.471   4.397 -0.5309  1.5470  1.2993
10749TIP3    H253663   6.513   5.453   4.534 -1.0575 -1.2936  1.2346
10750TIP3   OH253664   2.040   6.600   0.625 -0.2259  0.2483 -0.5439
10750TIP3    H153665   2.134   6.599   0.609 -0.1857  2.3443 -0.7922
10750TIP3    H253666   2.027   6.665   0.694 -1.5205  0.2588 -0.7550
10751TIP3   OH253667   0.860   4.899   2.986 -0.3081 -0.2614 -0.2269
10751TIP3    H153668   0.918   4.843   2.934 -0.1712  0.7117 -1.1730
10751TIP3    H253669   0.915   4.972   3.014 -0.5988 -0.3384  0.5662
10752TIP3   OH253670   3.501   3.147  15.750  0.2373  0.3594 -0.3838
10752TIP3    H153671   3.453   3.071  15.717  0.5694  1.1840 -2.9979
10752TIP3    H253672   3.514   3.203  15.673  0.2501  2.9570  1.3738
10753TIP3   OH253673   3.943   2.891  15.587  0.7015  0.0044 -0.0190
10753TIP3    H153674   4.032   2.908  15.618  0.2626  0.2783  1.1425
10753TIP3    H253675   3.955   2.829  15.515  1.7474 -0.9989  0.9637
10754TIP3   OH253676   1.786   3.814  13.917  1.3119  0.1108 -0.0839
10754TIP3    H153677   1.840   3.858  13.852  1.2917  0.5245  0.1765
10754TIP3    H253678   1.748   3.885  13.969  2.7061 -0.2389  1.5084
10755TIP3   OH253679   4.854   3.385   3.787  0.2093 -0.4446 -0.0804
10755TIP3    H153680   4.801   3.308   3.811 -0.2822 -0.4876 -1.2244
10755TIP3    H253681   4.944   3.358   3.804  0.2092 -1.9479 -2.0323
10756TIP3   OH253682   2.025   6.076   2.101  0.2990 -0.1279 -0.4066
10756TIP3    H153683   2.080   6.115   2.033 -2.0747  3.1572 -0.6432
10756TIP3    H253684   1.937   6.077   2.066 -0.5298 -1.8080  1.3741
10757TIP3   OH253685   0.314   1.412  15.524  0.2313 -0.0104 -0.1312
10757TIP3    H153686   0.383   1.421  15.589  0.4926 -0.4934 -0.3318
10757TIP3    H253687   0.295   1.501  15.495  0.7809  0.1252 -0.0796
10758TIP3   OH253688   0.004   6.067  12.809 -0.1848  0.1879  0.4909
10758TIP3    H153689   0.007   6.053  12.904  1.4935 -1.8079  0.2188
10758TIP3    H253690  -0.084   6.101  12.793 -0.3673  0.9739  2.7988
10759TIP3   OH253691   2.497   3.904  15.868  0.5047  0.5265  0.0907
10759TIP3    H153692   2.466   3.850  15.941  1.3035  1.8546  1.4774
10759TIP3    H253693   2.452   3.869  15.791 -0.8168 -0.5591  1.3008
10760TIP3   OH253694   2.174   3.261   4.576 -0.1563 -0.4695 -0.3670
10760TIP3    H153695   2.166   3.278   4.482 -0.1976  1.5594 -0.0403
10760TIP3    H253696   2.146   3.343   4.618  0.6923 -1.0294  1.3974
10761TIP3   OH253697   0.441   3.014  12.225  0.0741  0.2871  0.5601
10761TIP3    H153698   0.536   2.997  12.225  0.1943  0.9393  0.4590
10761TIP3    H253699   0.412   2.987  12.312 -0.1602 -2.6280 -0.2952
10762TIP3   OH253700   6.263   5.150   1.709 -0.0966  0.1505  0.2356
10762TIP3    H153701   6.285   5.119   1.797 -0.2131 -1.9919 -0.4365
10762TIP3    H253702   6.243   5.070   1.659 -0.5421  1.3410 -1.6062
10763TIP3   OH253703   0.835   6.348  15.513  0.3499  0.0082 -0.0595
10763TIP3    H153704   0.846   6.290  15.437 -0.5841 -1.1534  0.6486
10763TIP3    H253705   0.895   6.312  15.578 -0.1322 -0.0894  0.3356
10764TIP3   OH253706   0.961   4.410  13.352 -0.1194  0.7315 -0.1358
10764TIP3    H153707   0.992   4.497  13.375  2.5912 -0.4962  1.3115
10764TIP3    H253708   1.032   4.372  13.301 -0.5730 -1.1247  0.5422
10765TIP3   OH253709   1.252   1.079  14.026  0.3398 -0.3955  0.9314
10765TIP3    H153710   1.248   1.071  14.122 -1.1857 -1.6044  0.8079
10765TIP3    H253711   1.238   0.989  13.995  0.0138  0.1129 -0.4333
10766TIP3   OH253712   6.232   0.024   0.558  0.2594 -0.0160 -0.2097
10766TIP3    H153713   6.226  -0.069   0.535 -0.0341  0.2547 -1.3262
10766TIP3    H253714   6.199   0.029   0.647 -1.3905 -0.7712 -0.7230
10767TIP3   OH253715   3.512   6.490   0.753 -0.0572  0.1020  0.6059
10767TIP3    H153716   3.553   6.484   0.666  0.5852  2.1911  0.6934
10767TIP3    H253717   3.579   6.458   0.813 -0.2995 -0.8385  0.3796
10768TIP3   OH253718   4.600   4.705  13.012  0.1262 -0.2070  0.1464
10768TIP3    H153719   4.670   4.659  12.966 -0.2434 -0.8625  0.2276
10768TIP3    H253720   4.531   4.639  13.024 -1.0466  0.7466 -1.0472
10769TIP3   OH253721   0.363   5.038  12.302  1.1326  0.1487  0.4855
10769TIP3    H153722   0.282   5.023  12.253  2.3971  1.6089 -2.2720
10769TIP3    H253723   0.336   5.034  12.394 -1.7741 -0.8042 -0.2934
10770TIP3   OH253724   2.109   1.091   5.951 -0.3303  0.0140  0.0185
10770TIP3    H153725   2.094   1.173   5.905 -3.4361 -0.3767  0.1130
10770TIP3    H253726   2.140   1.117   6.038  1.9292  0.8771 -0.9692
10771TIP3   OH253727   6.536   4.855  17.091 -0.3568  0.3514 -0.2602
10771TIP3    H153728   6.463   4.891  17.142 -0.4985  2.9118 -2.0701
10771TIP3    H253729   6.494   4.815  17.015  0.0498 -0.0792 -0.2626
10772TIP3   OH253730   3.060   0.988  12.966  0.3864  0.1221  0.2830
10772TIP3    H153731   3.072   0.997  13.060  1.2822 -1.2687  0.3519
10772TIP3    H253732   3.146   1.009  12.929 -0.1408  1.3285 -0.2963
10773TIP3   OH253733   2.512   1.772  11.196  1.3493  0.7405  0.0340
10773TIP3    H153734   2.543   1.699  11.249  0.5125 -0.1955 -0.7153
10773TIP3    H253735   2.535   1.747  11.106  0.9723  1.3458 -0.2339
10774TIP3   OH253736   1.807   3.664  15.849 -0.1671 -0.9678  0.0016
10774TIP3    H153737   1.727   3.611  15.847 -0.9208  0.0842  0.7252
10774TIP3    H253738   1.862   3.621  15.915 -0.4542 -1.2765  0.0430
10775TIP3   OH253739   4.738   4.489  12.112  0.6710  0.1216 -0.2749
10775TIP3    H153740   4.830   4.485  12.085  1.2315 -1.0157  1.6151
10775TIP3    H253741   4.699   4.412  12.072  0.9882 -0.3854  0.3715
10776TIP3   OH253742   5.080   0.595   4.900 -0.5602 -0.0530  1.0303
10776TIP3    H153743   5.126   0.539   4.963 -0.3544  0.0753  0.9981
10776TIP3    H253744   5.134   0.674   4.896  1.2047 -1.2585 -1.6601
10777TIP3   OH253745   4.881   1.046   0.742  0.6691 -0.2309  0.0653
10777TIP3    H153746   4.867   0.973   0.681 -2.4382  1.0556 -0.9469
10777TIP3    H253747   4.819   1.030   0.813 -1.3690  2.1395 -1.0134
10778TIP3   OH253748   1.489   3.860   5.299 -0.3498  0.9551  0.8458
10778TIP3    H153749   1.492   3.912   5.218 -1.1546  1.7394  1.3065
10778TIP3    H253750   1.438   3.782   5.275  0.1517  0.7663  0.3729
10779TIP3   OH253751   1.068   2.528   2.241 -0.1479 -0.7808  0.4493
10779TIP3    H153752   1.074   2.608   2.189 -0.9948 -0.8288  0.2556
10779TIP3    H253753   0.991   2.541   2.296 -1.0040 -1.9375 -0.4324
10780TIP3   OH253754   2.610   1.757  10.629  0.7199 -0.2433  0.2105
10780TIP3    H153755   2.550   1.812  10.578 -1.0861 -2.0432  0.2845
10780TIP3    H253756   2.685   1.743  10.571 -0.9810 -1.6838 -1.7738
10781TIP3   OH253757   4.613   3.756   4.775  0.3233  0.5236 -0.7525
10781TIP3    H153758   4.517   3.756   4.781  0.3764  2.5192  0.8501
10781TIP3    H253759   4.636   3.847   4.762  2.0485  0.1143 -0.7603
10782TIP3   OH253760   0.996   5.437   3.705 -0.2265  0.9006  0.3089
10782TIP3    H153761   0.952   5.521   3.712  0.8865  1.6817 -1.4119
10782TIP3    H253762   1.086   5.459   3.681 -0.2155 -0.8071 -1.4697
10783TIP3   OH253763   0.503   1.588   4.595  0.1495  0.6984 -0.0227
10783TIP3    H153764   0.463   1.540   4.667  0.4256  1.3006  0.5346
10783TIP3    H253765   0.584   1.541   4.576 -0.6233 -0.3131 -0.9144
10784TIP3   OH253766   2.924   4.179   0.081  0.1087 -0.0970 -0.3581
10784TIP3    H153767   2.870   4.252   0.111 -0.4587  0.0237 -1.6405
10784TIP3    H253768   2.908   4.110   0.145 -2.6013 -0.5193 -1.3745
10785TIP3   OH253769   5.301   4.752   4.864  0.3596  0.9704 -0.3454
10785TIP3    H153770   5.224   4.696   4.862  2.0898 -1.5243 -1.9923
10785TIP3    H253771   5.274   4.828   4.916 -2.4041 -0.9297  1.2300
10786TIP3   OH253772   5.460   4.797   3.236  0.0923  0.2053  0.2321
10786TIP3    H153773   5.444   4.704   3.251  1.9741 -0.1081  0.5376
10786TIP3    H253774   5.544   4.814   3.279 -0.0282  1.9667 -0.1518
10787TIP3   OH253775   2.880   5.769  17.237 -0.0991  0.0012 -0.1773
10787TIP3    H153776   2.827   5.742  17.162  1.2442  0.4471 -1.3123
10787TIP3    H253777   2.969   5.777  17.203  0.1483  2.5855  0.8613
10788TIP3   OH253778   2.718   0.804   3.039 -0.6686 -0.3753  0.2911
10788TIP3    H153779   2.808   0.794   3.008 -0.6943 -1.8993  0.6203
10788TIP3    H253780   2.718   0.887   3.087  0.7266 -0.6511  0.8181
10789TIP3   OH253781   0.675   2.984   4.121 -0.6414 -0.4445 -0.1992
10789TIP3    H153782   0.719   3.028   4.049 -0.2569  0.7460  0.7361
10789TIP3    H253783   0.643   2.902   4.083 -0.0688 -0.0461 -1.5972
10790TIP3   OH253784   2.942   3.327  11.298  0.2007  0.2293  0.8906
10790TIP3    H153785   2.991   3.385  11.356  1.7633  0.0219 -0.1699
10790TIP3    H253786   2.981   3.241  11.310  0.1133  0.0584  0.0321
10791TIP3   OH253787   0.497   1.169  11.635 -0.5357 -0.3274  0.4967
10791TIP3    H153788   0.552   1.137  11.706 -0.4114 -1.4830 -0.1102
10791TIP3    H253789   0.415   1.194  11.678 -0.0620  0.0410  1.1957
10792TIP3   OH253790   5.266   5.638   4.253 -0.0339 -0.9653 -0.4595
10792TIP3    H153791   5.182   5.683   4.244 -0.1843 -1.3377 -0.9712
10792TIP3    H253792   5.276   5.626   4.347 -1.2556 -2.2087 -0.4479
10793TIP3   OH253793   3.749   4.411   4.092  0.5844 -0.4389 -0.0645
10793TIP3    H153794   3.823   4.446   4.143  0.3244 -0.1924  0.1486
10793TIP3    H253795   3.790   4.356   4.025  0.8582 -2.3966  1.6108
10794TIP3   OH253796   4.276   0.873   3.160 -0.7726  0.0666  0.2390
10794TIP3    H153797   4.353   0.836   3.204 -0.5348  1.6048  1.1595
10794TIP3    H253798   4.228   0.796   3.129  1.0910 -0.9452 -0.3406
10795TIP3   OH253799   6.258   6.145  12.547  0.7369 -0.0523 -0.0508
10795TIP3    H153800   6.351   6.149  12.529  0.3003  1.3326 -2.3399
10795TIP3    H253801   6.242   6.217  12.608  0.7580  1.7553 -2.0629
10796TIP3   OH253802   6.210   1.006  16.115  0.7849  0.1914  0.1115
10796TIP3    H153803   6.171   0.921  16.135  1.5571 -0.1497  0.1910
10796TIP3    H253804   6.302   0.996  16.136  0.8545  1.1097  0.2907
10797TIP3   OH253805   4.173   2.511  16.034 -0.0973 -0.1355  0.1241
10797TIP3    H153806   4.194   2.445  16.101  1.7192 -0.1418 -0.4127
10797TIP3    H253807   4.206   2.593  16.070 -0.3497  0.0983 -0.1746
10798TIP3   OH253808   3.564   4.758   2.680 -0.1962  0.3189 -0.0989
10798TIP3    H153809   3.643   4.736   2.631  0.2612  0.0745  0.7116
10798TIP3    H253810   3.532   4.839   2.641  0.6767  0.6275 -0.1874
10799TIP3   OH253811   4.723   1.466   5.434  0.1252 -0.0544  0.0508
10799TIP3    H153812   4.742   1.559   5.450 -2.4833  0.1612  2.8086
10799TIP3    H253813   4.688   1.464   5.345 -0.4065  1.7508  0.1676
10800TIP3   OH253814   4.280   6.259  15.934 -0.2071  0.0824  0.2887
10800TIP3    H153815   4.192   6.297  15.934  0.1466  0.9366  1.1987
10800TIP3    H253816   4.271   6.179  15.985 -0.4033  0.3332  0.6622
10801TIP3   OH253817   0.299   0.828   2.955  0.2117 -0.1281  0.2119
10801TIP3    H153818   0.308   0.820   3.050  0.4411  0.8921  0.2824
10801TIP3    H253819   0.229   0.767   2.933 -2.0201  1.8185  1.4483
10802TIP3   OH253820   2.510   1.975   0.225  0.2326  0.0890 -0.0422
10802TIP3    H153821   2.436   1.972   0.285  0.3310 -0.8536  0.0402
10802TIP3    H253822   2.470   1.980   0.138  0.0910  1.6561  0.0804
10803TIP3   OH253823   2.100   3.979   2.191  0.1577  0.5521  0.0269
10803TIP3    H153824   2.174   4.027   2.228  1.5632  0.3359 -2.3247
10803TIP3    H253825   2.041   3.965   2.265  0.6061  4.0978  1.2377
10804TIP3   OH253826   6.556   4.544   3.738 -0.1510  0.1549 -0.3033
10804TIP3    H153827   6.499   4.468   3.747  2.0985 -1.5710  0.4912
10804TIP3    H253828   6.638   4.508   3.705  1.0025  2.2367  0.1504
10805TIP3   OH253829   1.633   1.323   2.593  0.4321 -0.0958  0.5107
10805TIP3    H153830   1.554   1.366   2.560 -1.2020 -1.8879  1.8384
10805TIP3    H253831   1.695   1.329   2.520 -0.5600  2.1899 -0.2381
10806TIP3   OH253832   4.307   2.173   6.191  0.1483 -0.0289  0.0248
10806TIP3    H153833   4.387   2.125   6.172  0.7178  0.8356  0.1893
10806TIP3    H253834   4.273   2.199   6.105  0.4062  0.1703 -0.0184
10807TIP3   OH253835   0.447   5.254  15.743 -0.6104 -0.1138  0.0062
10807TIP3    H153836   0.357   5.280  15.759 -0.8943 -1.5125  0.8147
10807TIP3    H253837   0.492   5.268  15.827 -0.9636 -2.8463  0.7424
10808TIP3   OH253838   4.876   6.372   2.849  0.3833  0.6590 -0.2743
10808TIP3    H153839   4.893   6.363   2.943 -0.6149  0.1131 -0.1260
10808TIP3    H253840   4.956   6.411   2.813  0.8943  0.5829  0.7489
10809TIP3   OH253841   6.555   4.823   2.540 -0.0187  0.2992  0.1124
10809TIP3    H153842   6.470   4.808   2.498 -0.7267  1.2834  1.1383
10809TIP3    H253843   6.597   4.737   2.540 -0.9668 -0.1858 -0.5019
10810TIP3   OH253844   3.222   3.099   3.984  0.3400  0.0572  0.2016
10810TIP3    H153845   3.242   3.027   4.044  2.8115  0.6012  0.1510
10810TIP3    H253846   3.201   3.057   3.901 -0.1626 -0.6374  0.6759
10811TIP3   OH253847   3.677   4.757  16.782  0.4781  0.0728  0.4139
10811TIP3    H153848   3.682   4.739  16.876  2.0644  1.9700  0.7655
10811TIP3    H253849   3.622   4.834  16.775 -1.5507 -1.3757 -0.5013
10812TIP3   OH253850   6.177   2.404  11.535  0.6979  0.6783  0.0366
10812TIP3    H153851   6.158   2.464  11.607 -0.0395  0.0798  0.3527
10812TIP3    H253852   6.094   2.359  11.519  1.5360 -1.1669  0.6618
10813TIP3   OH253853   0.667   0.408   5.220  0.3562 -0.6718 -0.0677
10813TIP3    H153854   0.654   0.313   5.224 -0.5416 -0.6646 -1.7553
10813TIP3    H253855   0.646   0.431   5.129  0.0297  1.2232  0.4431
10814TIP3   OH253856   0.555   2.089   2.408 -0.0698  0.4595 -0.4085
10814TIP3    H153857   0.644   2.067   2.438 -0.2550  1.1354  0.6983
10814TIP3    H253858   0.515   2.004   2.389  1.3105  0.2064 -2.4975
10815TIP3   OH253859   5.582   2.396   0.310 -0.4736 -0.0662 -0.4437
10815TIP3    H153860   5.652   2.355   0.259 -0.4479 -0.1129 -0.3724
10815TIP3    H253861   5.611   2.386   0.401 -0.9326 -0.7542 -0.3682
10816TIP3   OH253862   0.754   3.993   1.460 -0.7344 -0.4178 -0.0283
10816TIP3    H153863   0.703   4.071   1.440 -1.9534 -1.5209 -1.5002
10816TIP3    H253864   0.713   3.955   1.537 -1.4281 -0.6579 -0.5061
10817TIP3   OH253865   5.580   3.527  10.890 -0.3182 -0.4210  0.0273
10817TIP3    H153866   5.496   3.499  10.855 -0.0155  0.2970 -1.3660
10817TIP3    H253867   5.639   3.454  10.874 -0.0405  0.1192 -1.5916
10818TIP3   OH253868   5.649   1.862  16.176 -0.6938 -0.2671 -0.1213
10818TIP3    H153869   5.554   1.856  16.173 -0.7050 -0.0467 -0.2769
10818TIP3    H253870   5.669   1.946  16.134 -0.2455 -1.7596 -3.1094
10819TIP3   OH253871   5.218   4.279  15.671  0.2764 -0.3604  0.2620
10819TIP3    H153872   5.254   4.192  15.653  1.9547  0.4864 -0.6737
10819TIP3    H253873   5.293   4.338  15.668 -0.2669  0.7978  3.8055
10820TIP3   OH253874   3.400   6.204   4.092  0.0385  0.2919 -0.6495
10820TIP3    H153875   3.414   6.197   4.186  0.3315 -0.9831 -0.7602
10820TIP3    H253876   3.489   6.202   4.055  0.0302  2.4730 -0.8951
10821TIP3   OH253877   1.754   4.936   5.006  0.3743  0.0423  0.2592
10821TIP3    H153878   1.764   4.945   4.911 -0.4248  1.3612  0.2785
10821TIP3    H253879   1.660   4.928   5.020  0.6263 -3.3468  0.7412
10822TIP3   OH253880   1.140   2.304  13.666  0.0518  0.0983 -0.5240
10822TIP3    H153881   1.046   2.318  13.653  0.1687 -0.0116 -1.5551
10822TIP3    H253882   1.176   2.297  13.577  1.4110  2.5190 -0.2312
10823TIP3   OH253883   2.008   2.714   4.456 -0.9640 -0.1632  0.1028
10823TIP3    H153884   1.974   2.633   4.416 -0.6358 -0.6513  0.7964
10823TIP3    H253885   2.034   2.768   4.381  1.3337 -1.7755 -0.3799
10824TIP3   OH253886   4.995   1.768   2.774 -0.4039 -0.3012  0.2918
10824TIP3    H153887   5.031   1.835   2.832  0.9484  1.4907 -2.3845
10824TIP3    H253888   4.934   1.816   2.717 -1.0150 -1.7811 -0.3443
10825TIP3   OH253889   6.741   5.980  16.933 -1.3063  0.0871 -0.4598
10825TIP3    H153890   6.660   6.001  16.886 -1.3549 -0.0975 -0.4579
10825TIP3    H253891   6.810   5.998  16.869 -1.3386  0.4148 -0.4004
10826TIP3   OH253892   6.038   2.451  15.154  0.7586  0.1576  0.4551
10826TIP3    H153893   5.978   2.383  15.184 -0.1056  1.1934  1.1337
10826TIP3    H253894   6.084   2.480  15.233 -0.4797  1.8769  0.6121
10827TIP3   OH253895   4.386   1.704  11.942 -0.2698  0.1123  0.3500
10827TIP3    H153896   4.342   1.788  11.935 -0.1863  0.1079 -0.2176
10827TIP3    H253897   4.458   1.720  12.004  1.2010  1.0873 -1.4998
10828TIP3   OH253898   5.036   6.259  12.841 -0.2539 -0.7263 -0.1361
10828TIP3    H153899   5.070   6.337  12.885  0.2908 -0.6230 -0.7137
10828TIP3    H253900   5.071   6.185  12.891 -0.2745 -0.6047  0.0581
10829TIP3   OH253901   2.425   1.479  10.949 -0.5615 -0.0838  0.0324
10829TIP3    H153902   2.488   1.472  11.021 -1.0012 -1.2924  0.3334
10829TIP3    H253903   2.389   1.390  10.941 -2.0409  0.5177 -0.2941
10830TIP3   OH253904   1.623   5.993  14.388  0.0438  0.2466  0.4843
10830TIP3    H153905   1.672   5.913  14.370 -0.3038  0.0399  0.4580
10830TIP3    H253906   1.635   6.008  14.482 -0.6238 -0.3330  0.6744
10831TIP3   OH253907   5.297   0.954   2.365  0.0860 -0.2714 -0.3652
10831TIP3    H153908   5.315   0.894   2.437  0.3765 -0.6900 -0.7760
10831TIP3    H253909   5.384   0.989   2.341  0.0020 -0.1960 -0.5618
10832TIP3   OH253910   3.450   5.580   5.905  0.0386  0.0800  0.1219
10832TIP3    H153911   3.416   5.655   5.857 -1.9313 -0.4914  0.5231
10832TIP3    H253912   3.480   5.617   5.988 -0.9313  0.4449  0.3259
10833TIP3   OH253913   5.624   3.191   4.847  0.1949  0.0696 -0.6350
10833TIP3    H153914   5.716   3.214   4.832 -0.5384  2.1725 -2.5601
10833TIP3    H253915   5.618   3.174   4.941  1.6213  5.0350  0.6566
10834TIP3   OH253916   4.213   3.392  10.840  0.1524  0.2610 -0.2907
10834TIP3    H153917   4.172   3.318  10.797 -0.0747 -0.2660  0.7862
10834TIP3    H253918   4.198   3.377  10.934  1.3941  0.8940  0.0365
10835TIP3   OH253919   3.069   4.090  13.552 -0.0367  0.3014 -0.2404
10835TIP3    H153920   3.022   4.060  13.474  0.7121  0.4187 -0.7488
10835TIP3    H253921   3.017   4.057  13.625  0.1280 -1.2581 -0.7851
10836TIP3   OH253922   2.886   0.958   4.147  0.3305 -0.7532  0.2763
10836TIP3    H153923   2.916   0.867   4.150  0.3741 -0.7304  0.5525
10836TIP3    H253924   2.958   1.008   4.184  0.4179 -0.5758 -0.1314
10837TIP3   OH253925   1.978   4.377  12.128  0.9347  0.2777 -0.7315
10837TIP3    H153926   2.073   4.368  12.134  1.1346  1.6886 -1.2713
10837TIP3    H253927   1.958   4.455  12.180 -0.0203 -0.3353 -0.1316
10838TIP3   OH253928   2.738   0.393  14.449 -0.0008  0.2815  0.1197
10838TIP3    H153929   2.802   0.459  14.422  0.8977 -0.1304  1.1735
10838TIP3    H253930   2.681   0.439  14.511 -0.2108  0.4188 -0.1716
10839TIP3   OH253931   5.020   4.840  11.622 -0.8581 -0.5136 -0.2024
10839TIP3    H153932   5.095   4.850  11.681 -1.2444 -1.5114  0.4805
10839TIP3    H253933   5.044   4.768  11.564 -0.7557  0.0340 -0.8580
10840TIP3   OH253934   5.302   1.834  15.194 -0.1307  0.0816 -0.2582
10840TIP3    H153935   5.382   1.797  15.231 -0.6276 -1.1022 -0.3152
10840TIP3    H253936   5.243   1.759  15.185 -0.9832  0.8082 -0.9130
10841TIP3   OH253937   5.081   1.810  11.294  0.1139  0.2504 -0.1419
10841TIP3    H153938   5.057   1.866  11.221  0.0818 -0.9850 -1.1108
10841TIP3    H253939   5.170   1.781  11.274 -0.5236 -1.4852 -0.6149
10842TIP3   OH253940   0.299   0.085   4.807  0.3796 -0.0941  0.1417
10842TIP3    H153941   0.339   0.167   4.778  0.1457 -0.3104 -0.8514
10842TIP3    H253942   0.364   0.018   4.787  1.1402 -0.0419  2.2052
10843TIP3   OH253943   0.410   1.831  15.654  0.0754 -0.3056 -0.3022
10843TIP3    H153944   0.465   1.762  15.617  1.7975  1.2774 -0.8261
10843TIP3    H253945   0.429   1.909  15.602  0.3410  1.2880  1.9918
10844TIP3   OH253946   1.956   5.214  11.628 -0.2182  0.2899 -0.4086
10844TIP3    H153947   1.925   5.287  11.681  0.7336  0.3966  0.0343
10844TIP3    H253948   2.020   5.253  11.569  0.7240 -0.2525  0.2164
10845TIP3   OH253949   4.957   5.290  15.697 -0.0936  0.0331  0.1445
10845TIP3    H153950   5.047   5.260  15.688 -0.0962 -0.1889  0.7898
10845TIP3    H253951   4.911   5.216  15.737 -1.0125 -0.6087 -1.9439
10846TIP3   OH253952   5.803   6.646  15.276 -0.5578 -0.4971 -0.0524
10846TIP3    H153953   5.781   6.725  15.324  0.1830 -0.3656  0.0783
10846TIP3    H253954   5.830   6.583  15.344 -1.4445 -0.9747 -0.1219
10847TIP3   OH253955   3.794   1.526  12.160 -0.2238 -0.6912  1.1371
10847TIP3    H153956   3.707   1.550  12.128  0.0264  0.4839  1.3047
10847TIP3    H253957   3.783   1.512  12.254 -0.1791 -0.2357  1.2132
10848TIP3   OH253958   4.720   0.599   1.002  0.0567 -0.2249  0.1087
10848TIP3    H153959   4.704   0.577   1.094  0.1180  2.1850  0.7428
10848TIP3    H253960   4.731   0.514   0.960  0.5444 -1.4021  2.4089
10849TIP3   OH253961   3.182   6.076   4.003 -0.5470  0.1356  0.4939
10849TIP3    H153962   3.108   6.133   4.024 -0.2323  0.6149  0.3155
10849TIP3    H253963   3.257   6.117   4.047 -0.4374 -0.5124  0.9243
10850TIP3   OH253964   5.341   6.293  14.276  0.3558  0.3369 -0.1286
10850TIP3    H153965   5.280   6.367  14.268 -0.6229 -0.3345  0.9289
10850TIP3    H253966   5.428   6.332  14.262 -0.0981  1.7746  0.9011
10851TIP3   OH253967   0.601   5.611   5.564 -0.0711 -0.5050  0.6920
10851TIP3    H153968   0.632   5.522   5.549 -1.1712 -0.8146  0.1017
10851TIP3    H253969   0.680   5.665   5.564  0.4752 -1.2654 -0.6319
10852TIP3   OH253970   2.233   2.103  11.344 -0.3573  0.3461  0.4950
10852TIP3    H153971   2.141   2.083  11.364 -0.9102  2.1782 -0.0529
10852TIP3    H253972   2.262   2.159  11.416 -0.4688  1.8545 -0.5889
10853TIP3   OH253973   5.575   5.393   2.267  0.3858 -0.2928 -0.3083
10853TIP3    H153974   5.645   5.352   2.215  1.4106  1.5586 -0.4943
10853TIP3    H253975   5.494   5.364   2.226  1.1010 -1.0925 -1.2030
10854TIP3   OH253976   1.595   0.826   3.475 -0.1366 -0.4538  0.4634
10854TIP3    H153977   1.691   0.818   3.475 -0.0902 -0.1307 -1.0588
10854TIP3    H253978   1.567   0.774   3.550  1.0668 -2.6607 -0.5089
10855TIP3   OH253979   4.046   0.641  17.267 -0.3520 -0.0438 -0.3943
10855TIP3    H153980   4.126   0.642  17.319 -0.6886  0.8277  0.1331
10855TIP3    H253981   4.076   0.633  17.177  0.4212  1.8302 -0.3342
10856TIP3   OH253982   2.207   1.430  14.881 -0.8150  0.1297 -0.4012
10856TIP3    H153983   2.136   1.470  14.932 -0.8238 -0.3585 -0.0315
10856TIP3    H253984   2.168   1.415  14.795 -1.1638 -0.1384 -0.1995
10857TIP3   OH253985   4.377   5.567   3.352  0.6537 -0.3908 -0.0922
10857TIP3    H153986   4.336   5.625   3.417 -0.4635 -1.2154 -0.0379
10857TIP3    H253987   4.354   5.606   3.268  1.2157  0.0933 -0.0297
10858TIP3   OH253988   1.741   3.475   0.478  0.2606  0.1547  0.6123
10858TIP3    H153989   1.666   3.502   0.531  2.2412  0.4683  3.5216
10858TIP3    H253990   1.711   3.399   0.430 -1.4386 -0.9340  3.1753
10859TIP3   OH253991   5.136   4.975  14.088 -0.6024 -0.6264 -0.6536
10859TIP3    H153992   5.074   4.969  14.160 -0.1527  1.1093 -0.0694
10859TIP3    H253993   5.082   4.995  14.011 -0.7622  2.2347  0.0799
10860TIP3   OH253994   5.233   0.556   1.367  0.2886 -0.9006  0.1539
10860TIP3    H153995   5.201   0.473   1.401 -0.7804 -0.2916  0.6936
10860TIP3    H253996   5.154   0.600   1.333  0.7983 -0.0184  0.0839
10861TIP3   OH253997   4.596   4.062   3.174 -0.0325 -0.5085 -0.1534
10861TIP3    H153998   4.649   4.141   3.172  0.5258 -0.8323 -3.5955
10861TIP3    H253999   4.649   3.999   3.222  0.4179  0.5848  0.8393
10862TIP3   OH254000   2.450   1.574  13.837  0.0233  0.3962 -0.2092
10862TIP3    H154001   2.519   1.516  13.807 -0.7955 -0.5410 -0.3454
10862TIP3    H254002   2.434   1.547  13.928  1.1051  1.8647  0.4498
10863TIP3   OH254003   2.617   0.509   4.392 -0.2879  0.2069 -0.2119
10863TIP3    H154004   2.680   0.438   4.403 -1.1257 -1.0028 -2.4900
10863TIP3    H254005   2.535   0.464   4.371 -1.0382  1.8333 -0.8951
10864TIP3   OH254006   2.691   1.559   0.656 -0.5036 -0.0817  0.1730
10864TIP3    H154007   2.659   1.644   0.625  0.2756  0.3493  0.5111
10864TIP3    H254008   2.723   1.578   0.745  3.5040  0.2572 -1.1330
10865TIP3   OH254009   5.506   4.591  15.886  0.5235 -0.5711 -0.0777
10865TIP3    H154010   5.492   4.569  15.794  2.4211  1.7947 -1.0523
10865TIP3    H254011   5.477   4.682  15.894  1.4598 -0.3591  1.3478
10866TIP3   OH254012   3.931   4.173  15.406 -0.0473 -0.5914 -0.0730
10866TIP3    H154013   3.993   4.104  15.428  3.2098  1.8803 -0.6185
10866TIP3    H254014   3.889   4.196  15.489  0.0315 -2.0739  0.4008
10867TIP3   OH254015   5.106   0.098  11.476  0.6077  0.0906 -0.2925
10867TIP3    H154016   5.188   0.124  11.436 -0.3122  5.7084  0.7360
10867TIP3    H254017   5.125   0.094  11.570  0.1168 -0.7293 -0.2162
10868TIP3   OH254018   2.460   1.845  13.279 -0.3357 -0.0849 -0.2244
10868TIP3    H154019   2.524   1.902  13.323  1.8930 -1.4311 -1.5188
10868TIP3    H254020   2.446   1.887  13.194 -0.8116 -0.0625 -0.1363
10869TIP3   OH254021   6.396   6.207   1.263 -0.3169  0.2903  0.2287
10869TIP3    H154022   6.413   6.184   1.172 -2.0932 -0.7486  0.1188
10869TIP3    H254023   6.387   6.302   1.263  0.2026  0.3470 -0.5736
10870TIP3   OH254024   5.071   0.773   3.626  0.5632 -0.1985 -0.1596
10870TIP3    H154025   5.102   0.856   3.590  0.6873 -1.0209 -2.1046
10870TIP3    H254026   5.145   0.740   3.677  0.9688  0.3039 -0.4095
10871TIP3   OH254027   2.950   6.438   4.145  0.3853 -0.2557 -0.2078
10871TIP3    H154028   3.033   6.485   4.140  0.6524 -0.8245 -2.7300
10871TIP3    H254029   2.913   6.447   4.057 -2.3920  0.2157  0.9094
10872TIP3   OH254030   2.494   2.422   0.818 -0.6297  0.2669  0.2636
10872TIP3    H154031   2.553   2.430   0.893  1.0528 -3.9454 -0.3222
10872TIP3    H254032   2.548   2.443   0.743 -1.1803  0.6875 -0.0175
10873TIP3   OH254033   1.435   1.728   4.388 -0.3742 -0.3323 -1.0976
10873TIP3    H154034   1.405   1.641   4.417  0.2183 -0.3210 -0.4299
10873TIP3    H254035   1.436   1.722   4.293 -1.0793 -0.8076 -1.0862
10874TIP3   OH254036   1.564   5.654   5.251 -0.7483  0.4766 -0.8094
10874TIP3    H154037   1.588   5.623   5.338 -2.0199  1.7121  0.0260
10874TIP3    H254038   1.632   5.717   5.228  0.2789 -0.7774 -1.2771
10875TIP3   OH254039   1.518   0.767  14.054  0.1205 -0.1253 -0.0651
10875TIP3    H154040   1.482   0.794  14.138  0.6386  1.1137 -0.2267
10875TIP3    H254041   1.610   0.794  14.057 -0.1445  1.0608 -1.4801
10876TIP3   OH254042   2.077   6.698   3.337  0.5356 -0.2476  0.2742
10876TIP3    H154043   2.018   6.729   3.269  0.1612  0.9986  1.1305
10876TIP3    H254044   2.165   6.721   3.306  0.5356 -1.3671 -0.6197
10877TIP3   OH254045   5.344   6.221   2.080 -0.5474  0.3750  0.2664
10877TIP3    H154046   5.319   6.300   2.128  0.5477  1.9294 -1.5792
10877TIP3    H254047   5.272   6.207   2.018 -0.4776  0.2212  0.2185
10878TIP3   OH254048   6.157   6.185   2.774 -0.4777  0.0917  0.2370
10878TIP3    H154049   6.182   6.244   2.845  1.2739 -2.9957  2.4233
10878TIP3    H254050   6.066   6.163   2.792 -0.1976 -0.2750  1.3058
10879TIP3   OH254051   1.465   5.957   6.031 -0.4961  0.1928  0.2010
10879TIP3    H154052   1.403   6.030   6.030 -0.7083  0.0135  0.1745
10879TIP3    H254053   1.421   5.887   5.983 -1.2308 -0.7195  2.0813
10880TIP3   OH254054   3.093   4.855   6.238  0.0769 -0.5666  0.4723
10880TIP3    H154055   3.104   4.787   6.304 -0.6128 -2.3604 -1.1352
10880TIP3    H254056   3.014   4.902   6.265 -0.6163 -1.7426  0.5986
10881TIP3   OH254057   2.035   0.578   0.572 -0.0059 -0.0718  0.6703
10881TIP3    H154058   2.028   0.518   0.497  0.4314  1.8695 -1.0090
10881TIP3    H254059   2.082   0.654   0.538 -1.8872  1.9318  2.2504
10882TIP3   OH254060   4.089   6.147  13.317  0.0986  0.3289  0.5971
10882TIP3    H154061   4.074   6.131  13.410  2.2823  0.3624  1.0225
10882TIP3    H254062   4.155   6.082  13.292  1.4321  1.9298 -0.2504
10883TIP3   OH254063   6.217   2.452  11.903 -0.2977  0.3641 -0.1316
10883TIP3    H154064   6.159   2.528  11.904 -0.2244  0.4493 -1.2862
10883TIP3    H254065   6.162   2.380  11.872  0.4406  0.6869 -2.3828
10884TIP3   OH254066   3.938   3.399  14.420 -0.0589  0.0234  0.2001
10884TIP3    H154067   3.977   3.323  14.462 -0.7716 -0.8674 -0.6977
10884TIP3    H254068   3.892   3.363  14.344 -1.2684  1.2140  0.3304
10885TIP3   OH254069   4.056   0.884  11.889  0.0780  0.0369 -0.6724
10885TIP3    H154070   4.083   0.955  11.947 -2.2228 -0.4236  1.0972
10885TIP3    H254071   4.134   0.830  11.880  1.8678  2.6121 -1.9742
10886TIP3   OH254072   5.779   4.360   4.812 -0.5532 -0.3038  0.1715
10886TIP3    H154073   5.872   4.380   4.806 -1.1172  2.4983 -0.2380
10886TIP3    H254074   5.771   4.303   4.888  1.7501 -2.7644 -1.2666
10887TIP3   OH254075   5.819   3.765  15.022  0.3425  0.2546  0.2749
10887TIP3    H154076   5.877   3.830  14.981 -0.2564  1.8387  1.8230
10887TIP3    H254077   5.879   3.706  15.068  0.8216  0.6763  0.2073
10888TIP3   OH254078   3.984   5.069   2.015  0.5961 -0.5584 -0.6291
10888TIP3    H154079   3.909   5.014   1.992  0.2610  0.0400 -1.0014
10888TIP3    H254080   4.058   5.029   1.968  0.1743 -0.1441 -1.6676
10889TIP3   OH254081   3.627   2.326   0.973 -0.4553  0.2339  0.0106
10889TIP3    H154082   3.626   2.344   0.879 -0.1659  0.2679  0.0153
10889TIP3    H254083   3.639   2.231   0.980  0.5202  0.3529  0.0283
10890TIP3   OH254084   4.080   3.637  16.288  0.2270 -0.0170  0.1621
10890TIP3    H154085   4.030   3.573  16.339  0.2824 -0.1664  0.0283
10890TIP3    H254086   4.168   3.601  16.285 -0.2132 -1.0473 -1.7825
10891TIP3   OH254087   5.258   5.028   4.728 -0.6012  0.3363  0.0688
10891TIP3    H154088   5.253   5.003   4.820 -0.3080  0.4770  0.1207
10891TIP3    H254089   5.208   4.960   4.682  1.0794 -0.9669  0.0879
10892TIP3   OH254090   1.696   0.043  14.731  0.2706 -0.1876  0.3419
10892TIP3    H154091   1.741   0.008  14.654 -0.6355 -2.3622  0.7102
10892TIP3    H254092   1.670   0.131  14.707  1.5136 -0.2098 -1.1968
10893TIP3   OH254093   4.240   5.359  16.491  0.1302 -0.3288  0.5128
10893TIP3    H154094   4.269   5.301  16.562  1.4810  0.5777  0.7344
10893TIP3    H254095   4.279   5.444  16.511 -2.4847  0.9505  0.6556
10894TIP3   OH254096   0.852   1.638   3.914 -0.3660  0.5430  0.1114
10894TIP3    H154097   0.792   1.632   3.840  1.2459  0.8537 -1.2789
10894TIP3    H254098   0.834   1.724   3.953 -1.5979  0.1508  0.4411
10895TIP3   OH254099   1.533   6.670   3.837 -0.1169 -0.1552  0.6853
10895TIP3    H154100   1.556   6.612   3.910  0.0198  0.4917  1.1622
10895TIP3    H254101   1.437   6.673   3.839 -0.0871  1.4158  2.1054
10896TIP3   OH254102   6.224   1.358  13.457 -0.4340  0.0554  0.2353
10896TIP3    H154103   6.314   1.353  13.488 -0.5596  1.6925  0.9951
10896TIP3    H254104   6.171   1.316  13.525 -0.1956 -1.6947 -0.6223
10897TIP3   OH254105   0.866   5.395  14.845 -0.2586 -0.4350  0.1144
10897TIP3    H154106   0.893   5.303  14.852 -0.3273 -0.5894 -1.2561
10897TIP3    H254107   0.895   5.435  14.926  0.5450 -1.4841  0.3666
10898TIP3   OH254108   4.723   3.090   1.234 -0.5163 -0.1033 -0.6814
10898TIP3    H154109   4.645   3.055   1.193 -0.9728 -0.1879  0.2387
10898TIP3    H254110   4.735   3.176   1.193 -1.0401 -0.1272 -0.8903
10899TIP3   OH254111   1.663   3.375   3.714 -0.2744  0.0947  0.3090
10899TIP3    H154112   1.735   3.320   3.683 -0.4044  0.4472 -0.6480
10899TIP3    H254113   1.590   3.315   3.727 -0.9718  0.1919 -2.4328
10900TIP3   OH254114   3.403   6.735  15.682 -0.0678  0.1261  0.4133
10900TIP3    H154115   3.345   6.703  15.613  0.0977  1.1359 -0.2122
10900TIP3    H254116   3.404   6.830  15.671  2.1264  0.1204  0.0286
10901TIP3   OH254117   4.029   0.298   6.310 -0.6107 -0.7375 -0.1327
10901TIP3    H154118   3.996   0.298   6.220 -0.0773  1.1761 -0.3648
10901TIP3    H254119   4.039   0.205   6.332 -0.4070 -1.2396 -2.1738
10902TIP3   OH254120   2.184   3.299   3.723  0.7137 -0.1624  0.3588
10902TIP3    H154121   2.133   3.318   3.645 -0.3608 -1.1709  0.7771
10902TIP3    H254122   2.256   3.244   3.691  0.9898  0.4587 -0.0980
10903TIP3   OH254123   0.578   5.668   0.437 -0.3915  0.1737  0.1927
10903TIP3    H154124   0.660   5.619   0.447 -0.4367  0.0717  0.0623
10903TIP3    H254125   0.589   5.744   0.494 -0.8778 -0.6969  1.4892
10904TIP3   OH254126   1.441   1.524  14.359  0.3391  0.0377  0.1134
10904TIP3    H154127   1.474   1.513  14.270 -2.0382 -1.3005 -0.6837
10904TIP3    H254128   1.492   1.461  14.410  1.3273  0.4045 -0.3895
10905TIP3   OH254129   3.618   0.465   0.979 -0.1688  0.0923 -0.4369
10905TIP3    H154130   3.627   0.523   1.055  0.8238 -0.3380 -0.2009
10905TIP3    H254131   3.652   0.381   1.009  0.8378  0.0737 -1.5197
10906TIP3   OH254132   2.331   0.264  16.140  0.5365  0.1073  0.0921
10906TIP3    H154133   2.321   0.174  16.110 -0.1603 -0.6434  2.3926
10906TIP3    H254134   2.242   0.297  16.147  0.7610  0.7778 -0.1039
10907TIP3   OH254135   2.980   5.522   5.978  0.6976  0.1446  0.1517
10907TIP3    H154136   3.028   5.440   5.974  1.5377  0.6527 -0.4741
10907TIP3    H254137   2.929   5.516   6.059 -1.3589 -2.1128 -1.1647
10908TIP3   OH254138   2.743   5.179  15.467 -0.5529  0.0387 -0.5309
10908TIP3    H154139   2.820   5.212  15.421  0.3095 -0.8207  0.2632
10908TIP3    H254140   2.767   5.091  15.496 -2.4959 -1.0138 -1.8465
10909TIP3   OH254141   1.097   0.310  16.093  0.5936  0.3229  0.3012
10909TIP3    H154142   1.134   0.230  16.056 -1.4742 -0.7264  0.3749
10909TIP3    H254143   1.121   0.378  16.031  1.5340 -0.5105 -0.2878
10910TIP3   OH254144   5.018   6.395  13.332 -0.0381 -0.3600 -0.0669
10910TIP3    H154145   4.959   6.337  13.284 -0.8475 -2.3361  2.9870
10910TIP3    H254146   4.973   6.412  13.415  2.2536  0.8240  1.0366
10911TIP3   OH254147   0.075   1.516  10.621  0.1436 -0.4712 -0.0208
10911TIP3    H154148   0.157   1.523  10.573  0.0388  0.0078 -0.1342
10911TIP3    H254149   0.069   1.599  10.670 -0.7321 -0.0881 -0.7482
10912TIP3   OH254150   0.500   0.571  10.840 -0.5591 -0.1519  0.0646
10912TIP3    H154151   0.484   0.530  10.925 -0.7679  3.4928  1.9724
10912TIP3    H254152   0.594   0.565  10.827 -0.5928 -1.2377  0.2211
10913TIP3   OH254153   3.135   0.894   6.394  0.0868  0.5274  0.6894
10913TIP3    H154154   3.112   0.987   6.403 -0.1881  0.9587 -3.0260
10913TIP3    H254155   3.215   0.895   6.340  0.3169 -1.3951  0.9460
10914TIP3   OH254156   6.762   5.481   2.188 -0.3813 -0.0565 -0.7428
10914TIP3    H154157   6.810   5.563   2.188 -2.3911  1.2070 -0.1814
10914TIP3    H254158   6.702   5.487   2.113 -1.8338 -0.1373  0.3524
10915TIP3   OH254159   4.980   4.572   6.359  0.5235  0.7910 -0.4369
10915TIP3    H154160   4.992   4.486   6.401  1.0659  0.2027 -1.7544
10915TIP3    H254161   5.054   4.624   6.391  1.0668  0.2727 -0.8250
10916TIP3   OH254162   5.720   6.048   5.078  1.4259  0.1113 -0.2547
10916TIP3    H154163   5.696   6.066   4.987 -0.2351  1.4653  0.4011
10916TIP3    H254164   5.638   6.019   5.119  1.6271  1.6247  1.3056
10917TIP3   OH254165   1.331   2.493   4.817  0.1355 -1.0560  0.0463
10917TIP3    H154166   1.289   2.475   4.902  0.4720  1.6543  0.8884
10917TIP3    H254167   1.390   2.419   4.804  0.7575 -1.1444  2.6724
10918TIP3   OH254168   4.829   6.674   4.522 -0.0549 -0.6928  0.1154
10918TIP3    H154169   4.811   6.767   4.517 -0.5197 -0.8447 -1.2503
10918TIP3    H254170   4.910   6.662   4.472  0.6869 -0.8717  1.2985
10919TIP3   OH254171   6.315   4.970  17.201  0.0157  0.4361  0.2493
10919TIP3    H154172   6.269   4.972  17.117 -0.2300 -0.9002  0.3267
10919TIP3    H254173   6.316   5.061  17.230  1.2109  1.1526 -1.7854
10920TIP3   OH254174   6.445   6.635   3.841 -0.1881 -0.1181 -0.2439
10920TIP3    H154175   6.423   6.576   3.769  3.1469 -1.7019 -0.1507
10920TIP3    H254176   6.361   6.671   3.869 -1.9787 -2.0599 -2.6738
10921TIP3   OH254177   1.148   6.780   5.524  0.6998  0.2652 -0.1494
10921TIP3    H154178   1.111   6.805   5.440  0.4215  1.3567  0.2788
10921TIP3    H254179   1.240   6.806   5.518  0.7701 -0.0159 -0.2639
10922TIP3   OH254180   6.416   4.540  11.327 -0.5774 -0.0109  0.4221
10922TIP3    H154181   6.487   4.480  11.351 -0.5719  0.9924  3.2821
10922TIP3    H254182   6.337   4.499  11.363 -1.0153  0.3342 -0.1226
10923TIP3   OH254183   6.529   3.083   3.857 -0.1348  0.0036 -0.0737
10923TIP3    H154184   6.499   3.140   3.928 -0.4237 -0.0360 -0.1619
10923TIP3    H254185   6.490   3.119   3.778  0.7097  0.4242 -0.3070
10924TIP3   OH254186   3.596   3.984  16.400 -0.0835  0.5981  0.3104
10924TIP3    H154187   3.643   4.014  16.322  1.6749 -2.1035  0.2144
10924TIP3    H254188   3.663   3.975  16.467 -0.9014 -0.7238  0.9929
10925TIP3   OH254189   5.926   5.160  16.589  0.3076 -0.5407 -0.1004
10925TIP3    H154190   5.902   5.241  16.545  0.0771 -0.9401 -0.7158
10925TIP3    H254191   6.015   5.142  16.560  0.2139 -0.7185 -0.2807
10926TIP3   OH254192   5.645   0.979   5.017 -0.3018 -0.4201  0.0593
10926TIP3    H154193   5.568   1.035   5.025 -0.7650 -1.0853  0.4337
10926TIP3    H254194   5.706   1.014   5.081 -0.2448  0.1837 -0.3206
10927TIP3   OH254195   3.613   0.078   4.233  0.2608 -0.5524 -0.1029
10927TIP3    H154196   3.566   0.066   4.150  0.6755  0.6108 -0.5254
10927TIP3    H254197   3.701   0.043   4.216  0.0524 -1.2313  0.1745
10928TIP3   OH254198   6.337   4.131   2.759 -0.3641 -0.3632 -0.4514
10928TIP3    H154199   6.392   4.144   2.835 -1.0637  0.1019 -0.0099
10928TIP3    H254200   6.389   4.077   2.700 -0.2600 -1.7749  0.8579
10929TIP3   OH254201   2.933   5.009  13.424 -0.4027  0.1019  0.8498
10929TIP3    H154202   2.910   5.101  13.416 -1.1816  0.0876  2.5721
10929TIP3    H254203   3.029   5.008  13.416 -0.5503  0.6585 -2.1269
10930TIP3   OH254204   5.268   6.476  13.835 -0.2663  0.9468  0.1100
10930TIP3    H154205   5.174   6.469  13.851 -0.2513 -0.9363 -0.3258
10930TIP3    H254206   5.281   6.432  13.751  1.0052  1.2428  0.1262
10931TIP3   OH254207   1.410   0.924   1.940  0.4572 -0.3641  0.0649
10931TIP3    H154208   1.475   0.855   1.928 -0.3288 -1.1728  0.3027
10931TIP3    H254209   1.418   0.948   2.033  2.9496  2.2003 -0.6876
10932TIP3   OH254210   5.437   3.840   1.785 -0.5410 -0.2604 -0.1197
10932TIP3    H154211   5.441   3.788   1.865 -0.0450  1.0759  0.7619
10932TIP3    H254212   5.355   3.813   1.744 -1.7569  0.3206  1.7779
10933TIP3   OH254213   0.152   0.983   2.734  0.5088  0.1788 -0.1744
10933TIP3    H154214   0.117   0.902   2.771  1.2053 -0.7982 -1.5324
10933TIP3    H254215   0.247   0.976   2.745  0.6445  0.3740 -1.0731
10934TIP3   OH254216   3.554   1.031   5.341  0.1471  0.2783  0.7900
10934TIP3    H154217   3.572   1.051   5.433  2.4058 -1.3190  0.7715
10934TIP3    H254218   3.616   1.083   5.291 -0.1304  0.0980  0.2374
10935TIP3   OH254219   0.683   3.848   1.240  0.5402 -0.1759  0.7643
10935TIP3    H154220   0.591   3.868   1.221 -0.2153 -3.9838 -0.2963
10935TIP3    H254221   0.701   3.894   1.322 -1.6624  2.1869  0.0770
10936TIP3   OH254222   2.058   0.226   5.668  0.2019  0.1458 -0.8807
10936TIP3    H154223   2.112   0.305   5.671  0.4318 -0.0398  1.4711
10936TIP3    H254224   2.120   0.154   5.661  0.3212 -0.0419  1.4131
10937TIP3   OH254225   2.379   5.840   0.237  0.5786  0.2710  0.0844
10937TIP3    H154226   2.382   5.918   0.181 -0.4213 -0.0913 -0.4939
10937TIP3    H254227   2.361   5.874   0.325 -1.1159  0.6292 -0.3644
10938TIP3   OH254228   1.290   6.023  13.913  0.2330  0.2435 -0.3206
10938TIP3    H154229   1.283   6.085  13.986 -0.3261  0.3213 -0.4354
10938TIP3    H254230   1.383   6.020  13.893  0.1509  1.9410 -1.0831
10939TIP3   OH254231   1.488   4.517   0.465 -0.1031 -0.0768 -0.1095
10939TIP3    H154232   1.451   4.545   0.381 -1.7552 -1.2072  0.1971
10939TIP3    H254233   1.444   4.434   0.484  1.7268 -0.8537  0.9251
10940TIP3   OH254234   1.422   0.714  16.649 -0.2514 -0.2620  1.1815
10940TIP3    H154235   1.360   0.779  16.683  0.4576  1.5067 -0.7142
10940TIP3    H254236   1.372   0.666  16.584 -0.5876 -1.2558  2.1329
10941TIP3   OH254237   0.121   3.511  14.355 -0.0340  0.5849  0.3970
10941TIP3    H154238   0.205   3.505  14.310 -0.3533 -0.2645 -0.1029
10941TIP3    H254239   0.114   3.429  14.404 -1.8506 -0.7031 -1.8685
10942TIP3   OH254240   3.993   6.349  12.277  0.3127 -0.2474  0.0518
10942TIP3    H154241   4.029   6.264  12.252  0.7161 -0.2887  0.7659
10942TIP3    H254242   4.057   6.386  12.338 -1.0413 -0.5106  1.7011
10943TIP3   OH254243   0.882   5.448  12.010 -0.1134  0.4576 -0.3310
10943TIP3    H154244   0.842   5.391  12.076 -0.0954  0.4949 -0.2885
10943TIP3    H254245   0.840   5.422  11.928  0.3922 -0.0887 -0.4190
10944TIP3   OH254246   1.469   5.784   2.419  0.1749 -0.7183 -0.2798
10944TIP3    H154247   1.400   5.770   2.484 -1.7319  3.1184 -1.2229
10944TIP3    H254248   1.513   5.699   2.413 -3.9131 -3.2215  0.9415
10945TIP3   OH254249   4.936   5.703   5.139 -0.5693 -0.1438  0.5467
10945TIP3    H154250   4.926   5.755   5.059 -0.5685 -0.9533  0.0017
10945TIP3    H254251   4.984   5.760   5.199 -1.0117  0.6630  0.1494
10946TIP3   OH254252   0.106   2.958   4.061 -0.2147 -0.2877 -0.6750
10946TIP3    H154253   0.096   3.034   4.119 -1.4685  0.3008 -1.6060
10946TIP3    H254254   0.187   2.974   4.014 -0.6181  0.6565 -1.0826
10947TIP3   OH254255   0.173   0.078   2.209  0.6265 -0.3616 -0.1102
10947TIP3    H154256   0.244   0.107   2.266 -0.2782 -0.6196  1.1957
10947TIP3    H254257   0.189   0.122   2.126  0.6308  1.9802  1.0612
10948TIP3   OH254258   0.399   4.769  13.792  0.5698  0.0305  0.2380
10948TIP3    H154259   0.375   4.726  13.711 -1.2291  1.4517 -0.0508
10948TIP3    H254260   0.419   4.859  13.767 -0.8910  0.7350  1.4246
10949TIP3   OH254261   1.358   3.917  11.535  0.1467  0.8224 -0.0905
10949TIP3    H154262   1.419   3.848  11.511 -0.4465  0.0881  0.4837
10949TIP3    H254263   1.375   3.987  11.472 -0.4628 -0.5218 -1.8020
10950TIP3   OH254264   6.462   4.515   1.569  0.5062 -0.2129 -0.8939
10950TIP3    H154265   6.391   4.578   1.578  0.0964 -0.8422  0.4452
10950TIP3    H254266   6.469   4.501   1.474 -0.3344  0.7581 -1.1206
10951TIP3   OH254267   5.475   3.199   1.141 -0.1107  0.1876 -0.0405
10951TIP3    H154268   5.568   3.181   1.133 -0.0220 -0.9139  2.6372
10951TIP3    H254269   5.459   3.202   1.235 -2.8273  0.1574 -0.4272
10952TIP3   OH254270   1.466   5.870  15.688  0.8196  0.4265  0.5377
10952TIP3    H154271   1.523   5.818  15.745  0.8044  0.1072  0.2645
10952TIP3    H254272   1.445   5.811  15.615 -1.3688 -0.1225  1.5333
10953TIP3   OH254273   1.030   5.115   3.716 -0.2449 -0.2875  0.2046
10953TIP3    H154274   0.999   5.171   3.645  1.0766  1.2477  0.7845
10953TIP3    H254275   1.056   5.175   3.785  1.7020 -1.5666  0.6785
10954TIP3   OH254276   1.076   0.663  12.046 -0.1483  0.2869  0.5690
10954TIP3    H154277   1.010   0.724  12.079  0.5412  1.5024 -0.2123
10954TIP3    H254278   1.073   0.673  11.951  0.0035 -0.8891  0.4278
10955TIP3   OH254279   3.901   2.451  13.284  0.3899  0.0705  0.0459
10955TIP3    H154280   3.831   2.458  13.219  1.5787 -0.0699 -1.3124
10955TIP3    H254281   3.917   2.357  13.291  0.7751  0.1290 -0.0349
10956TIP3   OH254282   2.812   1.996  15.083  0.5913  0.1411  0.3623
10956TIP3    H154283   2.730   2.035  15.113 -0.6159 -1.9560 -0.0199
10956TIP3    H254284   2.846   2.059  15.019  0.6580  2.2839  2.3790
10957TIP3   OH254285   1.853   2.604   1.278  0.0847  0.2757 -0.3778
10957TIP3    H154286   1.903   2.523   1.262  1.1463  0.5805  1.2027
10957TIP3    H254287   1.762   2.576   1.273  0.4218 -0.8618 -0.6587
10958TIP3   OH254288   2.479   6.129   2.371 -0.3104 -0.0746  0.3915
10958TIP3    H154289   2.427   6.051   2.387 -0.4987 -0.3861 -1.5022
10958TIP3    H254290   2.428   6.200   2.408 -1.3006 -0.5741  0.0297
10959TIP3   OH254291   2.833   3.336   6.022 -0.3122  0.0158  0.0675
10959TIP3    H154292   2.844   3.388   6.102  0.4102 -0.5005  0.3086
10959TIP3    H254293   2.762   3.275   6.042  0.2114 -0.4614  0.5066
10960TIP3   OH254294   1.598   0.411   3.523 -0.0077  0.3519  0.1361
10960TIP3    H154295   1.679   0.359   3.526 -0.7540 -0.8390  0.5324
10960TIP3    H254296   1.544   0.366   3.458 -0.3996  1.0665 -0.0364
10961TIP3   OH254297   0.879   2.489  12.913  0.1197 -0.3805 -0.1757
10961TIP3    H154298   0.833   2.407  12.927  1.0661 -0.5076  2.6734
10961TIP3    H254299   0.957   2.465  12.863 -0.0216 -1.0626 -0.0726
10962TIP3   OH254300   3.665   1.843  11.977 -0.1313  0.1208 -0.7004
10962TIP3    H154301   3.608   1.769  11.954 -0.5297 -0.2255  1.2686
10962TIP3    H254302   3.745   1.828  11.926  0.1314 -2.1543  0.2273
10963TIP3   OH254303   5.180   1.124   3.953 -0.0948  0.2519 -0.0395
10963TIP3    H154304   5.202   1.175   4.031  0.6360  1.0026 -0.7216
10963TIP3    H254305   5.137   1.046   3.987 -1.2668  1.3071  1.0417
10964TIP3   OH254306   0.787   5.463   3.351  0.5126  0.1472 -0.7408
10964TIP3    H154307   0.740   5.545   3.366  1.5307  0.5270  0.5323
10964TIP3    H254308   0.875   5.490   3.325  0.7461 -0.5494 -0.7023
10965TIP3   OH254309   3.265   3.514  12.787 -0.0106  0.2946  0.0731
10965TIP3    H154310   3.261   3.422  12.813  0.7771 -0.4934 -2.3967
10965TIP3    H254311   3.299   3.559  12.865  1.3070 -1.7617  0.7686
10966TIP3   OH254312   6.033   6.222   4.059 -0.0335  0.5351  0.0633
10966TIP3    H154313   5.967   6.276   4.104 -1.9442 -2.7729  1.6515
10966TIP3    H254314   6.111   6.232   4.113 -0.3328  1.6902  0.3198
10967TIP3   OH254315   6.383   3.693  11.372 -0.2906  1.0073  0.3380
10967TIP3    H154316   6.330   3.695  11.452 -0.4338 -0.2025  0.2994
10967TIP3    H254317   6.445   3.621  11.387 -0.8268  0.2471 -0.9240
10968TIP3   OH254318   6.554   2.879   1.261 -0.5410  0.0162  0.3964
10968TIP3    H154319   6.610   2.869   1.184 -0.1065 -0.9431  0.8185
10968TIP3    H254320   6.471   2.912   1.227  0.2103  1.2727 -0.2612
10969TIP3   OH254321   0.136   6.310  12.867  0.0782 -0.5661 -0.3774
10969TIP3    H154322   0.078   6.243  12.832  1.9927 -1.9039 -1.1227
10969TIP3    H254323   0.182   6.344  12.791 -0.6607  1.4777  0.0135
10970TIP3   OH254324   6.201   0.117   2.229  0.2559  0.2202  0.5756
10970TIP3    H154325   6.289   0.092   2.257  0.8181  1.7822  0.3232
10970TIP3    H254326   6.212   0.202   2.187 -0.5821 -1.5846 -3.9280
10971TIP3   OH254327   0.196   1.873   4.233 -0.1210  0.7415 -0.2196
10971TIP3    H154328   0.242   1.955   4.251  0.9904  0.4666 -1.6190
10971TIP3    H254329   0.250   1.806   4.273 -1.2428  0.6806  1.2817
10972TIP3   OH254330   5.127   4.752   0.650  0.2108 -0.7232  0.6772
10972TIP3    H154331   5.185   4.745   0.575 -0.5215 -1.0624  0.1326
10972TIP3    H254332   5.088   4.839   0.642  1.0686 -0.2624  1.3671
10973TIP3   OH254333   2.476   3.594   1.540 -0.3015  0.0298 -0.0249
10973TIP3    H154334   2.456   3.688   1.534 -0.9596 -0.0818  0.3585
10973TIP3    H254335   2.409   3.559   1.599 -0.5291 -0.8265 -0.7818
10974TIP3   OH254336   1.628   4.749  14.942 -0.8242  0.0623  0.0290
10974TIP3    H154337   1.716   4.712  14.939 -0.6790  0.3603  0.4070
10974TIP3    H254338   1.624   4.810  14.868 -0.2524  1.0245  0.7614
10975TIP3   OH254339   3.177   0.417   4.978 -0.1374 -0.0616  0.0326
10975TIP3    H154340   3.193   0.414   4.884 -2.2592 -0.1046 -0.3694
10975TIP3    H254341   3.219   0.498   5.007 -0.0804  0.3207 -1.0828
10976TIP3   OH254342   6.380   1.049  12.266 -0.2953  0.1218  0.4775
10976TIP3    H154343   6.440   0.981  12.296 -0.0295 -0.8197 -1.9437
10976TIP3    H254344   6.293   1.013  12.281 -0.1772 -0.1660  0.4679
10977TIP3   OH254345   3.897   3.774   4.600 -0.5461  0.1711  0.1382
10977TIP3    H154346   3.844   3.848   4.632 -1.3472 -0.8938  1.3989
10977TIP3    H254347   3.868   3.761   4.510 -0.1679  1.5710 -0.2100
10978TIP3   OH254348   4.198   0.618  13.902 -0.2473 -0.0683 -0.4361
10978TIP3    H154349   4.254   0.646  13.974  0.3128 -3.5892  0.6636
10978TIP3    H254350   4.122   0.579  13.944  0.6211 -3.2951 -1.5484
10979TIP3   OH254351   4.957   2.911   1.185  0.2677 -0.0326  0.5890
10979TIP3    H154352   4.889   2.956   1.234 -1.0768 -0.5571 -0.7432
10979TIP3    H254353   4.915   2.882   1.105  2.0283 -0.5003 -0.2261
10980TIP3   OH254354   6.032   1.136  12.661 -0.0047 -0.0694 -0.5100
10980TIP3    H154355   5.983   1.056  12.644 -1.4613  1.1325 -2.3316
10980TIP3    H254356   5.975   1.187  12.718  0.1071  0.4315 -0.8456
10981TIP3   OH254357   5.859   5.538  15.052 -0.6207 -0.4767  0.0637
10981TIP3    H154358   5.777   5.489  15.054 -0.7515 -0.2820 -0.4345
10981TIP3    H254359   5.891   5.528  14.962 -1.6145  1.9315 -0.6208
10982TIP3   OH254360   3.954   1.043   0.182  0.2528  0.0442  0.6987
10982TIP3    H154361   4.020   1.088   0.130 -0.8698 -0.4011 -1.2297
10982TIP3    H254362   3.876   1.098   0.175 -0.3895 -0.8657  0.4682
10983TIP3   OH254363   6.018   6.772  13.322 -0.1582 -0.2348  0.5539
10983TIP3    H154364   6.055   6.710  13.385  0.5282 -0.7891 -0.3634
10983TIP3    H254365   5.925   6.751  13.320  0.0355 -1.1469  0.3795
10984TIP3   OH254366   2.507   4.400   2.325  0.8646 -0.8681 -0.2599
10984TIP3    H154367   2.537   4.310   2.338 -0.3426 -1.3749 -0.8466
10984TIP3    H254368   2.572   4.453   2.371  1.9655 -1.9841 -0.4488
10985TIP3   OH254369   3.322   4.384  10.463 -0.2074 -0.5386 -0.8662
10985TIP3    H154370   3.251   4.334  10.505  1.0914 -0.5092  1.5694
10985TIP3    H254371   3.294   4.475  10.472  1.6091 -0.1472  3.6549
10986TIP3   OH254372   5.140   3.341   2.971 -0.4965  0.1201  0.5712
10986TIP3    H154373   5.049   3.372   2.973 -0.7438 -0.5969  0.6275
10986TIP3    H254374   5.142   3.267   3.032 -0.1678 -0.6469 -0.3488
10987TIP3   OH254375   4.567   6.558  10.983  0.5330  0.4327 -0.7942
10987TIP3    H154376   4.514   6.485  11.016  0.2584  0.5500 -0.9760
10987TIP3    H254377   4.641   6.563  11.044  1.1132 -0.6806 -1.3691
10988TIP3   OH254378   4.060   3.187   5.794  0.7299  0.2334 -0.0530
10988TIP3    H154379   4.128   3.125   5.822 -0.3277 -0.7353  0.4633
10988TIP3    H254380   3.983   3.132   5.778 -0.1447  1.3823  0.0991
10989TIP3   OH254381   1.460   2.676  11.266 -0.1569  0.8367  0.3602
10989TIP3    H154382   1.472   2.619  11.190  0.9330  0.4925  0.7634
10989TIP3    H254383   1.430   2.759  11.230  0.0822  0.5893 -0.4264
10990TIP3   OH254384   5.981   1.897  16.420 -0.5476  0.2893  0.4010
10990TIP3    H154385   5.946   1.966  16.363  0.0877  0.6495  0.4347
10990TIP3    H254386   5.913   1.830  16.421  0.1371 -0.5681 -2.2620
10991TIP3   OH254387   3.133   4.479  16.883 -0.0658  0.0007  0.0245
10991TIP3    H154388   3.088   4.402  16.918  0.5445  0.3508  1.6693
10991TIP3    H254389   3.069   4.518  16.824 -0.5238 -1.5614 -0.5751
10992TIP3   OH254390   6.510   1.377  14.706 -0.1317  0.5967 -0.2630
10992TIP3    H154391   6.424   1.376  14.747  0.4191 -1.0223  1.0023
10992TIP3    H254392   6.569   1.343  14.774  1.3554  0.8259 -1.3813
10993TIP3   OH254393   3.559   5.403   0.336 -0.2992 -0.0189  0.1874
10993TIP3    H154394   3.507   5.431   0.411 -0.5705  2.1360 -0.7437
10993TIP3    H254395   3.582   5.484   0.290 -0.6658 -1.2535 -2.3948
10994TIP3   OH254396   5.083   0.446  16.239 -0.1010  0.0696 -0.0679
10994TIP3    H154397   5.020   0.468  16.170 -0.4894 -0.7786 -0.0115
10994TIP3    H254398   5.074   0.516  16.304 -0.8108  0.0961 -0.1866
10995TIP3   OH254399   1.182   0.769  13.370  0.7623  0.6580  0.4109
10995TIP3    H154400   1.163   0.819  13.291  1.1252  0.2452  0.0566
10995TIP3    H254401   1.155   0.679  13.349 -0.2138  0.7574  1.1575
10996TIP3   OH254402   4.713   2.724   5.500 -0.6017  0.0736 -0.3593
10996TIP3    H154403   4.657   2.680   5.436 -1.5129  1.2450 -0.4113
10996TIP3    H254404   4.764   2.654   5.539 -0.4833 -0.7465 -1.9112
10997TIP3   OH254405   5.830   0.024  16.418  0.3820 -0.5806  0.1418
10997TIP3    H154406   5.814   0.091  16.485  1.1066 -2.1162  1.9400
10997TIP3    H254407   5.914   0.047  16.380  0.3696 -0.1653  0.3575
10998TIP3   OH254408   4.059   6.637  13.389  0.3813 -0.4864  0.1376
10998TIP3    H154409   4.053   6.600  13.477  1.0095  0.1635  0.4675
10998TIP3    H254410   4.102   6.570  13.337 -1.4811 -1.5688 -0.1072
10999TIP3   OH254411   1.557   1.802   4.686 -0.0479  0.6567 -0.1761
10999TIP3    H154412   1.606   1.821   4.606  1.3204 -0.1898  0.4345
10999TIP3    H254413   1.605   1.732   4.729 -2.7825 -1.5571 -0.4330
11000TIP3   OH254414   2.349   1.754  15.699  1.0184 -0.7371 -0.7571
11000TIP3    H154415   2.396   1.775  15.618 -0.7981  0.1133 -1.6325
11000TIP3    H254416   2.332   1.660  15.693  3.4517 -1.3072  0.0875
11001TIP3   OH254417   6.390   2.929   4.764 -0.3855  0.2119 -0.7160
11001TIP3    H154418   6.451   2.972   4.704 -0.7299  0.1611 -1.1033
11001TIP3    H254419   6.392   2.984   4.843 -2.0072  1.8664 -1.7757
11002TIP3   OH254420   5.683   1.869  15.123  0.2447 -0.4288 -0.0456
11002TIP3    H154421   5.620   1.799  15.105 -0.1176 -0.1220  0.0386
11002TIP3    H254422   5.639   1.926  15.186  0.9058 -0.6424  0.6314
11003TIP3   OH254423   6.120   3.207  12.117 -0.7492  0.4144 -1.0855
11003TIP3    H154424   6.190   3.196  12.181 -0.3783  0.2582 -1.5124
11003TIP3    H254425   6.148   3.281  12.063 -1.1213  0.6273 -0.9928
11004TIP3   OH254426   0.131   4.435  10.409 -0.0750 -0.0587  0.3437
11004TIP3    H154427   0.175   4.350  10.413 -0.6776 -0.5290 -1.6534
11004TIP3    H254428   0.070   4.426  10.336 -0.1519  2.1056  0.0881
11005TIP3   OH254429   0.473   5.378  11.910 -0.0704  0.3595  0.4103
11005TIP3    H154430   0.567   5.361  11.902 -0.0661  1.1742 -1.9182
11005TIP3    H254431   0.440   5.302  11.958  1.7763  0.1223  1.4240
11006TIP3   OH254432   6.361   1.067  13.411 -1.0453  0.2219  0.2912
11006TIP3    H154433   6.265   1.064  13.415 -1.0313  0.9365  1.8945
11006TIP3    H254434   6.386   1.117  13.489  0.6647 -0.5193  0.2470
11007TIP3   OH254435   0.354   3.159   1.512 -0.5319  0.3182 -0.5490
11007TIP3    H154436   0.294   3.093   1.479 -0.6384 -0.3510  0.9216
11007TIP3    H254437   0.441   3.126   1.489 -0.5654 -0.5288  0.4664
11008TIP3   OH254438   3.025   5.943  14.876  0.5380  0.2925 -0.2178
11008TIP3    H154439   2.949   5.923  14.930 -0.0366 -0.2213 -1.1855
11008TIP3    H254440   3.030   5.871  14.813  1.1202  0.9169 -0.9143
11009TIP3   OH254441   3.938   0.946   6.222  0.0762 -0.9168  0.1878
11009TIP3    H154442   4.026   0.939   6.187  0.9415 -0.4702  2.1339
11009TIP3    H254443   3.950   0.981   6.310 -2.2106  1.5768 -0.3531
11010TIP3   OH254444   5.911   4.668  15.688  0.0336 -0.2724  0.9807
11010TIP3    H154445   5.961   4.728  15.633 -0.7498 -0.0674  0.4734
11010TIP3    H254446   5.944   4.684  15.776  0.1105  0.6335  0.8031
11011TIP3   OH254447   0.313   2.278   2.458 -0.6588 -0.2019  0.1343
11011TIP3    H154448   0.373   2.204   2.455  1.0280  1.1189 -0.7415
11011TIP3    H254449   0.263   2.272   2.376  1.4967  1.1506 -1.3736
11012TIP3   OH254450   0.402   4.689   5.886 -0.3061  0.4697  0.0518
11012TIP3    H154451   0.365   4.680   5.974  0.2929 -0.1857  0.2476
11012TIP3    H254452   0.472   4.624   5.883 -1.2188 -0.5020 -1.3953
11013TIP3   OH254453   0.517   4.306  11.918  0.0332 -0.2511  0.1314
11013TIP3    H154454   0.438   4.337  11.963 -0.6304  2.3690 -2.5630
11013TIP3    H254455   0.510   4.211  11.922 -0.8729 -0.2176  3.8098
11014TIP3   OH254456   5.395   4.631   2.956 -0.0868 -0.5183  0.5112
11014TIP3    H154457   5.456   4.704   2.963  0.2237 -0.6537 -0.5356
11014TIP3    H254458   5.406   4.582   3.037 -0.1956  0.5059  1.1613
11015TIP3   OH254459   3.998   3.573   2.084  0.3449  0.6153 -0.2059
11015TIP3    H154460   3.927   3.580   2.147 -0.0273 -1.6037 -0.3202
11015TIP3    H254461   3.960   3.531   2.007  1.8063 -0.9461 -0.1423
11016TIP3   OH254462   0.764   3.596  13.791  0.1876  0.1137 -0.0834
11016TIP3    H154463   0.678   3.626  13.761  0.2193 -0.0270 -0.3136
11016TIP3    H254464   0.764   3.502  13.773 -0.3236 -0.2453  1.6020
11017TIP3   OH254465   1.932   1.243   5.762 -0.1379 -0.2490  0.3424
11017TIP3    H154466   1.914   1.282   5.848 -1.3453 -0.6135  0.2741
11017TIP3    H254467   1.887   1.159   5.764  1.3339 -1.0639 -0.0028
11018TIP3   OH254468   5.410   0.927  13.053 -0.0726 -0.0393 -0.1526
11018TIP3    H154469   5.392   1.006  13.000  1.6831 -0.1468 -0.9860
11018TIP3    H254470   5.436   0.961  13.138  0.0251  0.2649 -0.3013
11019TIP3   OH254471   3.499   3.648  12.684 -0.2944 -0.3739  0.7834
11019TIP3    H154472   3.448   3.658  12.764  0.9248 -0.0470  1.5526
11019TIP3    H254473   3.497   3.554  12.667 -0.6656 -0.4329  1.1247
11020TIP3   OH254474   4.786   0.798   0.382  0.5104 -0.3358 -0.4175
11020TIP3    H154475   4.790   0.867   0.316 -1.7248  0.7848  0.5033
11020TIP3    H254476   4.874   0.797   0.420  1.2807  0.2995 -2.0920
11021TIP3   OH254477   1.440   0.277   2.334  0.0301  0.1531 -0.4299
11021TIP3    H154478   1.441   0.221   2.412  2.6464  2.2188  1.2070
11021TIP3    H254479   1.505   0.237   2.275 -0.5418 -0.3310 -0.7474
11022TIP3   OH254480   5.260   6.533   4.716  0.1495  0.6640 -0.2913
11022TIP3    H154481   5.341   6.506   4.760  1.4208  2.8726 -1.1031
11022TIP3    H254482   5.250   6.471   4.644  1.6388  0.8661 -0.7011
11023TIP3   OH254483   4.505   0.131  15.307  0.0574 -0.2021  0.2458
11023TIP3    H154484   4.476   0.047  15.343 -1.3785  0.5829  1.0028
11023TIP3    H254485   4.528   0.184  15.384 -1.2695  0.8655 -0.0467
11024TIP3   OH254486   3.990   3.972   1.305  0.4078  0.1736  0.4627
11024TIP3    H154487   4.062   3.915   1.331  0.2128 -0.9662 -1.3161
11024TIP3    H254488   3.925   3.963   1.375  0.2532 -2.0578  0.1126
11025TIP3   OH254489   6.615   1.564  15.925  0.6738  0.4075  0.0928
11025TIP3    H154490   6.563   1.642  15.946  1.0749  0.8563 -0.5379
11025TIP3    H254491   6.703   1.598  15.908  0.3377  0.1832 -2.6659
11026TIP3   OH254492   1.736   4.283   3.013 -0.6318 -0.1012 -0.5459
11026TIP3    H154493   1.641   4.287   3.002 -0.8193 -0.9490  0.5176
11026TIP3    H254494   1.757   4.189   3.012  0.0721  0.0348  0.0505
11027TIP3   OH254495   4.322   6.287   1.993  0.0127 -0.8094 -0.1611
11027TIP3    H154496   4.382   6.229   1.945  1.2308  1.0253 -0.9501
11027TIP3    H254497   4.350   6.281   2.084  1.6990  0.2931 -0.5651
11028TIP3   OH254498   1.326   6.342  16.687  0.5936 -0.2979 -0.2295
11028TIP3    H154499   1.243   6.369  16.647  1.5649  0.4219 -1.8803
11028TIP3    H254500   1.388   6.409  16.659  2.1399 -1.8545 -0.6539
11029TIP3   OH254501   6.433   4.079   6.444 -0.0416  0.3382 -0.0095
11029TIP3    H154502   6.487   4.017   6.396  0.1259  0.6866 -0.2766
11029TIP3    H254503   6.488   4.156   6.455  0.7738 -0.5144  2.7319
11030TIP3   OH254504   1.542   5.516   2.365 -0.0398 -0.2066 -0.0141
11030TIP3    H154505   1.568   5.470   2.444 -1.8036 -0.5959  0.3752
11030TIP3    H254506   1.551   5.451   2.295  2.0085  0.2826 -0.2701
11031TIP3   OH254507   2.082   2.790  12.202 -0.4281  0.0270 -0.1541
11031TIP3    H154508   2.046   2.718  12.151  1.0787 -0.2363 -0.8847
11031TIP3    H254509   2.044   2.869  12.164 -0.6110 -0.2684 -0.5804
11032TIP3   OH254510   4.611   3.481  11.377 -0.2713 -0.1050  0.2161
11032TIP3    H154511   4.634   3.496  11.468 -0.0058  1.5483 -0.0908
11032TIP3    H254512   4.693   3.457  11.334  0.1107  1.5791 -0.0492
11033TIP3   OH254513   2.078   5.628  17.264  0.3029 -0.3857 -0.1733
11033TIP3    H154514   2.099   5.628  17.357 -0.2885  0.1597 -0.0290
11033TIP3    H254515   2.098   5.717  17.235 -0.2019 -0.3386 -0.3963
11034TIP3   OH254516   3.214   4.387   6.310  0.3902  0.2177  0.7039
11034TIP3    H154517   3.274   4.442   6.261  0.5341 -0.5974 -0.0599
11034TIP3    H254518   3.174   4.330   6.244 -1.0060  0.5361  1.2231
11035TIP3   OH254519   4.020   3.303  17.170  0.2545 -0.3575 -0.1056
11035TIP3    H154520   3.984   3.349  17.094 -1.0721 -0.4133  0.4539
11035TIP3    H254521   3.948   3.246  17.199  0.5154  0.1308  1.5759
11036TIP3   OH254522   3.916   5.008  11.334 -0.8144 -0.9160 -0.0435
11036TIP3    H154523   3.956   5.001  11.247  1.4706 -1.6043  0.9850
11036TIP3    H254524   3.982   5.053  11.387 -1.5816 -1.7238  1.6680
11037TIP3   OH254525   3.258   3.394   1.433  0.0631  0.0343  0.2362
11037TIP3    H154526   3.320   3.460   1.403 -0.7472  0.2584 -0.9993
11037TIP3    H254527   3.224   3.428   1.516  1.1633  0.1632  0.6548
11038TIP3   OH254528   0.470   2.358  13.682  0.1288  0.2285 -0.1366
11038TIP3    H154529   0.399   2.414  13.651 -0.3772 -0.5654 -0.4446
11038TIP3    H254530   0.425   2.283  13.721  0.7956 -0.0772  0.0422
11039TIP3   OH254531   4.961   1.479  12.010  0.3341 -0.0137 -0.2406
11039TIP3    H154532   4.888   1.443  11.959 -1.8822  1.8610  1.3442
11039TIP3    H254533   5.006   1.539  11.950  1.1796 -1.8425 -1.4979
11040TIP3   OH254534   3.599   2.287   4.513 -0.4309  0.6381 -0.1316
11040TIP3    H154535   3.567   2.197   4.508  1.5638 -0.1376  0.4052
11040TIP3    H254536   3.534   2.332   4.568 -0.2566 -1.0399  1.5572
11041TIP3   OH254537   3.210   5.386  16.343  0.4366 -0.4257  0.1926
11041TIP3    H154538   3.177   5.462  16.295  1.4411  0.2684  0.5845
11041TIP3    H254539   3.138   5.363  16.402  0.3867  0.6974  0.6043
11042TIP3   OH254540   0.132   2.740  16.420 -0.1900  0.6965 -0.1899
11042TIP3    H154541   0.149   2.713  16.510  0.5189 -1.3299 -0.8582
11042TIP3    H254542   0.155   2.832  16.417  0.5860  0.5865  1.5076
11043TIP3   OH254543   6.578   3.611   3.020 -0.3705  0.3342 -0.1724
11043TIP3    H154544   6.561   3.553   3.095  2.6603  1.1036  1.2474
11043TIP3    H254545   6.526   3.689   3.039 -1.0879 -0.2040  0.1369
11044TIP3   OH254546   5.950   1.570   3.623 -0.5362 -0.3333 -0.6228
11044TIP3    H154547   5.910   1.640   3.674 -1.2493 -1.0567 -0.1664
11044TIP3    H254548   5.945   1.601   3.532  2.0031  1.5914 -0.2120
11045TIP3   OH254549   1.773   1.250   1.424 -0.0341  0.4260 -0.1979
11045TIP3    H154550   1.711   1.318   1.398  0.8788  1.8373  1.0808
11045TIP3    H254551   1.849   1.299   1.457  0.9659 -1.2332  0.0850
11046TIP3   OH254552   1.178   2.664   0.407 -0.0782 -0.2915  0.4156
11046TIP3    H154553   1.089   2.647   0.376  0.0286  1.6563 -1.2034
11046TIP3    H254554   1.195   2.596   0.471 -2.1472 -1.6699 -0.3993
11047TIP3   OH254555   1.836   4.967  11.681  0.0236 -0.3180  0.0600
11047TIP3    H154556   1.877   5.053  11.673 -0.2991 -0.1256  0.4307
11047TIP3    H254557   1.808   4.962  11.772  0.9345 -1.2287  0.3084
11048TIP3   OH254558   6.207   4.166   3.190 -0.2639 -0.1657 -0.1827
11048TIP3    H154559   6.179   4.075   3.201  0.3968 -0.5207 -1.2668
11048TIP3    H254560   6.299   4.160   3.164 -0.4324  0.7637 -1.0735
11049TIP3   OH254561   1.246   2.616   5.687 -0.1718 -0.0092 -0.0369
11049TIP3    H154562   1.199   2.689   5.728  1.1160  1.0074 -0.3011
11049TIP3    H254563   1.278   2.565   5.761  2.1299  1.8097  0.3330
11050TIP3   OH254564   0.460   1.767  16.504  0.2085  0.2542  0.1163
11050TIP3    H154565   0.503   1.838  16.553  1.4777 -0.8771  0.7132
11050TIP3    H254566   0.453   1.695  16.567  1.2141 -0.9848 -1.1072
11051TIP3   OH254567   6.441   5.261   3.435  0.0608  0.0977 -0.2418
11051TIP3    H154568   6.452   5.298   3.347  1.1794 -0.3355 -0.3038
11051TIP3    H254569   6.428   5.337   3.492 -1.3291  0.3506 -0.8521
11052TIP3   OH254570   2.689   0.567   6.361  0.3702 -0.3440  0.1053
11052TIP3    H154571   2.634   0.584   6.439 -0.6769  0.2633 -0.7355
11052TIP3    H254572   2.771   0.613   6.379 -0.0929  0.3191  0.5944
11053TIP3   OH254573   2.801   4.868   4.808 -0.0888 -0.0166 -0.5124
11053TIP3    H154574   2.747   4.848   4.732  0.1825 -2.3780 -0.1762
11053TIP3    H254575   2.747   4.842   4.883  1.0591 -1.4338 -0.1267
11054TIP3   OH254576   2.659   0.435  13.752 -0.5281 -0.0069 -0.5842
11054TIP3    H154577   2.601   0.462  13.823 -0.7646  1.0593 -1.1772
11054TIP3    H254578   2.706   0.514  13.727 -1.8252  0.1395 -2.9049
11055TIP3   OH254579   0.425   3.242  11.926 -0.0299 -0.7086 -0.1215
11055TIP3    H154580   0.481   3.272  11.855 -1.0639 -1.5933 -1.3578
11055TIP3    H254581   0.378   3.166  11.890 -1.5399 -0.3954  1.0560
11056TIP3   OH254582   1.723   4.929  16.163  0.0440 -0.4661  0.1564
11056TIP3    H154583   1.640   4.890  16.135  0.3057 -0.7547 -0.2352
11056TIP3    H254584   1.790   4.880  16.114  0.6291 -1.9810  2.3407
11057TIP3   OH254585   4.343   2.173   3.594  0.5513  0.5504 -0.2233
11057TIP3    H154586   4.371   2.214   3.676 -1.9591  1.0179  0.4699
11057TIP3    H254587   4.248   2.174   3.598  0.3792 -1.0964 -2.3538
11058TIP3   OH254588   1.865   1.624   1.878  0.0145 -0.2057  0.3855
11058TIP3    H154589   1.907   1.698   1.835 -1.3689  1.1215  1.1970
11058TIP3    H254590   1.933   1.587   1.934  0.9717 -0.0905 -0.6629
11059TIP3   OH254591   3.129   5.622  11.792  0.0369 -0.3646  0.0282
11059TIP3    H154592   3.099   5.593  11.705  1.0171 -2.1788  0.2536
11059TIP3    H254593   3.191   5.692  11.773  0.0569 -0.5784 -0.7354
11060TIP3   OH254594   6.606   3.490   0.266  0.4890 -0.3375 -0.3789
11060TIP3    H154595   6.520   3.474   0.304  0.9378 -0.7777  0.4772
11060TIP3    H254596   6.655   3.533   0.336  0.8762  0.1941 -0.9645
11061TIP3   OH254597   4.493   5.526  11.211 -0.0589 -0.1322  0.1465
11061TIP3    H154598   4.565   5.463  11.212 -0.1252 -0.2089  0.0794
11061TIP3    H254599   4.427   5.488  11.269  0.2978  0.3447  0.8812
11062TIP3   OH254600   0.197   6.102  15.946 -0.0941 -0.2539  0.2001
11062TIP3    H154601   0.221   6.012  15.924  0.7865 -0.1419  0.6440
11062TIP3    H254602   0.123   6.122  15.890 -0.3917 -1.3097  0.2037
11063TIP3   OH254603   2.965   1.907   5.263 -0.2476 -0.5784  0.0405
11063TIP3    H154604   2.886   1.939   5.219  1.4019  0.7650 -2.1500
11063TIP3    H254605   3.028   1.892   5.192  1.8511 -0.4592  1.7715
11064TIP3   OH254606   2.025   6.197  12.656  0.3868  0.2723 -0.0600
11064TIP3    H154607   2.025   6.216  12.562  0.7919  1.1257  0.1017
11064TIP3    H254608   2.061   6.276  12.696  0.2225 -0.0882  0.8157
11065TIP3   OH254609   0.399   4.796   1.214  0.2231  0.0024 -0.2113
11065TIP3    H154610   0.449   4.756   1.284 -0.2560 -0.6107 -0.2120
11065TIP3    H254611   0.360   4.723   1.167 -2.9629  0.4559  1.4678
11066TIP3   OH254612   1.655   3.461  12.024 -0.3447  0.7572  0.0154
11066TIP3    H154613   1.683   3.430  12.111 -1.7676 -0.1650  0.1686
11066TIP3    H254614   1.567   3.494  12.037 -0.4342  0.9547 -1.0180
11067TIP3   OH254615   1.222   2.541  14.152  0.0327  0.2318  0.3610
11067TIP3    H154616   1.151   2.541  14.088  1.1289  0.6811 -0.9047
11067TIP3    H254617   1.212   2.622  14.200 -1.4594 -0.6160  1.5641
11068TIP3   OH254618   4.236   4.323   5.231  1.0928 -0.0864  0.2220
11068TIP3    H154619   4.229   4.287   5.143  0.2625  1.7312 -0.5157
11068TIP3    H254620   4.221   4.249   5.290 -0.9678 -0.8556 -1.1951
11069TIP3   OH254621   1.126   0.116  16.672  0.3154 -0.1430  0.4595
11069TIP3    H154622   1.177   0.120  16.591  1.7309  0.8749  1.3541
11069TIP3    H254623   1.084   0.201  16.678  2.4265  0.8890  2.1024
11070TIP3   OH254624   6.703   5.956  17.214  0.4570  0.3241  0.6052
11070TIP3    H154625   6.683   5.955  17.120 -0.1877  1.5941  0.7034
11070TIP3    H254626   6.674   5.871  17.246 -2.0767  0.9504  0.1866
11071TIP3   OH254627   4.954   1.221   4.847  0.1069 -0.0776 -0.2267
11071TIP3    H154628   4.890   1.254   4.785  1.3222 -1.5999 -2.4441
11071TIP3    H254629   5.039   1.249   4.812  0.7992 -0.1425  1.2969
11072TIP3   OH254630   1.891   5.753   5.206  0.3909 -0.8967 -0.5622
11072TIP3    H154631   1.816   5.811   5.204  1.4102  0.5491  0.7220
11072TIP3    H254632   1.870   5.688   5.272  0.0291 -0.8346 -0.6170
11073TIP3   OH254633   4.843   2.053   1.275  0.0979  0.1601  0.1712
11073TIP3    H154634   4.860   2.123   1.213  2.0762 -0.5907 -0.1833
11073TIP3    H254635   4.854   1.972   1.225 -2.2214 -0.4807  0.5454
11074TIP3   OH254636   2.189   1.063  15.565  0.0955 -0.0274  0.0676
11074TIP3    H154637   2.271   1.069  15.615 -0.2531 -0.3526  0.6919
11074TIP3    H254638   2.122   1.046  15.631 -0.4857  0.2592 -0.4364
11075TIP3   OH254639   0.106   5.679   0.998  0.7463  0.4662 -0.1657
11075TIP3    H154640   0.127   5.712   1.085  0.0443  1.7460 -0.4688
11075TIP3    H254641   0.016   5.649   1.005  1.4045 -1.6357  0.1476
11076TIP3   OH254642   4.835   2.917   0.208  0.0629 -0.2626 -0.1242
11076TIP3    H154643   4.842   2.822   0.209 -1.0683 -0.3817  1.5999
11076TIP3    H254644   4.742   2.934   0.190 -0.1302  0.4295  1.3754
11077TIP3   OH254645   1.804   6.455  12.457  0.5778 -0.1584  0.8567
11077TIP3    H154646   1.844   6.411  12.382  1.2891  0.9442  0.5580
11077TIP3    H254647   1.861   6.433  12.531  1.1366  0.5235  0.6399
11078TIP3   OH254648   6.048   2.500   4.777 -0.4895 -0.0504  0.0231
11078TIP3    H154649   5.962   2.542   4.789  0.3601  2.6126 -2.1434
11078TIP3    H254650   6.096   2.522   4.856 -1.2864 -0.2595  0.5865
11079TIP3   OH254651   0.891   0.614  13.015  0.4015  0.5101 -0.6667
11079TIP3    H154652   0.974   0.657  13.039  0.8299 -1.1812  1.0787
11079TIP3    H254653   0.863   0.570  13.095 -2.0158  0.7050 -1.3397
11080TIP3   OH254654   2.821   0.153  13.302 -0.0583  0.1926 -0.0561
11080TIP3    H154655   2.877   0.110  13.238  0.6026  0.6029  0.2320
11080TIP3    H254656   2.769   0.083  13.340  0.7565 -0.3021  0.1607
11081TIP3   OH254657   4.587   2.323  16.949 -0.2358  1.2740  0.1569
11081TIP3    H154658   4.612   2.362  17.033 -2.5852  2.1073  0.5432
11081TIP3    H254659   4.536   2.246  16.972  0.2005  0.7669 -0.5446
11082TIP3   OH254660   0.529   3.364  16.522 -0.4281 -0.1721 -0.4262
11082TIP3    H154661   0.539   3.457  16.541 -2.0140  0.3727 -2.0094
11082TIP3    H254662   0.482   3.329  16.597  0.0232  0.3339  0.0990
11083TIP3   OH254663   3.930   3.827   5.258 -0.6076  0.2390  0.5984
11083TIP3    H154664   3.849   3.864   5.293 -1.7302  0.7981 -2.3546
11083TIP3    H254665   3.938   3.741   5.301 -1.6188  1.0283  2.4440
11084TIP3   OH254666   2.510   6.377  16.045 -0.2535  0.2150  0.3313
11084TIP3    H154667   2.501   6.281  16.049 -2.5342  0.3566 -0.0631
11084TIP3    H254668   2.496   6.406  16.136 -1.1447  0.2554  0.1894
11085TIP3   OH254669   5.396   0.881  15.812  0.0538 -0.2011  0.1078
11085TIP3    H154670   5.327   0.915  15.869  1.7498  1.0844  1.4820
11085TIP3    H254671   5.454   0.832  15.870  1.3366  0.3666 -0.6397
11086TIP3   OH254672   4.519   4.504   0.286 -0.7504 -0.6591 -0.8241
11086TIP3    H154673   4.520   4.521   0.380  0.2744  2.1655 -1.2502
11086TIP3    H254674   4.512   4.409   0.279 -1.9673 -0.8818  2.0608
11087TIP3   OH254675   0.708   4.228  14.201 -0.1586 -0.0737  0.2432
11087TIP3    H154676   0.750   4.231  14.115 -0.6716 -2.3659 -0.1552
11087TIP3    H254677   0.673   4.316  14.213  1.2291  0.7434 -1.1973
11088TIP3   OH254678   3.392   3.954   2.692  0.1433  0.0744 -0.3901
11088TIP3    H154679   3.327   4.010   2.735 -0.0600 -0.4422 -0.0271
11088TIP3    H254680   3.458   4.016   2.660  1.4382  0.3655  2.5475
11089TIP3   OH254681   3.389   5.768   3.775  0.8965 -0.4935 -0.1511
11089TIP3    H154682   3.408   5.724   3.857 -0.7876  0.4382  0.7879
11089TIP3    H254683   3.294   5.777   3.773  0.9694  0.4185 -1.7212
11090TIP3   OH254684   6.600   0.897   0.969 -0.2667 -0.2099  0.1613
11090TIP3    H154685   6.646   0.834   0.914  0.4272 -0.1203  0.6295
11090TIP3    H254686   6.640   0.888   1.056 -1.5275 -0.5460  0.7303
11091TIP3   OH254687   0.329   0.111  16.662  0.3074 -0.3347 -0.0143
11091TIP3    H154688   0.300   0.041  16.604  0.0662 -1.5243  1.4875
11091TIP3    H254689   0.248   0.147  16.699  0.4047  0.9886 -1.0100
11092TIP3   OH254690   6.404   5.984   6.505 -0.7408 -0.5887  0.3707
11092TIP3    H154691   6.466   6.008   6.574 -0.1773 -0.4946 -0.1620
11092TIP3    H254692   6.354   5.911   6.541 -1.5995  0.5145  1.5257
11093TIP3   OH254693   0.961   0.119   0.529 -0.7212 -0.1988 -0.2506
11093TIP3    H154694   0.885   0.116   0.471  0.2341  1.4975 -1.6890
11093TIP3    H254695   1.023   0.057   0.491  0.0590  1.1990 -1.3413
11094TIP3   OH254696   5.082   3.975   1.480 -0.5797  0.2712 -0.4366
11094TIP3    H154697   5.035   3.982   1.397 -1.4621 -2.7437 -0.3043
11094TIP3    H254698   5.036   4.034   1.539 -2.5313 -0.5645 -1.0550
11095TIP3   OH254699   3.587   6.322   3.078  0.0278 -0.1368 -0.6269
11095TIP3    H154700   3.532   6.248   3.104 -0.8287 -0.0597 -2.0890
11095TIP3    H254701   3.554   6.347   2.992  1.4861  0.8098 -0.9483
11096TIP3   OH254702   3.184   5.098   5.448 -0.0870 -0.0402 -0.0535
11096TIP3    H154703   3.144   5.132   5.528 -0.8784  1.8259 -1.1693
11096TIP3    H254704   3.117   5.110   5.381  1.3346  0.5612 -1.4319
11097TIP3   OH254705   1.566   2.560  12.861  0.2034 -0.1722  0.0388
11097TIP3    H154706   1.517   2.594  12.936  1.1655  0.2104  0.5208
11097TIP3    H254707   1.643   2.519  12.900  1.0052  0.5334 -0.7567
11098TIP3   OH254708   5.712   0.989   3.461  0.0964 -0.5103  0.2967
11098TIP3    H154709   5.632   0.982   3.513  0.3946 -0.6468  0.7480
11098TIP3    H254710   5.713   1.080   3.430 -0.4487 -0.6260 -0.0745
11099TIP3   OH254711   3.594   0.833  13.743  0.0340  0.1271  0.0844
11099TIP3    H154712   3.647   0.793  13.674  2.1048  0.7288  1.2558
11099TIP3    H254713   3.574   0.920  13.709 -0.9065 -0.3695 -0.6866
11100TIP3   OH254714   0.752   3.807  11.127 -0.5840  0.2169  0.2072
11100TIP3    H154715   0.779   3.786  11.038 -1.0322  0.9021 -0.0971
11100TIP3    H254716   0.658   3.826  11.120 -0.6123  0.3200  0.8154
11101TIP3   OH254717   1.788   6.540  13.027  0.3635  0.0470  0.2912
11101TIP3    H154718   1.820   6.573  13.111  2.3960 -0.2004 -0.3430
11101TIP3    H254719   1.782   6.445  13.039  1.8603 -0.1341 -0.1788
11102TIP3   OH254720   5.532   2.763   0.187  0.3497 -0.1924  0.0617
11102TIP3    H154721   5.480   2.835   0.152 -0.0851  1.1154  3.1046
11102TIP3    H254722   5.623   2.786   0.165  0.0665  0.1828 -0.7659
11103TIP3   OH254723   6.220   6.736   3.941  0.3405  0.0896  0.9242
11103TIP3    H154724   6.191   6.825   3.960 -0.1874 -0.1999  1.5015
11103TIP3    H254725   6.144   6.694   3.900  0.9714  0.2462 -0.4945
11104TIP3   OH254726   5.602   6.266  13.670  0.2221  0.2717 -0.2997
11104TIP3    H154727   5.527   6.214  13.698 -0.8297 -0.0910 -3.3925
11104TIP3    H254728   5.667   6.201  13.643  0.4514  0.5863 -0.5088
11105TIP3   OH254729   6.147   2.204  15.318  0.0644  0.3697  0.4085
11105TIP3    H154730   6.131   2.111  15.301 -0.2228  0.4864  0.0262
11105TIP3    H254731   6.211   2.230  15.252 -1.1676  0.8611 -0.6638
11106TIP3   OH254732   6.542   0.600  14.718 -0.2872 -0.3424 -0.1173
11106TIP3    H154733   6.470   0.661  14.702 -1.0147 -1.3125 -0.7008
11106TIP3    H254734   6.617   0.636  14.672 -0.9914 -0.4258 -1.3555
11107TIP3   OH254735   3.385   5.851   5.792 -0.4296  0.0988 -0.2994
11107TIP3    H154736   3.480   5.846   5.783 -0.0762 -1.6076  2.9161
11107TIP3    H254737   3.351   5.788   5.728  0.9841 -2.8167  1.6041
11108TIP3   OH254738   3.055   6.403   1.977  0.4724  0.3492  0.1915
11108TIP3    H154739   3.140   6.402   2.021  1.6449  1.5785 -1.8525
11108TIP3    H254740   3.030   6.311   1.969  0.8727  0.0407  2.1271
11109TIP3   OH254741   0.014   4.737  13.392 -0.3330 -0.1215 -0.6050
11109TIP3    H154742   0.003   4.829  13.370  0.5119 -0.1801 -1.3417
11109TIP3    H254743   0.089   4.709  13.340  0.6664 -0.7335  1.0799
11110TIP3   OH254744   1.457   3.932   5.775  0.0555 -0.3057  0.1395
11110TIP3    H154745   1.404   4.008   5.754  0.6604 -0.1276 -0.8261
11110TIP3    H254746   1.506   3.914   5.694  3.6242  1.3039  1.7275
11111TIP3   OH254747   4.460   2.675   4.830 -0.2706  0.1923  0.5590
11111TIP3    H154748   4.485   2.591   4.792 -0.3227  0.5681 -0.3127
11111TIP3    H254749   4.501   2.675   4.916 -2.2218 -1.7632  1.6179
11112TIP3   OH254750   0.182   6.766  11.318 -0.2338  0.3271 -0.7136
11112TIP3    H154751   0.248   6.770  11.387 -1.6050  0.2215  0.6778
11112TIP3    H254752   0.105   6.808  11.356 -0.9847  0.4500 -2.2751
11113TIP3   OH254753   6.348   4.883  12.406  0.0974  0.6061 -0.3038
11113TIP3    H154754   6.330   4.794  12.376 -1.2148  1.0394 -0.8944
11113TIP3    H254755   6.403   4.921  12.338  0.3121  0.3744 -0.2590
11114TIP3   OH254756   6.331   0.443   5.039  0.0155 -0.1052 -0.3538
11114TIP3    H154757   6.245   0.424   5.075  1.0098 -1.0775  1.7103
11114TIP3    H254758   6.376   0.493   5.108  0.1592  3.1167 -2.5685
11115TIP3   OH254759   0.634   3.302  16.175 -0.0493  0.3418  0.0117
11115TIP3    H154760   0.545   3.289  16.206 -0.4991 -1.3214 -1.7854
11115TIP3    H254761   0.688   3.248  16.232 -0.3565  0.3322  0.2928
11116TIP3   OH254762   1.444   2.910   4.458 -0.3228  0.2275 -0.2214
11116TIP3    H154763   1.525   2.915   4.408 -0.6094  0.4962 -0.6667
11116TIP3    H254764   1.430   2.817   4.473  1.0078  0.2371  1.4240
11117TIP3   OH254765   6.524   4.823  12.135 -0.4840 -0.1556 -0.0066
11117TIP3    H154766   6.488   4.806  12.048 -0.1860 -0.5600 -0.0539
11117TIP3    H254767   6.615   4.849  12.118 -0.1270 -1.1773  0.2299
11118TIP3   OH254768   3.004   3.636  15.934 -0.0830  0.2567 -0.1316
11118TIP3    H154769   2.922   3.587  15.933 -0.1729  0.4093 -0.2683
11118TIP3    H254770   3.019   3.660  15.843 -0.7750  1.7131  0.1150
11119TIP3   OH254771   6.237   6.324   4.251  0.0894  0.1956 -0.5387
11119TIP3    H154772   6.261   6.415   4.268 -0.8246  0.2583  0.5972
11119TIP3    H254773   6.254   6.279   4.334 -0.9810 -0.3202 -0.5820
11120TIP3   OH254774   2.329   0.953   4.881 -0.3556  0.0916 -0.1193
11120TIP3    H154775   2.389   0.929   4.952  0.0164 -0.0074 -0.4595
11120TIP3    H254776   2.245   0.966   4.924 -0.0856  0.2544  0.3710
11121TIP3   OH254777   1.774   1.554   0.376 -0.3374 -0.7647 -0.5543
11121TIP3    H154778   1.693   1.547   0.427 -0.3968  0.4169 -0.4498
11121TIP3    H254779   1.843   1.565   0.442  0.0037 -2.2672 -0.6164
11122TIP3   OH254780   4.969   5.026   0.834  0.3118 -0.1689  0.2335
11122TIP3    H154781   5.035   5.096   0.840  1.3795 -1.1844  0.6340
11122TIP3    H254782   4.948   5.022   0.740  1.3012 -0.2633  0.0053
11123TIP3   OH254783   6.638   2.785  13.040  0.5277  0.2671  0.0056
11123TIP3    H154784   6.545   2.806  13.048 -0.3425 -2.8302 -0.6461
11123TIP3    H254785   6.641   2.718  12.971  3.0925 -0.5039  0.7718
11124TIP3   OH254786   5.084   5.625  14.005 -0.4856  0.1020 -0.3039
11124TIP3    H154787   5.100   5.717  14.024  0.0364 -0.5177  2.9509
11124TIP3    H254788   5.167   5.591  13.973 -0.5724  0.6533 -1.1304
11125TIP3   OH254789   1.100   4.692   5.864  0.6808  0.0248  0.0949
11125TIP3    H154790   1.105   4.599   5.844  0.3269 -0.0476  0.3445
11125TIP3    H254791   1.112   4.698   5.958  0.5999  0.2225  0.0934
11126TIP3   OH254792   0.875   3.438  16.221 -0.5760  0.1446 -0.0014
11126TIP3    H154793   0.798   3.384  16.200  0.8186 -1.4773 -1.2892
11126TIP3    H254794   0.886   3.429  16.315 -1.8479  0.2678  0.1780
11127TIP3   OH254795   5.792   5.168   5.730  0.0521  0.3999 -0.3076
11127TIP3    H154796   5.841   5.249   5.749 -0.3620  0.5946 -0.0518
11127TIP3    H254797   5.859   5.100   5.728  0.3364  0.6641  0.0307
11128TIP3   OH254798   5.776   1.453  11.024 -0.3982 -0.6378 -0.2200
11128TIP3    H154799   5.732   1.444  11.108 -0.5832  0.5561 -0.1747
11128TIP3    H254800   5.847   1.515  11.041 -0.6930 -0.0621 -1.0325
11129TIP3   OH254801   2.367   0.043  13.211 -0.1432  0.2461 -0.0648
11129TIP3    H154802   2.308   0.010  13.143 -2.4697  2.1001  0.8874
11129TIP3    H254803   2.444   0.073  13.163 -1.1063  0.2001 -1.7346
11130TIP3   OH254804   1.491   4.776  12.700  0.3348  0.4725 -0.0226
11130TIP3    H154805   1.471   4.787  12.607  1.0316 -0.1413 -0.2486
11130TIP3    H254806   1.464   4.859  12.739  0.2254  0.8177 -0.7982
11131TIP3   OH254807   1.544   1.310   3.222 -0.3830  0.1132  0.1844
11131TIP3    H154808   1.602   1.379   3.256 -0.1908 -0.4306  0.9792
11131TIP3    H254809   1.571   1.231   3.269  1.2880 -1.1541 -2.6644
11132TIP3   OH254810   1.297   0.153  12.432  0.7513  0.0559 -0.9602
11132TIP3    H154811   1.272   0.242  12.407  0.8289  0.1655 -0.6491
11132TIP3    H254812   1.393   0.157  12.442  0.5728  0.4476  1.0375
11133TIP3   OH254813   3.598   3.932   2.438  0.3123 -0.0724 -0.1221
11133TIP3    H154814   3.546   3.903   2.363  0.4789 -0.0099 -0.2616
11133TIP3    H254815   3.678   3.879   2.434  0.3952  0.0514 -0.0864
11134TIP3   OH254816   2.474   5.854   5.879 -0.9735 -0.5964 -0.2809
11134TIP3    H154817   2.381   5.856   5.901 -1.2102 -1.7397 -1.0822
11134TIP3    H254818   2.513   5.796   5.945 -1.1090 -1.3376 -0.8348
11135TIP3   OH254819   0.600   2.727  11.811 -0.4071  0.0151  0.7511
11135TIP3    H154820   0.626   2.818  11.799  0.1277  0.0012  1.6903
11135TIP3    H254821   0.512   2.722  11.774  0.8465  0.0519 -2.5744
11136TIP3   OH254822   4.186   3.478   0.837 -0.3159  0.3956  0.0996
11136TIP3    H154823   4.121   3.482   0.767 -1.7399  3.0699  1.4035
11136TIP3    H254824   4.135   3.453   0.914  0.9360 -0.9919  0.5232
11137TIP3   OH254825   6.340   3.455   5.229 -0.0857 -0.0410  0.2985
11137TIP3    H154826   6.396   3.397   5.178 -0.8667  0.0623 -0.6819
11137TIP3    H254827   6.259   3.461   5.180 -0.7070  0.3916  1.3447
11138TIP3   OH254828   4.189   4.183   4.686  0.1832  0.2328 -0.6070
11138TIP3    H154829   4.204   4.223   4.601  0.7626  1.6598  0.1141
11138TIP3    H254830   4.101   4.147   4.681 -0.4557  1.8051 -1.2688
11139TIP3   OH254831   4.461   6.039   5.364 -0.3347 -0.5427  1.3769
11139TIP3    H154832   4.431   5.954   5.396 -1.4915 -0.0228  1.7388
11139TIP3    H254833   4.381   6.088   5.348  0.2857  1.1345  2.9536
11140TIP3   OH254834   2.440   3.880   1.303 -0.1059 -0.5451  0.5971
11140TIP3    H154835   2.357   3.836   1.284  0.9459 -2.1795 -0.5052
11140TIP3    H254836   2.443   3.953   1.241 -1.5631  0.7617  1.9781
11141TIP3   OH254837   3.222   1.068   1.320 -0.0031 -0.7396 -0.2316
11141TIP3    H154838   3.223   1.073   1.416 -1.2490  0.1585 -0.2486
11141TIP3    H254839   3.138   1.106   1.295 -0.6256 -2.8132 -1.5866
11142TIP3   OH254840   4.774   6.463   1.360  0.0332  0.1834  0.0109
11142TIP3    H154841   4.841   6.397   1.340 -0.3095  0.0140 -0.6105
11142TIP3    H254842   4.780   6.526   1.288  0.8275  1.2206  0.9654
11143TIP3   OH254843   4.433   2.103   0.481 -0.4732 -0.8777  0.0949
11143TIP3    H154844   4.415   2.116   0.388  1.5258  0.0275 -0.2212
11143TIP3    H254845   4.478   2.019   0.486  0.6834 -0.2849  0.0197
11144TIP3   OH254846   1.470   1.016   4.092  0.7020  0.5997  0.1006
11144TIP3    H154847   1.543   1.054   4.142  1.4150  0.7789 -1.0346
11144TIP3    H254848   1.512   0.972   4.018 -0.3426  0.6404 -0.5354
11145TIP3   OH254849   3.970   3.326   0.981 -0.3571  0.0818 -0.0505
11145TIP3    H154850   3.893   3.359   0.937  1.9343  1.5422 -3.3132
11145TIP3    H254851   3.953   3.232   0.993 -2.3910  0.2702 -1.1641
11146TIP3   OH254852   5.030   4.249  16.401  0.4558  0.2051  0.3042
11146TIP3    H154853   4.997   4.159  16.394 -0.6247  0.7005 -2.7012
11146TIP3    H254854   4.955   4.304  16.379  1.2468  1.8346  1.4815
11147TIP3   OH254855   6.016   6.697   1.775  0.3418  0.0219  0.2095
11147TIP3    H154856   5.967   6.615   1.779 -1.3582  0.8194 -2.1299
11147TIP3    H254857   6.062   6.702   1.859 -3.1443 -1.1141  2.3963
11148TIP3   OH254858   0.896   2.516  16.342 -0.1914 -0.5319  0.4256
11148TIP3    H154859   0.893   2.575  16.267  1.3683 -1.2326 -0.2192
11148TIP3    H254860   0.938   2.568  16.411 -1.9656  0.2398  0.9783
11149TIP3   OH254861   1.861   2.871   2.763  0.0573  0.4558 -0.1857
11149TIP3    H154862   1.927   2.831   2.818 -0.1701  0.8410  0.3809
11149TIP3    H254863   1.810   2.926   2.823  1.5772  3.1998 -1.2217
11150TIP3   OH254864   5.439   6.580   1.999  0.4762 -1.0821  0.5528
11150TIP3    H154865   5.360   6.628   2.022  1.4165  0.6241  0.3817
11150TIP3    H254866   5.411   6.519   1.930 -0.6677 -0.4476  0.4340
11151TIP3   OH254867   5.797   0.930   1.067 -0.4086  0.6825  0.4258
11151TIP3    H154868   5.729   0.946   1.132  2.1383  4.6256  2.5546
11151TIP3    H254869   5.759   0.957   0.984 -1.7495  1.9472  1.4121
11152TIP3   OH254870   4.339   3.584  15.303  0.1038 -0.0706  0.4410
11152TIP3    H154871   4.409   3.650  15.303  2.3764 -2.3309 -0.0911
11152TIP3    H254872   4.372   3.514  15.359 -1.9536 -1.0318  0.5184
11153TIP3   OH254873   6.630   3.452  12.856 -0.5409 -0.2030  0.1403
11153TIP3    H154874   6.680   3.413  12.784  1.4376  0.8203  0.8878
11153TIP3    H254875   6.605   3.378  12.911  1.8124 -0.6568  0.7253
11154TIP3   OH254876   0.122   5.560   4.534 -0.1217  0.5781  0.3034
11154TIP3    H154877   0.212   5.548   4.562  0.0277  1.3073  0.1582
11154TIP3    H254878   0.128   5.612   4.454 -0.7112  1.6789  0.9467
11155TIP3   OH254879   3.472   4.487   4.564  0.5973 -0.2618  0.6307
11155TIP3    H154880   3.524   4.429   4.509 -0.3833 -1.0827  0.5487
11155TIP3    H254881   3.526   4.501   4.642  2.3535  1.5137 -0.7642
11156TIP3   OH254882   6.107   2.106   1.705 -0.2548 -0.2988 -0.2856
11156TIP3    H154883   6.053   2.096   1.627 -0.4785 -0.6806 -0.0809
11156TIP3    H254884   6.110   2.201   1.720 -1.5691 -0.3162  0.1946
11157TIP3   OH254885   5.638   1.246  14.110 -0.6705 -0.0465 -0.3371
11157TIP3    H154886   5.723   1.289  14.101 -0.8036  0.1830 -0.4893
11157TIP3    H254887   5.582   1.290  14.046 -1.2644  0.6949  0.6657
11158TIP3   OH254888   4.976   6.019   3.367 -0.0502  0.7755 -0.3629
11158TIP3    H154889   5.051   6.024   3.425 -0.2712 -0.8148  0.1099
11158TIP3    H254890   5.010   5.978   3.287 -0.4785 -0.4095  0.0354
11159TIP3   OH254891   0.761   2.125  14.717  0.4008  0.2569  0.1187
11159TIP3    H154892   0.801   2.040  14.733  0.7967 -0.0493 -2.1655
11159TIP3    H254893   0.806   2.160  14.640 -2.7196  0.4922 -1.8105
11160TIP3   OH254894   6.616   5.770  12.522  0.4683 -0.0475  0.4012
11160TIP3    H154895   6.578   5.820  12.594  1.1894 -1.1368  1.5856
11160TIP3    H254896   6.639   5.686  12.561  2.8022  0.0619 -0.5587
11161TIP3   OH254897   1.064   5.487   3.360  0.2981  0.2339 -0.4068
11161TIP3    H154898   1.072   5.568   3.310  0.9607 -0.0340 -0.7476
11161TIP3    H254899   1.154   5.455   3.369  0.2952  0.6710  1.6291
11162TIP3   OH254900   2.941   2.767   1.208  0.1626 -0.2031 -0.3614
11162TIP3    H154901   3.004   2.725   1.267  0.0959  1.0661  0.6565
11162TIP3    H254902   2.967   2.860   1.207 -0.1921 -0.0852 -1.8932
11163TIP3   OH254903   0.730   1.172  14.945 -0.2801  0.1517  0.3975
11163TIP3    H154904   0.723   1.255  14.899  0.3618  0.0470  0.1073
11163TIP3    H254905   0.785   1.117  14.890 -2.4605 -1.2633 -0.5325
11164TIP3   OH254906   0.316   3.871  14.221  0.9414 -0.6405 -0.2535
11164TIP3    H154907   0.336   3.938  14.287  0.9192 -0.4159 -0.4734
11164TIP3    H254908   0.296   3.920  14.142  1.2187 -0.9180 -0.4999
11165TIP3   OH254909   3.763   1.853  13.218  0.2256  0.0009 -0.0139
11165TIP3    H154910   3.675   1.876  13.248  0.0730  1.3602 -1.3747
11165TIP3    H254911   3.821   1.885  13.288 -0.3590 -1.7578  1.3440
11166TIP3   OH254912   4.132   1.772  16.985 -0.2340 -0.3042 -0.9013
11166TIP3    H154913   4.112   1.829  17.059 -0.4533  0.4392 -1.5116
11166TIP3    H254914   4.054   1.719  16.973  0.0664 -0.9175 -0.1706
11167TIP3   OH254915   3.906   6.039  16.324  0.5647  0.1955  0.2704
11167TIP3    H154916   3.979   5.977  16.323  1.1880  0.8695 -2.5742
11167TIP3    H254917   3.836   5.992  16.370  1.5530 -1.9440 -0.2752
11168TIP3   OH254918   3.499   6.247   2.513 -0.0360  0.4152  0.3088
11168TIP3    H154919   3.581   6.203   2.535 -0.4254  0.3209  1.6300
11168TIP3    H254920   3.457   6.190   2.449 -0.1465 -0.7286  1.3721
11169TIP3   OH254921   3.700   4.181   2.050  0.1253  0.4762 -0.3160
11169TIP3    H154922   3.621   4.191   1.996  0.6337 -0.1202 -1.2040
11169TIP3    H254923   3.675   4.213   2.136 -0.8693  0.9746 -0.7782
11170TIP3   OH254924   5.330   4.239  14.632  0.7051  0.4877  0.2911
11170TIP3    H154925   5.269   4.205  14.566 -0.5070 -0.6531  1.9236
11170TIP3    H254926   5.310   4.333  14.636  0.9608  0.6164 -1.1077
11171TIP3   OH254927   1.453   6.668  13.805 -0.1856  0.4431 -0.3768
11171TIP3    H154928   1.474   6.753  13.844  0.6742 -0.6540  1.6873
11171TIP3    H254929   1.507   6.605  13.853 -1.1968 -1.3525 -1.4754
11172TIP3   OH254930   6.046   5.831  14.449  0.2389 -0.1471  0.0764
11172TIP3    H154931   5.981   5.790  14.507 -0.1422 -0.5642 -0.6330
11172TIP3    H254932   6.087   5.758  14.403 -0.8607  0.2571 -1.6459
11173TIP3   OH254933   0.130   4.271  17.225  0.3172 -0.0671 -0.3145
11173TIP3    H154934   0.186   4.342  17.256  0.9180 -1.0855  1.0083
11173TIP3    H254935   0.043   4.310  17.218  0.0237  0.1783  3.1060
11174TIP3   OH254936   2.945   3.067   3.685 -0.4772  0.0733  0.0355
11174TIP3    H154937   2.977   3.012   3.756 -0.4197 -0.5345 -0.4568
11174TIP3    H254938   2.890   3.009   3.632  0.2925  0.2488 -0.9851
11175TIP3   OH254939   1.276   3.368  13.073 -0.4064  0.3404  0.0524
11175TIP3    H154940   1.196   3.344  13.027 -0.0387 -1.5521  0.3055
11175TIP3    H254941   1.340   3.302  13.046 -0.0509 -0.5946  2.8343
11176TIP3   OH254942   1.570   4.442   2.686  0.4074 -0.2310  0.2763
11176TIP3    H154943   1.550   4.504   2.616 -1.3196  0.3882  1.2574
11176TIP3    H254944   1.589   4.360   2.641  1.1378  0.6090 -0.9745
11177TIP3   OH254945   4.754   4.402  13.467  0.4612  0.6474  0.7907
11177TIP3    H154946   4.757   4.377  13.375  0.6328  1.1489  0.6629
11177TIP3    H254947   4.796   4.329  13.513 -0.1485  0.1248  0.5301
11178TIP3   OH254948   0.253   5.315   2.115 -0.2884 -0.8990 -0.1526
11178TIP3    H154949   0.222   5.386   2.059 -0.8560 -2.6575 -2.1943
11178TIP3    H254950   0.184   5.302   2.180 -0.5119 -0.1045 -0.2272
11179TIP3   OH254951   5.112   2.535  11.246 -0.6667 -0.5676 -0.5161
11179TIP3    H154952   5.073   2.531  11.333 -0.1166  1.6558 -0.1083
11179TIP3    H254953   5.153   2.621  11.242  0.0811 -0.9617 -2.6699
11180TIP3   OH254954   2.184   4.901   6.065  0.0748 -0.1909 -0.3186
11180TIP3    H154955   2.114   4.871   6.008  0.3205  1.0896 -1.3365
11180TIP3    H254956   2.149   4.978   6.109  1.5470  1.9228 -2.6202
11181TIP3   OH254957   2.137   2.662  12.995  0.1070  0.1802 -0.0455
11181TIP3    H154958   2.220   2.638  13.036  0.3865  0.5745 -0.3646
11181TIP3    H254959   2.083   2.696  13.067  0.1406 -0.2763  0.1984
11182TIP3   OH254960   4.422   0.412  12.144  0.3955 -0.1010 -0.2981
11182TIP3    H154961   4.364   0.488  12.140 -2.0552 -1.8376  0.1557
11182TIP3    H254962   4.486   0.434  12.211 -0.6014  1.3585  0.2314
11183TIP3   OH254963   2.577   6.291  11.850  0.1625  0.6425 -0.4665
11183TIP3    H154964   2.610   6.256  11.768 -1.9262 -0.2122 -0.9964
11183TIP3    H254965   2.546   6.379  11.829 -0.2785  0.4623 -0.5699
11184TIP3   OH254966   5.529   3.748   2.908 -0.2010 -0.4326  0.0551
11184TIP3    H154967   5.542   3.675   2.968  2.8402  1.0279  1.4055
11184TIP3    H254968   5.591   3.733   2.837  0.5811  0.8155  0.4300
11185TIP3   OH254969   5.878   4.339   5.215 -0.3560 -0.9533  0.2631
11185TIP3    H154970   5.903   4.399   5.286 -0.9251  0.4048 -0.6407
11185TIP3    H254971   5.860   4.256   5.259 -0.2049 -0.2891  1.6431
11186TIP3   OH254972   4.859   5.937  15.888 -0.3028  0.3238 -0.0526
11186TIP3    H154973   4.871   6.023  15.927  0.5039 -0.1616  0.8106
11186TIP3    H254974   4.765   5.933  15.867 -0.2642  1.5849 -0.5842
11187TIP3   OH254975   5.742   0.401  13.606 -0.3922  0.2098 -0.6381
11187TIP3    H154976   5.811   0.461  13.575 -1.1119  0.1012 -2.6181
11187TIP3    H254977   5.731   0.340  13.534 -0.7769 -1.3704  0.7194
11188TIP3   OH254978   2.717   0.840   4.998  0.1936 -0.2906  0.2924
11188TIP3    H154979   2.664   0.763   4.975 -0.1575  0.4452 -1.5457
11188TIP3    H254980   2.653   0.910   5.012  0.5848  0.5506 -1.7193
11189TIP3   OH254981   0.000   0.150  16.012  1.1264  0.6322 -0.0626
11189TIP3    H154982  -0.066   0.190  15.955  0.5848 -0.0910  0.0513
11189TIP3    H254983   0.024   0.069  15.968 -1.1608 -1.2447  1.9012
11190TIP3   OH254984   5.768   6.048  12.333  0.3980 -0.3623  0.0030
11190TIP3    H154985   5.685   6.043  12.379 -0.2507  0.3071 -1.0532
11190TIP3    H254986   5.830   6.078  12.399 -0.5326  0.6976  0.4222
11191TIP3   OH254987   2.309   2.115  12.095  0.0026 -0.1527 -0.1454
11191TIP3    H154988   2.270   2.059  12.163 -0.7437  0.3775 -0.1238
11191TIP3    H254989   2.391   2.145  12.132 -0.2233 -0.1718  0.3774
11192TIP3   OH254990   2.336   4.521  14.591 -0.1702 -0.8156  0.6157
11192TIP3    H154991   2.271   4.492  14.527 -1.0082  0.2828  0.9428
11192TIP3    H254992   2.374   4.599  14.552 -2.4590  1.3772  2.4575
11193TIP3   OH254993   3.193   0.346  16.319  0.2591 -0.0953  0.3079
11193TIP3    H154994   3.180   0.367  16.227  1.7949  1.1053  0.3216
11193TIP3    H254995   3.239   0.421  16.355 -2.4075  0.5911  2.6828
11194TIP3   OH254996   2.375   6.205   5.233  0.0203 -0.3185 -0.1554
11194TIP3    H154997   2.439   6.135   5.219 -0.8963 -1.3149  0.4524
11194TIP3    H254998   2.418   6.284   5.201  1.8008 -0.8368  0.8049
11195TIP3   OH254999   2.232   5.464  11.272 -0.0758  0.4644  0.1646
11195TIP3    H155000   2.264   5.523  11.340  1.2719  1.3219 -1.1477
11195TIP3    H255001   2.224   5.519  11.194 -2.0537 -0.3782 -0.2887
11196TIP3   OH255002   3.859   1.447  13.890 -0.0157  0.4765  0.1001
11196TIP3    H155003   3.856   1.435  13.985  0.3437  1.1360  0.2039
11196TIP3    H255004   3.951   1.467  13.872 -0.5596  3.2783  0.0012
11197TIP3   OH255005   4.163   3.792  16.904 -0.2736 -0.0450  0.1762
11197TIP3    H155006   4.186   3.704  16.932  0.7757  0.1058 -0.1416
11197TIP3    H255007   4.068   3.793  16.901 -0.2851 -1.5927 -1.1431
11198TIP3   OH255008   0.516   3.974   4.950  0.1999 -0.3833 -0.1331
11198TIP3    H155009   0.521   3.892   4.900 -1.8710  0.3227 -1.6806
11198TIP3    H255010   0.439   4.018   4.914  0.0275  1.2974  2.1238
11199TIP3   OH255011   5.704   1.455   1.563  0.1537 -0.3389 -0.0805
11199TIP3    H155012   5.727   1.535   1.609  1.1933  0.1682 -1.4118
11199TIP3    H255013   5.633   1.417   1.615 -0.1064  1.2327  0.7807
11200TIP3   OH255014   0.646   5.876   0.623  0.1930 -0.6162  0.0009
11200TIP3    H155015   0.597   5.923   0.690  0.3083 -0.0712 -0.2877
11200TIP3    H255016   0.715   5.829   0.671 -0.9340 -1.8388  0.4698
11201TIP3   OH255017   4.042   5.323  16.220 -0.1862 -0.1705  0.1252
11201TIP3    H155018   4.132   5.291  16.232 -0.3059 -1.0004 -1.1185
11201TIP3    H255019   3.987   5.245  16.225 -0.6484  0.0574 -1.0774
11202TIP3   OH255020   2.453   5.612  10.832  0.4403 -0.5872 -0.2389
11202TIP3    H155021   2.483   5.568  10.752  2.3525  0.4187 -0.1071
11202TIP3    H255022   2.391   5.678  10.800 -0.9102 -1.9555 -0.6070
11203TIP3   OH255023   6.507   6.593  17.182  0.0578  0.3499 -0.3715
11203TIP3    H155024   6.546   6.532  17.246  0.5861  0.2991 -0.7356
11203TIP3    H255025   6.440   6.640  17.232 -1.7890 -1.9251 -0.5391
11204TIP3   OH255026   2.275   0.418  12.197  0.1137  0.3397  0.9508
11204TIP3    H155027   2.364   0.409  12.161  1.2894  0.0768  3.6419
11204TIP3    H255028   2.260   0.513  12.200 -0.6172  0.3539 -1.4159
11205TIP3   OH255029   3.894   3.066  12.588  0.5090 -0.1987 -0.3137
11205TIP3    H155030   3.894   3.092  12.495  0.9682 -0.9120 -0.5153
11205TIP3    H255031   3.865   2.975  12.587  2.6842 -0.9420  0.0304
11206TIP3   OH255032   3.290   6.084   4.994  0.2695 -0.4441  0.0954
11206TIP3    H155033   3.278   5.990   4.983  0.5958 -0.3813 -0.8974
11206TIP3    H255034   3.383   6.095   5.010  0.0458 -0.3852  1.4793
11207TIP3   OH255035   2.350   0.823  13.100  0.6619  0.4958  0.2828
11207TIP3    H155036   2.377   0.854  13.187  1.1838 -2.0175  1.1125
11207TIP3    H255037   2.255   0.812  13.107  0.5313  1.4436  0.1126
11208TIP3   OH255038   0.905   6.381   3.450 -0.0960  0.2943 -0.3118
11208TIP3    H155039   0.923   6.390   3.543  0.6672  0.4472 -0.4673
11208TIP3    H255040   0.959   6.308   3.421 -0.6634 -0.0442 -0.5537
11209TIP3   OH255041   2.866   0.684   3.321 -0.1190  0.2423 -0.2932
11209TIP3    H155042   2.795   0.692   3.259 -1.3545  1.6421  1.1985
11209TIP3    H255043   2.924   0.758   3.301 -0.0829  0.2090 -0.3121
11210TIP3   OH255044   0.254   6.404   1.497 -0.5695 -0.0559 -0.0398
11210TIP3    H155045   0.270   6.328   1.553  0.2101 -0.5353 -0.8813
11210TIP3    H255046   0.167   6.389   1.460  1.0130 -2.6243 -3.2540
11211TIP3   OH255047   2.229   3.743  15.318  0.4645  0.2310  0.0984
11211TIP3    H155048   2.262   3.800  15.248  2.4452  1.3310  1.7960
11211TIP3    H255049   2.171   3.799  15.370 -1.1747 -0.6396 -0.7243
11212TIP3   OH255050   2.997   0.123  15.386 -0.0061 -0.7532  0.3640
11212TIP3    H155051   2.936   0.087  15.322 -0.1433 -0.9481  0.6050
11212TIP3    H255052   3.063   0.168  15.333 -0.5376 -0.2506  0.1088
11213TIP3   OH255053   6.147   3.671   1.242 -0.3758 -0.2050 -0.0780
11213TIP3    H155054   6.114   3.736   1.180  0.9524  1.0954  0.5118
11213TIP3    H255055   6.082   3.669   1.312 -0.0867  1.0428  0.2412
11214TIP3   OH255056   0.778   4.975   1.363  0.0380  0.1824  0.5466
11214TIP3    H155057   0.767   5.028   1.442 -0.5345  0.7990  0.0733
11214TIP3    H255058   0.869   4.990   1.337 -0.2318  1.3218  0.1763
11215TIP3   OH255059   3.458   1.127   2.335  0.4837  0.2438  0.6474
11215TIP3    H155060   3.495   1.116   2.247  0.1173 -0.4775  0.5715
11215TIP3    H255061   3.534   1.135   2.392  0.7475 -0.2826  0.3792
11216TIP3   OH255062   0.279   2.813  12.128 -1.0676 -0.5658 -0.2997
11216TIP3    H155063   0.273   2.799  12.033 -0.9011  0.3616 -0.4526
11216TIP3    H255064   0.355   2.870  12.139 -0.9592 -0.8432  0.4136
11217TIP3   OH255065   3.295   3.819  11.824  0.1132 -0.4565  0.4207
11217TIP3    H155066   3.235   3.767  11.878 -1.9318  3.1675  2.0092
11217TIP3    H255067   3.351   3.864  11.887  0.1569  1.0849 -0.6666
11218TIP3   OH255068   0.594   1.556   0.493 -0.4230 -0.0979 -0.1007
11218TIP3    H155069   0.514   1.580   0.447  0.3949 -0.5745 -1.8711
11218TIP3    H255070   0.636   1.639   0.514 -0.6970  0.1201 -0.4121
11219TIP3   OH255071   4.151   5.860   2.082 -0.1350 -0.0624  0.5183
11219TIP3    H155072   4.238   5.866   2.121  0.0021  0.9621  0.0813
11219TIP3    H255073   4.162   5.800   2.008  0.3901  0.6320  0.0100
11220TIP3   OH255074   2.638   3.059  14.358 -0.6551 -0.1166 -0.3867
11220TIP3    H155075   2.587   3.059  14.440  0.7740  1.5730  0.5493
11220TIP3    H255076   2.653   3.151  14.338  1.7374 -0.5403 -0.8130
11221TIP3   OH255077   3.708   1.587   4.141  0.5787  0.5768  0.5503
11221TIP3    H155078   3.654   1.508   4.152 -0.7111  1.2142 -0.9193
11221TIP3    H255079   3.788   1.555   4.099 -0.8540  0.2836 -2.1511
11222TIP3   OH255080   6.203   1.948   1.362  0.2610 -0.6779 -0.1616
11222TIP3    H155081   6.174   1.884   1.426 -0.2493 -0.3449 -0.0606
11222TIP3    H255082   6.291   1.973   1.391  1.1733 -2.5519 -1.1159
11223TIP3   OH255083   3.126   6.514  15.011  0.0862 -0.2737  0.6843
11223TIP3    H155084   3.157   6.473  14.930 -0.3057  0.1873  0.2926
11223TIP3    H255085   3.046   6.465  15.032 -1.2723  1.2485 -0.6510
11224TIP3   OH255086   0.782   4.720  12.231 -0.3480  0.0727  0.4968
11224TIP3    H155087   0.692   4.712  12.200 -1.0009 -2.0103  2.5907
11224TIP3    H255088   0.825   4.640  12.201  0.5260  0.5675  0.4011
11225TIP3   OH255089   4.159   4.605   3.398  0.4303 -0.8837 -0.2356
11225TIP3    H155090   4.207   4.664   3.340  0.7323 -0.2808  0.6083
11225TIP3    H255091   4.067   4.626   3.384  0.3422 -2.3675 -2.2111
11226TIP3   OH255092   3.549   3.036  14.054 -0.0055 -0.7095 -0.5608
11226TIP3    H155093   3.488   3.104  14.025 -0.2417 -1.1473 -1.1072
11226TIP3    H255094   3.578   2.994  13.973  1.4141 -0.1844 -0.3621
11227TIP3   OH255095   6.027   6.696  17.093 -0.4060 -0.3901  0.1176
11227TIP3    H155096   5.981   6.637  17.034 -0.7503 -1.2690  1.2184
11227TIP3    H255097   6.089   6.640  17.140 -1.1361 -0.0318  1.5942
11228TIP3   OH255098   4.810   0.038   5.342  0.2813 -0.0391 -0.6173
11228TIP3    H155099   4.786   0.068   5.430 -0.5077 -0.2730 -0.7498
11228TIP3    H255100   4.847  -0.050   5.356  2.5907  0.9108 -0.2303
11229TIP3   OH255101   4.338   2.664  16.195 -0.3235 -0.2348 -0.2400
11229TIP3    H155102   4.367   2.739  16.247 -0.6240  0.1180 -0.5785
11229TIP3    H255103   4.409   2.601  16.203  0.4551  0.5380 -0.8835
11230TIP3   OH255104   6.396   5.167  12.874  0.1230 -0.1260  0.0954
11230TIP3    H155105   6.322   5.224  12.894  0.3631 -0.3198  1.7467
11230TIP3    H255106   6.361   5.078  12.882  0.3737 -0.2144  0.2571
11231TIP3   OH255107   2.365   4.307   1.646 -0.1439 -0.1833 -0.3372
11231TIP3    H155108   2.444   4.359   1.649  0.3179 -0.9321  1.4502
11231TIP3    H255109   2.296   4.365   1.679 -0.7313  0.9726 -3.2722
11232TIP3   OH255110   1.235   3.674  15.247  0.1828  0.3887 -0.6029
11232TIP3    H155111   1.310   3.616  15.261  1.3133  1.6375 -1.2747
11232TIP3    H255112   1.225   3.721  15.330  1.8104  2.0324 -1.2503
11233TIP3   OH255113   2.841   4.647   5.723 -0.7609 -0.0608  0.0430
11233TIP3    H155114   2.760   4.697   5.720 -1.4149 -0.9450  1.5532
11233TIP3    H255115   2.829   4.576   5.661 -0.5841  0.5606 -0.7168
11234TIP3   OH255116   0.149   2.546   5.179 -0.1131 -0.4487 -0.1969
11234TIP3    H155117   0.232   2.564   5.224 -0.2100 -1.3346  0.3663
11234TIP3    H255118   0.126   2.457   5.206 -0.8072 -0.5374 -1.0438
11235TIP3   OH255119   2.780   1.165  15.779  0.4711 -0.3457 -0.7536
11235TIP3    H155120   2.790   1.217  15.700 -1.8973  3.1074  0.9727
11235TIP3    H255121   2.843   1.203  15.841 -1.2387  0.5268  0.5268
11236TIP3   OH255122   1.698   4.615  16.121 -0.0661  0.1916 -0.0415
11236TIP3    H155123   1.661   4.557  16.054 -0.8932  1.6037 -0.8830
11236TIP3    H255124   1.752   4.677  16.071  1.4927 -0.3461  0.9258
11237TIP3   OH255125   0.410   4.203   2.230 -0.5078 -0.0690 -0.0204
11237TIP3    H155126   0.345   4.135   2.250  0.8311 -0.8571  1.9445
11237TIP3    H255127   0.460   4.167   2.157 -0.5808 -0.6959  0.2269
11238TIP3   OH255128   3.634   1.592   4.681  0.1753 -0.1646 -0.4782
11238TIP3    H155129   3.599   1.608   4.593 -1.3635 -0.9066 -0.0439
11238TIP3    H255130   3.595   1.660   4.735  0.1826 -0.4117 -0.1586
11239TIP3   OH255131   2.427   4.161   2.901 -0.3055  0.2790 -0.2163
11239TIP3    H155132   2.410   4.118   2.818  0.6295 -0.5266 -0.0103
11239TIP3    H255133   2.368   4.118   2.963  2.1721 -2.4451  0.4807
11240TIP3   OH255134   2.944   0.539   6.658 -0.0652 -0.2789 -0.3296
11240TIP3    H155135   3.032   0.567   6.682 -0.3068  0.0088  0.2291
11240TIP3    H255136   2.919   0.475   6.724 -0.6803  0.4177  0.1337
11241TIP3   OH255137   6.515   0.321   1.262 -0.4836 -0.1599  0.0513
11241TIP3    H155138   6.436   0.272   1.239 -1.8209  1.9399 -0.0939
11241TIP3    H255139   6.504   0.406   1.220  1.3891  0.5653  0.8880
11242TIP3   OH255140   2.078   4.585  15.403  0.1168  0.2972 -0.2498
11242TIP3    H155141   2.037   4.654  15.351 -0.0944  1.5122  1.4303
11242TIP3    H255142   2.162   4.621  15.430  0.0730 -0.1461  0.5329
11243TIP3   OH255143   3.269   4.896  13.587  0.2327  0.2934 -0.0445
11243TIP3    H155144   3.260   4.953  13.510  1.8146  1.6546  0.7188
11243TIP3    H255145   3.244   4.809  13.555  0.5244  0.8788 -2.0247
11244TIP3   OH255146   5.237   3.951  14.723 -0.1034 -0.0688  0.4942
11244TIP3    H155147   5.155   3.974  14.680 -1.1139 -2.4460  0.9607
11244TIP3    H255148   5.294   3.919  14.653 -0.6237 -1.0511  0.5093
11245TIP3   OH255149   5.039   0.771   0.505  0.1043 -0.3513 -0.1146
11245TIP3    H155150   5.089   0.760   0.424  1.4429 -0.6012  0.7100
11245TIP3    H255151   5.106   0.779   0.573 -0.9746  1.0452  0.8356
11246TIP3   OH255152   3.680   5.608   0.199  0.0329  0.1569  0.2168
11246TIP3    H155153   3.666   5.661   0.121 -0.1151  1.8799  1.3477
11246TIP3    H255154   3.774   5.616   0.218  0.1656 -0.6754 -0.0609
11247TIP3   OH255155   4.465   1.029   2.589 -0.4727 -0.4012  0.7081
11247TIP3    H155156   4.472   0.937   2.562 -0.1201 -0.3097  0.4800
11247TIP3    H255157   4.543   1.070   2.554 -0.3848 -0.1122  1.2294
11248TIP3   OH255158   6.132   4.058  14.271  0.1022 -1.0016  0.6424
11248TIP3    H155159   6.076   4.127  14.237 -1.2024 -2.2915  0.0824
11248TIP3    H255160   6.072   3.997  14.315  0.9737 -2.6323 -0.3380
11249TIP3   OH255161   2.313   5.359  15.487  0.1617  0.2029 -0.0705
11249TIP3    H155162   2.400   5.323  15.505  0.0623 -0.1661 -0.3328
11249TIP3    H255163   2.277   5.379  15.574  0.1098 -0.5817  0.0943
11250TIP3   OH255164   3.560   0.494   6.157  0.1153  0.2083  0.0787
11250TIP3    H155165   3.553   0.446   6.074 -0.1523 -0.2171  0.3428
11250TIP3    H255166   3.598   0.578   6.132 -0.7329  0.4150 -0.6110
11251TIP3   OH255167   4.231   3.433   4.875 -0.1333 -0.1678  0.0687
11251TIP3    H155168   4.301   3.484   4.835  0.6994 -0.8607  0.6123
11251TIP3    H255169   4.195   3.490   4.943  0.8637 -0.3316  0.7477
11252TIP3   OH255170   5.597   4.689   3.819 -0.1569  0.1419 -0.2817
11252TIP3    H155171   5.665   4.692   3.751 -0.0169  2.2728 -0.1036
11252TIP3    H255172   5.646   4.689   3.901 -0.3514  1.0204 -0.1598
11253TIP3   OH255173   2.804   5.310  11.623 -0.2648  0.0848 -0.5340
11253TIP3    H155174   2.802   5.405  11.621  1.6462  0.1534 -2.2833
11253TIP3    H255175   2.743   5.282  11.555 -0.2607  0.0937 -0.5418
11254TIP3   OH255176   3.508   6.348   6.356  0.2764  0.4124 -0.6271
11254TIP3    H155177   3.588   6.396   6.335  0.5891 -0.2857 -1.0703
11254TIP3    H255178   3.534   6.256   6.352 -0.4274  0.1935 -0.2649
11255TIP3   OH255179   5.777   3.632   3.308  0.4004 -0.1880  0.1511
11255TIP3    H155180   5.830   3.563   3.267 -2.0506 -2.4714  0.5085
11255TIP3    H255181   5.759   3.598   3.396  1.0192  2.0627  1.2152
11256TIP3   OH255182   5.604   5.051   0.370  0.1900 -0.5129 -0.4711
11256TIP3    H155183   5.530   5.112   0.366  1.0816  0.6402  0.1937
11256TIP3    H255184   5.682   5.106   0.363  1.2576 -0.8892  4.6579
11257TIP3   OH255185   6.528   0.073  11.960 -0.6341 -0.3403 -0.4645
11257TIP3    H155186   6.444   0.052  11.920 -0.6508 -2.0047  0.3679
11257TIP3    H255187   6.515   0.055  12.053  0.6159 -0.4901 -0.3098
11258TIP3   OH255188   2.017   3.229  14.851  0.2599 -0.1670  0.3937
11258TIP3    H155189   2.004   3.176  14.773  0.6192  0.3783 -0.0446
11258TIP3    H255190   2.001   3.169  14.924  2.8463 -1.4846 -0.0344
11259TIP3   OH255191   6.563   4.469  16.841 -0.0370 -0.0534  0.2920
11259TIP3    H155192   6.574   4.386  16.888 -3.8095 -0.5246  0.6244
11259TIP3    H255193   6.548   4.533  16.909  2.3453  0.9143  0.0007
11260TIP3   OH255194   4.763   3.224  14.694  0.4568  0.0202 -0.1546
11260TIP3    H155195   4.741   3.317  14.693 -2.4175 -0.5482  0.2155
11260TIP3    H255196   4.810   3.212  14.776 -0.6977  0.8864  0.6761
11261TIP3   OH255197   4.009   5.360  11.769 -0.0791 -0.3813  0.1267
11261TIP3    H155198   4.054   5.401  11.843 -0.6802 -1.4916  1.1554
11261TIP3    H255199   4.045   5.403  11.692  2.5434 -1.0478  0.9032
11262TIP3   OH255200   4.441   0.162  12.432  0.8931 -0.6599  0.0428
11262TIP3    H155201   4.439   0.067  12.436  1.2017 -0.6751 -0.1019
11262TIP3    H255202   4.349   0.188  12.426  0.7972 -0.9393  0.2604
11263TIP3   OH255203   2.049   5.264   0.496  0.1521 -0.5710  0.2767
11263TIP3    H155204   2.123   5.312   0.458  0.1810  0.2761  1.3542
11263TIP3    H255205   1.974   5.321   0.479  0.0659 -0.4980  0.9003
11264TIP3   OH255206   3.018   5.932   4.547 -0.0766  0.0320  0.4799
11264TIP3    H155207   3.013   5.838   4.535  0.3645 -0.0631  1.0228
11264TIP3    H255208   2.959   5.951   4.619  0.1821  0.1100  0.6732
11265TIP3   OH255209   3.205   3.392   3.112 -0.0589 -0.7150  0.0742
11265TIP3    H155210   3.183   3.410   3.203 -0.3940  0.2132 -0.1714
11265TIP3    H255211   3.231   3.300   3.111 -0.8129 -0.9555  0.9582
11266TIP3   OH255212   3.278   0.456  11.529 -0.3224 -0.1122  0.1366
11266TIP3    H155213   3.321   0.499  11.603  1.1251  0.5562 -1.0573
11266TIP3    H255214   3.207   0.405  11.569 -0.2188  1.0295  1.8750
11267TIP3   OH255215   4.028   3.983   2.193 -0.7089  0.3830 -0.7880
11267TIP3    H155216   4.096   3.957   2.131 -0.5279  0.0308 -0.4449
11267TIP3    H255217   4.070   3.981   2.278 -1.0046  0.6975 -0.6336
11268TIP3   OH255218   4.738   5.859  13.821  0.2752 -0.1723 -0.0180
11268TIP3    H155219   4.785   5.931  13.863 -0.3358 -0.0862  0.5267
11268TIP3    H255220   4.753   5.872  13.727 -1.6186  1.9745 -0.1027
11269TIP3   OH255221   4.307   0.885   4.659  0.2917  0.8940 -0.4637
11269TIP3    H155222   4.392   0.851   4.631 -1.3769 -1.5715 -2.9966
11269TIP3    H255223   4.281   0.945   4.589 -0.6627  0.5244 -0.4422
11270TIP3   OH255224   6.547   3.114   1.062  0.4659 -1.0122 -0.6221
11270TIP3    H155225   6.458   3.101   1.095  0.2177 -1.0192 -1.2925
11270TIP3    H255226   6.537   3.166   0.982  1.1597  0.1069 -0.0191
11271TIP3   OH255227   5.215   1.521  11.579  0.0445 -0.4962  0.5843
11271TIP3    H155228   5.273   1.579  11.529  0.6608 -2.0827 -0.6338
11271TIP3    H255229   5.273   1.455  11.616 -0.8043 -1.2505  0.6095
11272TIP3   OH255230   6.661   5.288   1.023 -0.2249  0.0456  0.4622
11272TIP3    H155231   6.578   5.253   0.992  0.7851 -1.5848 -0.5105
11272TIP3    H255232   6.710   5.212   1.054  1.0200  0.9354  0.7586
11273TIP3   OH255233   6.410   5.352   3.184 -0.1660 -0.1733  0.0044
11273TIP3    H155234   6.335   5.295   3.174  0.0652 -0.1633 -2.2161
11273TIP3    H255235   6.474   5.320   3.120  0.4995  1.6939 -0.3311
11274TIP3   OH255236   2.269   3.129   0.843  0.0419 -0.3552  0.3326
11274TIP3    H155237   2.182   3.108   0.810  0.5724 -0.3604 -1.1391
11274TIP3    H255238   2.329   3.086   0.782  1.0790 -0.5640  1.4690
11275TIP3   OH255239   3.815   6.538   2.920  0.4966 -0.3622  0.2729
11275TIP3    H155240   3.886   6.591   2.882  0.9031 -0.5760  0.7360
11275TIP3    H255241   3.736   6.569   2.875  1.0221 -0.9187 -1.0862
11276TIP3   OH255242   6.533   4.843  10.811  0.2925 -0.5117  0.1058
11276TIP3    H155243   6.547   4.752  10.782  0.7949 -1.2531  2.4717
11276TIP3    H255244   6.548   4.895  10.732  3.3077 -2.2521 -0.6544
11277TIP3   OH255245   3.505   3.579  15.725  0.1471  0.0968 -0.2482
11277TIP3    H155246   3.561   3.646  15.686  0.0562 -0.1918 -0.9004
11277TIP3    H255247   3.546   3.560  15.809  0.0671  1.0927  0.0247
11278TIP3   OH255248   5.480   1.276  12.624  0.5530  0.0091  0.1629
11278TIP3    H155249   5.403   1.297  12.571  0.3281 -0.7912  0.1534
11278TIP3    H255250   5.507   1.189  12.594  0.0230 -0.7673  1.7850
11279TIP3   OH255251   0.154   2.872   2.368 -0.2847  0.6680 -0.8555
11279TIP3    H155252   0.222   2.886   2.433  1.1383  2.5716 -2.5985
11279TIP3    H255253   0.174   2.786   2.330 -0.5487 -0.0109  0.4930
11280TIP3   OH255254   1.080   6.479  16.010  0.4141 -0.2048  0.0813
11280TIP3    H155255   1.144   6.545  15.981 -0.0571  0.4296  0.4612
11280TIP3    H255256   1.007   6.530  16.044 -1.2068 -0.8512 -2.1816
11281TIP3   OH255257   2.244   3.048  11.930 -0.4476 -0.5828  0.3848
11281TIP3    H155258   2.159   3.089  11.947 -0.1426 -0.2124  1.0444
11281TIP3    H255259   2.291   3.055  12.013  0.9320  0.8904 -0.4600
11282TIP3   OH255260   0.377   2.129   2.061 -0.5400  0.4719  0.6123
11282TIP3    H155261   0.457   2.164   2.100 -0.0194 -1.1942  1.1552
11282TIP3    H255262   0.306   2.183   2.097  0.2580  1.4509  0.7564
11283TIP3   OH255263   1.944   1.222   2.137 -0.5266 -0.3079  0.0237
11283TIP3    H155264   1.895   1.219   2.219 -0.3078 -0.5928  0.1444
11283TIP3    H255265   2.021   1.167   2.152  0.0179  0.4260 -0.0428
11284TIP3   OH255266   5.471   3.895  15.478 -0.5309 -0.0822  0.1740
11284TIP3    H155267   5.526   3.958  15.431  1.3209 -1.2580  0.6415
11284TIP3    H255268   5.475   3.815  15.425 -2.5302  0.0430 -0.2137
11285TIP3   OH255269   1.965   0.470   5.171  0.4932  0.0032 -0.3185
11285TIP3    H155270   1.954   0.565   5.177 -0.2918 -0.1752  2.9596
11285TIP3    H255271   1.921   0.446   5.089  1.4920  2.5106 -1.6971
11286TIP3   OH255272   3.556   5.346  14.644 -0.2944  0.1310  0.1692
11286TIP3    H155273   3.642   5.368  14.681 -1.2571  0.6421  2.2443
11286TIP3    H255274   3.497   5.346  14.719 -2.1240 -0.2686 -1.2012
11287TIP3   OH255275   3.034   1.428  12.154 -0.3022 -0.0532 -0.0615
11287TIP3    H155276   3.050   1.510  12.107  0.8644 -0.7068 -0.8433
11287TIP3    H255277   2.941   1.411  12.141 -0.5791  1.1864  0.1872
11288TIP3   OH255278   2.143   3.949   4.206  0.5692 -0.4236  0.1949
11288TIP3    H155279   2.052   3.976   4.194  0.8292 -0.2702 -1.5832
11288TIP3    H255280   2.164   3.976   4.296 -1.1325 -0.4898  0.6516
11289TIP3   OH255281   3.610   6.222   1.325  0.3137  0.2976  0.5739
11289TIP3    H155282   3.527   6.269   1.323  0.3568  0.3622 -1.7237
11289TIP3    H255283   3.588   6.137   1.365 -0.7021  0.5473  0.5812
11290TIP3   OH255284   2.205   4.560   4.863  0.3079  0.3978  0.0834
11290TIP3    H155285   2.167   4.647   4.851  0.3199  0.2649 -0.9768
11290TIP3    H255286   2.137   4.500   4.831  0.0040 -0.0440  1.4730
11291TIP3   OH255287   1.162   5.917   0.774  0.1706 -0.0812  0.3485
11291TIP3    H155288   1.120   6.000   0.753  1.4238  0.6819  0.7874
11291TIP3    H255289   1.124   5.890   0.857  0.6393  0.6638  0.8057
11292TIP3   OH255290   2.848   6.506   2.575 -0.7720 -0.6167 -0.5334
11292TIP3    H155291   2.929   6.545   2.542 -0.3556 -0.1227  1.0074
11292TIP3    H255292   2.876   6.445   2.642 -1.6362 -1.0955 -0.5954
11293TIP3   OH255293   3.438   5.698  13.769  0.2976 -0.3148 -0.4136
11293TIP3    H155294   3.428   5.758  13.843  0.8134  3.6922 -3.2448
11293TIP3    H255295   3.348   5.673  13.746  0.0430 -0.4633  0.7105
11294TIP3   OH255296   4.916   0.409  15.542  0.3414  0.0571  0.2045
11294TIP3    H155297   4.869   0.431  15.623 -0.0072 -2.3048  0.6988
11294TIP3    H255298   5.008   0.409  15.567  0.2963  0.1864  0.3753
11295TIP3   OH255299   5.296   1.131   1.784  0.1820 -0.4214 -0.5433
11295TIP3    H155300   5.230   1.087   1.731 -0.8061 -0.8625  1.0003
11295TIP3    H255301   5.261   1.130   1.873  1.9649 -0.0697  0.2148
11296TIP3   OH255302   2.149   1.227  16.711 -0.3807  0.0225 -0.4425
11296TIP3    H155303   2.066   1.234  16.665  0.1962  1.5656 -1.3380
11296TIP3    H255304   2.127   1.244  16.803 -1.1120 -0.0540 -0.5988
11297TIP3   OH255305   1.670   6.062  15.598 -0.2735 -0.6896  0.3224
11297TIP3    H155306   1.733   5.996  15.624 -0.8390 -0.7027  1.7564
11297TIP3    H255307   1.595   6.013  15.565 -0.1859 -0.7267  0.1810
11298TIP3   OH255308   4.142   3.975   1.066  0.0162 -0.2330 -0.1588
11298TIP3    H155309   4.219   3.985   1.123  0.5078 -1.3412 -0.6051
11298TIP3    H255310   4.070   3.959   1.127  0.2160  0.3313  0.2399
11299TIP3   OH255311   4.003   6.745  14.369  0.4229  0.0290  0.3039
11299TIP3    H155312   4.008   6.808  14.297 -2.5866  0.2046  0.1315
11299TIP3    H255313   3.971   6.664  14.328  0.5666 -0.4595  1.1289
11300TIP3   OH255314   3.628   0.703  15.837  0.7557 -0.2363 -0.2279
11300TIP3    H155315   3.700   0.748  15.793  0.6712  0.5934  0.4652
11300TIP3    H255316   3.668   0.626  15.877  1.2326  0.1524  0.0411
11301TIP3   OH255317   4.807   0.323  14.192 -0.3403  0.3904 -0.0235
11301TIP3    H155318   4.877   0.265  14.221 -1.7861 -0.8932  1.0205
11301TIP3    H255319   4.800   0.308  14.098 -0.7922 -1.2860  0.2507
11302TIP3   OH255320   4.906   2.913  15.003  0.3095  0.4636  0.0782
11302TIP3    H155321   4.865   2.935  15.087 -3.6568  1.5584 -1.9182
11302TIP3    H255322   4.894   2.818  14.995  1.3117  0.2462  0.9941
11303TIP3   OH255323   3.836   5.535   0.660 -0.2464 -0.0955 -0.2266
11303TIP3    H155324   3.857   5.628   0.668 -0.5421 -0.0346 -0.1825
11303TIP3    H255325   3.870   5.511   0.573 -0.9070  0.2498 -0.5898
11304TIP3   OH255326   4.454   2.977   3.057 -0.0098  0.3410  0.4314
11304TIP3    H155327   4.456   2.914   2.984 -0.5620  0.1017  0.6105
11304TIP3    H255328   4.501   2.933   3.128 -0.2962  0.1698  0.5194
11305TIP3   OH255329   2.338   4.762   6.577  0.1003  0.1511 -0.5147
11305TIP3    H155330   2.304   4.677   6.551 -0.9418  0.7345 -1.1423
11305TIP3    H255331   2.296   4.824   6.517  1.8594  0.9903 -0.9605
11306TIP3   OH255332   6.773   4.092  14.843  0.6502  0.6543 -0.0389
11306TIP3    H155333   6.717   4.057  14.773  1.2705 -0.0187 -0.2098
11306TIP3    H255334   6.741   4.048  14.922 -0.0243  1.3841  0.1067
11307TIP3   OH255335   5.849   4.344   3.738  0.3028 -0.2502 -0.0948
11307TIP3    H155336   5.816   4.271   3.685 -0.5708 -1.7675  2.3822
11307TIP3    H255337   5.904   4.303   3.805 -0.3928  1.3037  1.5167
11308TIP3   OH255338   6.450   5.688   5.708 -0.3610 -0.3212  0.2401
11308TIP3    H155339   6.502   5.755   5.664 -0.0562 -0.1758  0.8065
11308TIP3    H255340   6.413   5.635   5.637  1.3964 -1.0771 -0.1764
11309TIP3   OH255341   4.358   5.397   4.708 -0.0761  0.2994  0.8610
11309TIP3    H155342   4.306   5.418   4.786 -0.7161 -3.4507  1.6497
11309TIP3    H255343   4.439   5.361   4.742  0.5569  0.5619 -0.2985
11310TIP3   OH255344   3.111   1.370  12.522 -0.3292 -0.0122  0.2155
11310TIP3    H155345   3.059   1.396  12.446  0.3811 -1.8080 -0.9500
11310TIP3    H255346   3.202   1.379  12.493 -0.0041 -3.5062 -0.3130
11311TIP3   OH255347   0.347   5.445  13.611  0.2853  0.4378  0.0120
11311TIP3    H155348   0.337   5.356  13.644  1.0874  0.4804  0.3872
11311TIP3    H255349   0.259   5.471  13.585 -0.0438 -0.2646  0.4041
11312TIP3   OH255350   4.823   5.559  14.096 -0.0195 -0.3431 -0.0385
11312TIP3    H155351   4.845   5.511  14.176 -1.0702  0.2700  0.6472
11312TIP3    H255352   4.907   5.582  14.058  0.5002 -1.0532  0.6389
11313TIP3   OH255353   6.148   3.831  14.643 -0.3407 -0.0312  0.3009
11313TIP3    H155354   6.162   3.828  14.548 -1.0305 -3.5038  0.1901
11313TIP3    H255355   6.075   3.892  14.654 -1.9061 -1.4020 -1.7398
11314TIP3   OH255356   1.143   3.490   0.342 -0.1278 -0.6203  0.0428
11314TIP3    H155357   1.165   3.399   0.322  1.2055 -0.8373  2.2078
11314TIP3    H255358   1.113   3.488   0.433  0.6626  1.1908  0.3792
11315TIP3   OH255359   0.543   3.725   0.656  0.1275 -0.2128  0.2855
11315TIP3    H155360   0.465   3.670   0.646 -0.1939  0.3532 -0.3928
11315TIP3    H255361   0.529   3.770   0.739 -0.4548  0.1683 -0.0114
11316TIP3   OH255362   6.706   0.203   0.512  0.3872  0.3254 -0.0284
11316TIP3    H155363   6.619   0.162   0.508 -0.3669  1.8874 -0.1868
11316TIP3    H255364   6.737   0.184   0.601  0.2661 -0.9344 -0.2290
11317TIP3   OH255365   1.025   5.670  14.684  0.0876  0.9165  0.4382
11317TIP3    H155366   1.083   5.599  14.660 -1.5356 -1.1741  2.2809
11317TIP3    H255367   0.991   5.703  14.601  0.3441 -0.9580 -0.4519
11318TIP3   OH255368   1.866   3.515  16.414  0.1445 -0.5574 -0.2147
11318TIP3    H155369   1.868   3.598  16.462  1.4334 -0.8652  0.3150
11318TIP3    H255370   1.953   3.478  16.428 -0.7246 -2.4984  0.4555
11319TIP3   OH255371   1.736   2.809  11.892  0.0161 -0.0721  0.0582
11319TIP3    H155372   1.801   2.842  11.830 -0.5548 -1.3538 -1.2885
11319TIP3    H255373   1.671   2.878  11.899  1.2572  1.0497  1.0909
11320TIP3   OH255374   5.807   3.990   2.019 -0.0901 -0.9548  0.1602
11320TIP3    H155375   5.762   3.979   1.934  0.6533 -0.1226 -0.3523
11320TIP3    H255376   5.800   4.083   2.038  1.3456 -0.8229  0.1095
11321TIP3   OH255377   4.283   5.167   6.131 -0.2199  0.9775  0.3987
11321TIP3    H155378   4.352   5.117   6.175 -0.3686  0.9565  0.6115
11321TIP3    H255379   4.205   5.151   6.185 -0.6743  0.0262 -0.5090
11322TIP3   OH255380   1.496   5.928  13.052 -0.0320 -0.7124 -0.2104
11322TIP3    H155381   1.420   5.933  13.111  1.8075 -1.0502  2.3478
11322TIP3    H255382   1.494   6.011  13.004 -1.2555 -0.1035  0.8216
11323TIP3   OH255383   1.034   5.813   0.981 -0.2359  0.2341 -0.3724
11323TIP3    H155384   0.962   5.857   1.027  1.3879  1.6248  0.9763
11323TIP3    H255385   1.061   5.744   1.042  0.9932  1.1682  0.1870
11324TIP3   OH255386   4.481   0.724  13.406 -0.2050 -0.0200  0.4575
11324TIP3    H155387   4.520   0.688  13.486 -0.4691 -1.0145  0.1642
11324TIP3    H255388   4.386   0.718  13.421 -0.2553  0.7712  0.4847
11325TIP3   OH255389   4.795   5.680  11.274 -0.4907  0.0829  0.6104
11325TIP3    H155390   4.869   5.636  11.231  0.0474 -1.9218  3.2855
11325TIP3    H255391   4.835   5.746  11.330 -1.0355  1.3442 -0.4386
11326TIP3   OH255392   2.177   5.615  12.890  0.0792 -0.0644 -0.4536
11326TIP3    H155393   2.181   5.651  12.979 -2.5280 -0.4727 -0.0771
11326TIP3    H255394   2.190   5.521  12.902 -0.1463 -0.1038 -0.5131
11327TIP3   OH255395   0.361   1.782   1.700 -0.2287 -0.2786 -0.2435
11327TIP3    H155396   0.374   1.723   1.774 -0.3606 -1.5433 -1.1880
11327TIP3    H255397   0.294   1.843   1.729 -0.4558 -0.9105  0.6042
11328TIP3   OH255398   1.196   1.644  11.341  0.4908  0.1316 -0.0420
11328TIP3    H155399   1.227   1.735  11.337  0.4065  0.2775  1.7711
11328TIP3    H255400   1.102   1.651  11.357  0.4365 -0.2694 -0.1751
11329TIP3   OH255401   3.621   5.742   2.613  0.2134 -0.4367  0.0805
11329TIP3    H155402   3.594   5.751   2.522  0.2854  0.4890  0.1448
11329TIP3    H255403   3.710   5.779   2.615  0.5800 -1.2995  0.3423
11330TIP3   OH255404   4.819   3.521  13.504  0.1479  0.0786 -0.7463
11330TIP3    H155405   4.795   3.520  13.596 -0.0193 -0.6945 -0.7871
11330TIP3    H255406   4.780   3.441  13.468 -0.7141  0.9009 -1.7289
11331TIP3   OH255407   6.115   0.175  17.032 -0.1682  0.0344  0.1274
11331TIP3    H155408   6.105   0.079  17.035 -1.5807  0.1781  1.7363
11331TIP3    H255409   6.094   0.203  17.121  3.7968  1.5815  0.7549
11332TIP3   OH255410   1.324   3.410  13.898 -0.1371 -0.2828  0.2547
11332TIP3    H155411   1.247   3.423  13.843 -0.1529  0.6222  0.4732
11332TIP3    H255412   1.376   3.490  13.886  0.5394 -0.6804  0.4695
11333TIP3   OH255413   1.123   6.192  16.895  0.0300 -0.2787  0.1509
11333TIP3    H155414   1.100   6.156  16.810 -1.7955  0.0154  0.4841
11333TIP3    H255415   1.061   6.153  16.956 -0.3029  1.3886  0.9489
11334TIP3   OH255416   1.341   5.640  11.648 -0.2288  0.2631  0.1932
11334TIP3    H155417   1.253   5.605  11.657 -0.9077  1.3576 -1.8002
11334TIP3    H255418   1.398   5.564  11.663 -1.5294 -0.7471  0.2041
11335TIP3   OH255419   4.437   6.244  12.024  0.2916 -0.1378  0.4906
11335TIP3    H155420   4.524   6.284  12.026 -0.2545  1.1122  1.0985
11335TIP3    H255421   4.453   6.152  12.005  1.5009  0.6415 -2.9421
11336TIP3   OH255422   5.973   3.600  16.289 -0.1491  0.0802  0.1977
11336TIP3    H155423   6.022   3.673  16.327 -0.7578  1.0637 -0.8311
11336TIP3    H255424   6.024   3.574  16.212 -0.2687 -0.1405  0.1906
11337TIP3   OH255425   0.759   0.251  15.462  0.7483  0.7401  0.0270
11337TIP3    H155426   0.670   0.283  15.450  0.7754  0.9411  0.3432
11337TIP3    H255427   0.749   0.170  15.512  0.7764  1.0499  0.5397
11338TIP3   OH255428   4.006   4.418  12.435  0.4575  0.5652  0.5448
11338TIP3    H155429   3.962   4.493  12.474 -3.4051 -1.1494 -0.0850
11338TIP3    H255430   4.027   4.361  12.509  1.1681  1.1454  0.8000
11339TIP3   OH255431   1.797   6.263  12.922  0.2115 -0.4301 -0.6311
11339TIP3    H155432   1.820   6.295  12.835  0.9900 -2.0023 -1.0392
11339TIP3    H255433   1.876   6.220  12.954 -0.5022 -1.1464  0.2428
11340TIP3   OH255434   5.847   5.852  12.163 -0.3115 -0.0713  0.4080
11340TIP3    H155435   5.854   5.931  12.217  1.8583  0.5800 -0.7232
11340TIP3    H255436   5.925   5.801  12.184 -0.5486 -0.8345 -0.5096
11341TIP3   OH255437   0.048   2.282   3.332  0.5811  0.3590  0.5203
11341TIP3    H155438   0.119   2.229   3.295 -0.3239 -0.6482  0.1795
11341TIP3    H255439  -0.002   2.220   3.385  0.8315  1.3866  2.0482
11342TIP3   OH255440   2.966   6.097   6.777  0.6147  0.7778 -0.1398
11342TIP3    H155441   3.030   6.167   6.785  0.3715  1.0918 -0.8519
11342TIP3    H255442   2.920   6.116   6.695  0.3604 -0.0586 -0.1984
11343TIP3   OH255443   1.121   2.057   6.769 -0.4891  0.0528 -0.1590
11343TIP3    H155444   1.194   2.025   6.716  0.6261  0.3709  1.1602
11343TIP3    H255445   1.047   2.060   6.707  0.7586  0.4304 -1.7042
11344TIP3   OH255446   5.796   6.086   3.120  0.2265 -0.7217  0.4209
11344TIP3    H155447   5.728   6.022   3.101  0.2791 -0.2427 -1.7100
11344TIP3    H255448   5.877   6.044   3.094  0.1912  0.3715 -1.7159
11345TIP3   OH255449   2.554   6.746   1.550 -0.4591 -0.1438  0.2463
11345TIP3    H155450   2.632   6.712   1.507  0.0450  1.1255  0.1098
11345TIP3    H255451   2.587   6.790   1.628 -0.8201  1.9322 -0.7176
11346TIP3   OH255452   2.492   1.726   1.416  0.1336 -0.0812  0.4824
11346TIP3    H155453   2.545   1.795   1.455 -1.1578  0.2218  1.7592
11346TIP3    H255454   2.483   1.660   1.485  2.5403 -2.3131 -1.1298
11347TIP3   OH255455   5.127   4.570  12.388  0.1986 -0.0854  0.5022
11347TIP3    H155456   5.042   4.578  12.343 -0.6821 -0.5758  2.0112
11347TIP3    H255457   5.108   4.597  12.478  1.8862  0.7444  0.6376
11348TIP3   OH255458   6.436   1.697  17.035 -0.0373  0.3218  0.3214
11348TIP3    H155459   6.344   1.687  17.060 -0.6767  1.9204 -1.1973
11348TIP3    H255460   6.439   1.777  16.982  2.1422  0.0424 -0.1063
11349TIP3   OH255461   6.142   4.076  11.730  0.5817 -0.7753  0.3772
11349TIP3    H155462   6.058   4.079  11.683  0.9586 -1.5008 -0.3709
11349TIP3    H255463   6.119   4.050  11.819  0.0491 -1.4005  0.0659
11350TIP3   OH255464   5.262   1.820  16.326  0.4985 -0.5763  0.8595
11350TIP3    H155465   5.284   1.903  16.283  0.6284 -0.3566  1.3436
11350TIP3    H255466   5.205   1.775  16.264 -1.0456  0.6461  1.3198
11351TIP3   OH255467   5.073   5.005  10.867 -0.4960  0.6330 -0.0220
11351TIP3    H155468   5.112   5.033  10.784  1.6318 -0.1660  0.6426
11351TIP3    H255469   5.081   5.081  10.924 -0.7858  0.7705 -0.1616
11352TIP3   OH255470   2.594   5.454   4.964 -0.0466  0.2548  0.2785
11352TIP3    H155471   2.584   5.502   4.882  0.7828  0.9153  0.5419
11352TIP3    H255472   2.640   5.374   4.940  0.9643  0.8360  0.2002
11353TIP3   OH255473   6.307   4.156   2.465  0.3543  0.7127  0.3374
11353TIP3    H155474   6.371   4.142   2.395  0.3893  0.2226  0.4636
11353TIP3    H255475   6.317   4.081   2.522 -0.6352  0.4016  0.1266
11354TIP3   OH255476   0.843   4.292  10.769  0.1808 -0.2083 -0.0969
11354TIP3    H155477   0.796   4.215  10.736  1.0574 -1.2763  1.0189
11354TIP3    H255478   0.922   4.296  10.716 -0.7744  1.1448 -1.4794
11355TIP3   OH255479   5.013   4.743   5.180 -0.1814 -0.5038 -0.2663
11355TIP3    H155480   5.102   4.749   5.216  0.2706 -1.5554 -1.1537
11355TIP3    H255481   4.956   4.761   5.255  0.7665 -0.5384  0.4856
11356TIP3   OH255482   4.361   5.590   2.046 -0.5948 -0.3721 -0.1829
11356TIP3    H155483   4.312   5.612   1.967 -0.1080 -2.2201 -1.0605
11356TIP3    H255484   4.444   5.554   2.014 -0.9208 -2.4304  1.0883
11357TIP3   OH255485   5.428   1.032  17.142  0.2532 -0.6498 -0.0505
11357TIP3    H155486   5.356   0.993  17.091  0.5457 -0.7925 -0.3612
11357TIP3    H255487   5.411   1.126  17.139 -1.3411 -0.8108  2.0350
11358TIP3   OH255488   1.148   2.310   1.565 -0.0945  0.1026 -0.0968
11358TIP3    H155489   1.124   2.279   1.477  1.7834  1.2689 -1.0956
11358TIP3    H255490   1.103   2.250   1.624 -0.3748 -1.5615 -1.8697
11359TIP3   OH255491   5.445   4.553   0.102 -0.3869  0.1110 -0.1006
11359TIP3    H155492   5.449   4.643   0.071 -1.1866  0.0759 -0.3405
11359TIP3    H255493   5.497   4.503   0.038 -1.3987  0.1509 -0.9824
11360TIP3   OH255494   6.749   5.998  13.069  0.4855 -0.4316  0.2716
11360TIP3    H155495   6.746   6.083  13.112  0.3982 -0.0209 -0.5262
11360TIP3    H255496   6.810   5.947  13.122  0.7496  0.2162  0.6072
11361TIP3   OH255497   4.572   6.470  10.724 -0.4602  0.2022  0.0346
11361TIP3    H155498   4.574   6.508  10.812  0.4365 -1.0149  0.5673
11361TIP3    H255499   4.479   6.455  10.707 -0.5283 -1.9976  1.9156
11362TIP3   OH255500   4.312   0.205  15.719  0.1519 -0.5076  0.6704
11362TIP3    H155501   4.257   0.183  15.644  0.0555  0.7393  0.3567
11362TIP3    H255502   4.367   0.127  15.732 -1.6208 -1.7585  0.9548
11363TIP3   OH255503   1.214   2.333  12.461 -0.8038 -0.5528  0.1728
11363TIP3    H155504   1.294   2.305  12.417 -0.8580 -1.1169  0.4163
11363TIP3    H255505   1.195   2.262  12.523  0.5719  1.2079  2.8157
11364TIP3   OH255506   5.440   6.087  13.497 -0.4629 -0.0448  0.3014
11364TIP3    H155507   5.466   6.002  13.464  1.2987 -0.1118  1.7387
11364TIP3    H255508   5.502   6.149  13.458 -1.3065  0.5184 -0.1969
11365TIP3   OH255509   0.636   0.176  13.873  0.7771  0.2100  0.3205
11365TIP3    H155510   0.566   0.157  13.936  0.1057 -1.1267 -0.7739
11365TIP3    H255511   0.592   0.224  13.802  1.0301 -0.3487 -0.2199
11366TIP3   OH255512   0.783   4.928  13.836 -0.3001  0.3131  0.1866
11366TIP3    H155513   0.807   4.854  13.780 -1.9262 -0.1297  0.0128
11366TIP3    H255514   0.696   4.954  13.806 -0.8115  0.6898  1.8662
11367TIP3   OH255515   3.439   1.092   6.416 -0.1235  0.2384  0.3183
11367TIP3    H155516   3.517   1.146   6.429 -0.3193  1.0679 -1.6757
11367TIP3    H255517   3.386   1.140   6.353 -0.1020 -2.4030 -1.9013
11368TIP3   OH255518   6.681   1.161   4.516 -0.0138  0.5868 -0.5104
11368TIP3    H155519   6.669   1.251   4.547  1.5990 -0.0514  2.3192
11368TIP3    H255520   6.592   1.126   4.509 -0.5949  1.7534  0.5889
11369TIP3   OH255521   6.273   2.752  16.586  0.1935 -0.2422 -0.2086
11369TIP3    H155522   6.292   2.823  16.524  0.0381  1.9062  2.0221
11369TIP3    H255523   6.359   2.728  16.621  0.2074 -0.8970 -0.6892
11370TIP3   OH255524   3.817   4.265  12.227  0.1004 -0.2809 -0.2222
11370TIP3    H155525   3.849   4.262  12.317  2.8123 -0.1439 -1.0859
11370TIP3    H255526   3.843   4.181  12.189  2.8958  1.1984 -1.9563
11371TIP3   OH255527   6.290   2.583   1.829 -0.1227 -0.2456 -0.5091
11371TIP3    H155528   6.323   2.608   1.916  2.4175  0.1210 -1.4919
11371TIP3    H255529   6.195   2.597   1.835 -0.1402 -0.8660  2.3874
11372TIP3   OH255530   0.750   4.522  15.624 -0.0754 -0.5435  0.0603
11372TIP3    H155531   0.702   4.536  15.542  1.2363 -0.0901 -0.6574
11372TIP3    H255532   0.757   4.427  15.632  1.4216 -0.6120 -1.3938
11373TIP3   OH255533   5.206   4.215  12.640  0.1806 -0.2398  0.3108
11373TIP3    H155534   5.291   4.194  12.601  0.1005  0.3288 -0.1950
11373TIP3    H255535   5.163   4.271  12.574 -0.2087  0.2325  0.9560
11374TIP3   OH255536   0.296   6.418  13.718  0.2305  0.3263  0.3437
11374TIP3    H155537   0.201   6.416  13.727  0.2519  0.1755  0.5248
11374TIP3    H255538   0.329   6.417  13.807  0.3813  1.4678  0.3109
11375TIP3   OH255539   2.911   4.095   1.476 -0.1937  0.2266 -0.4761
11375TIP3    H155540   2.822   4.125   1.460  0.7583  2.0874 -2.9616
11375TIP3    H255541   2.900   4.010   1.519 -3.0958  1.1796  0.9223
11376TIP3   OH255542   2.389   1.764  15.972 -0.0364  0.2460 -0.1714
11376TIP3    H155543   2.453   1.835  15.972 -0.5940  0.7758 -1.3868
11376TIP3    H255544   2.351   1.766  15.884  0.1017 -1.7119 -0.3136
11377TIP3   OH255545   2.470   1.194   2.229  0.0020  0.2011 -0.1146
11377TIP3    H155546   2.500   1.285   2.224  0.9196 -0.0509  0.4998
11377TIP3    H255547   2.473   1.162   2.139 -2.2596  1.3456 -0.6773
11378TIP3   OH255548   4.978   3.984  13.836 -0.2809 -0.1331  0.1302
11378TIP3    H155549   5.042   3.981  13.766  2.4104 -0.7832  2.4501
11378TIP3    H255550   4.936   3.898  13.835  1.1249 -0.8526  0.4749
11379TIP3   OH255551   5.700   6.558   0.904 -0.0080 -0.1350 -0.4117
11379TIP3    H155552   5.750   6.619   0.850  0.6323 -0.6023 -0.3606
11379TIP3    H255553   5.763   6.488   0.925  0.2557  0.8070  2.2609
11380TIP3   OH255554   0.262   3.430  15.662 -0.4708  0.1803 -0.4434
11380TIP3    H155555   0.296   3.464  15.745 -0.7279 -0.9057  0.1229
11380TIP3    H255556   0.322   3.359  15.639 -1.0728 -0.2862 -0.5880
11381TIP3   OH255557   3.446   4.882  14.231 -0.1533 -0.6899  0.2845
11381TIP3    H155558   3.416   4.849  14.315 -0.2191 -1.5881 -0.0848
11381TIP3    H255559   3.539   4.859  14.228  0.7340  2.2758  1.5186
11382TIP3   OH255560   5.564   5.886   0.152 -0.4734  0.1548  0.4057
11382TIP3    H155561   5.471   5.876   0.129  0.0966 -2.7983 -1.1641
11382TIP3    H255562   5.596   5.953   0.092 -0.5899 -2.4955 -2.9519
11383TIP3   OH255563   1.451   0.113  15.465  0.0323 -0.1921  0.2446
11383TIP3    H155564   1.476   0.066  15.385 -0.8302 -0.0844 -0.0954
11383TIP3    H255565   1.522   0.176  15.479 -0.3368  0.5422 -1.0551
11384TIP3   OH255566   6.438   5.645   3.605 -0.3222  0.1940  0.3377
11384TIP3    H155567   6.462   5.560   3.643 -0.3991  0.2853  0.5945
11384TIP3    H255568   6.486   5.709   3.657  1.2387  0.2198 -1.0529
11385TIP3   OH255569   6.525   3.199   5.051  0.5868 -0.1581 -0.2925
11385TIP3    H155570   6.589   3.139   5.089  0.1334  0.4102  1.4746
11385TIP3    H255571   6.440   3.161   5.075  0.2724  0.0404 -1.0612
11386TIP3   OH255572   2.236   3.596   3.118  0.2111  0.2198 -0.2884
11386TIP3    H155573   2.266   3.578   3.207 -1.4672 -0.2412  0.2179
11386TIP3    H255574   2.219   3.509   3.081 -0.6045  0.4582 -0.4992
11387TIP3   OH255575   3.903   6.581  12.173  0.0861  0.6408 -0.3114
11387TIP3    H155576   3.929   6.491  12.190 -0.5107  0.1342 -1.8787
11387TIP3    H255577   3.808   6.576  12.158 -0.4133  1.9365  2.0422
11388TIP3   OH255578   4.582   5.486  15.049 -0.3148  0.1698  0.0439
11388TIP3    H155579   4.517   5.479  14.979  0.3521  0.3660 -0.6069
11388TIP3    H255580   4.574   5.405  15.098 -0.6220 -0.0749 -0.4050
11389TIP3   OH255581   3.893   6.375   2.544 -0.1995  0.0760  0.1313
11389TIP3    H155582   3.903   6.470   2.538 -0.0101  0.0658  0.2757
11389TIP3    H255583   3.974   6.340   2.506  0.1003 -0.0139  0.8288
11390TIP3   OH255584   6.549   6.763  15.616  0.2784 -0.4230  0.0409
11390TIP3    H155585   6.461   6.792  15.594  0.7732  0.5931 -0.6745
11390TIP3    H255586   6.604   6.840  15.603  1.2743 -1.0256  0.5173
11391TIP3   OH255587   3.902   3.133   2.633  0.1500  0.5869  0.4228
11391TIP3    H155588   3.915   3.155   2.725  0.0132 -0.0686  0.6011
11391TIP3    H255589   3.827   3.185   2.606 -0.2813  0.2243  0.8897
11392TIP3   OH255590   4.689   6.188   5.371 -0.5753 -0.4187  0.5679
11392TIP3    H155591   4.606   6.141   5.377 -0.6007 -0.3716  0.5839
11392TIP3    H255592   4.666   6.274   5.335 -0.4092 -0.7338 -0.3129
11393TIP3   OH255593   6.470   4.190  16.447 -0.0099 -0.8137  0.0161
11393TIP3    H155594   6.381   4.172  16.476 -1.3893  1.2798 -2.4976
11393TIP3    H255595   6.483   4.283  16.462  1.2261 -0.7987 -0.9157
11394TIP3   OH255596   4.610   2.794  14.080 -0.4977 -0.2256 -0.3527
11394TIP3    H155597   4.696   2.769  14.047  0.1706  2.5907 -0.9679
11394TIP3    H255598   4.578   2.860  14.019 -2.0017  0.5860  1.2127
11395TIP3   OH255599   3.446   6.413  15.529 -0.1121  0.4164 -0.0696
11395TIP3    H155600   3.369   6.444  15.480  1.1832  0.5884 -2.0911
11395TIP3    H255601   3.414   6.335  15.576 -1.4782  0.3585 -1.0332
11396TIP3   OH255602   4.030   3.794   0.889 -0.8136  0.8602  0.4356
11396TIP3    H155603   4.033   3.717   0.944  0.2526 -0.2241 -1.0697
11396TIP3    H255604   4.073   3.863   0.941 -0.4631  0.0650  1.2203
11397TIP3   OH255605   4.234   2.553  13.851 -0.5620 -0.5569 -0.0290
11397TIP3    H155606   4.147   2.593  13.858 -1.0845 -1.2676 -1.8640
11397TIP3    H255607   4.217   2.459  13.853  0.3710 -0.7207  1.3292
11398TIP3   OH255608   4.607   6.193  14.141  0.1267 -0.6693 -0.4954
11398TIP3    H155609   4.657   6.112  14.144  0.0150 -0.7718 -1.1943
11398TIP3    H255610   4.638   6.244  14.216  0.3123 -1.2879 -0.1462
11399TIP3   OH255611   0.784   6.461   1.659 -0.6033  0.0322  0.4014
11399TIP3    H155612   0.729   6.540   1.657  1.0188  1.1949 -1.2553
11399TIP3    H255613   0.872   6.494   1.676 -0.0571 -1.5826  0.8493
11400TIP3   OH255614   6.431   5.273   0.867  0.4809 -0.0234 -0.5381
11400TIP3    H155615   6.417   5.234   0.781 -1.5939  0.0288 -0.2622
11400TIP3    H255616   6.360   5.240   0.921  3.1601 -2.2391  2.0011
11401TIP3   OH255617   6.775   5.351   2.432 -0.1767 -0.7591  0.5591
11401TIP3    H155618   6.747   5.270   2.390 -0.8530  0.2711 -1.0917
11401TIP3    H255619   6.772   5.416   2.362 -0.6920  0.9198  2.0742
11402TIP3   OH255620   3.730   5.980   1.874  0.0384 -0.0810  0.3922
11402TIP3    H155621   3.758   5.890   1.888  2.3047  0.5221  0.0813
11402TIP3    H255622   3.803   6.033   1.905 -0.4212  1.6092 -1.2528
11403TIP3   OH255623   2.740   5.438   4.652  0.5546  0.3010 -0.6991
11403TIP3    H155624   2.745   5.518   4.705 -1.5079  0.4406 -0.6319
11403TIP3    H255625   2.679   5.459   4.581 -0.3906 -1.3215 -0.4318
11404TIP3   OH255626   2.910   1.488   5.789  0.4206 -0.0300 -0.3783
11404TIP3    H155627   2.847   1.504   5.719 -2.2525  0.6434  1.9789
11404TIP3    H255628   2.917   1.571   5.836  0.3215 -1.0152  1.4820
11405TIP3   OH255629   2.042   4.307  16.671  0.2834 -0.6163 -0.2322
11405TIP3    H155630   2.063   4.242  16.739  1.8291  0.8395  0.7717
11405TIP3    H255631   1.986   4.370  16.716 -1.4673 -1.3469 -1.2885
11406TIP3   OH255632   5.765   2.428  15.718 -0.4906  0.2106  0.3641
11406TIP3    H155633   5.849   2.389  15.694 -1.2361 -0.9668 -0.4766
11406TIP3    H255634   5.727   2.458  15.635 -1.9911 -1.6237  0.2913
11407TIP3   OH255635   6.605   1.969   4.384 -0.2315  0.0622 -0.3215
11407TIP3    H155636   6.551   1.979   4.462  0.9332 -0.1764  0.5324
11407TIP3    H255637   6.671   1.904   4.408 -0.4273 -0.7398 -1.8271
11408TIP3   OH255638   4.970   4.576   0.796 -0.2348  0.1677  0.2937
11408TIP3    H155639   4.900   4.553   0.734 -0.5986  0.5495  0.5594
11408TIP3    H255640   5.028   4.634   0.746 -0.0990 -0.1615  0.0676
11409TIP3   OH255641   5.094   0.999   3.475 -0.0711 -0.3048 -0.3153
11409TIP3    H155642   5.147   1.005   3.396  0.7129 -0.8822  0.1470
11409TIP3    H255643   5.088   1.089   3.508  0.7982 -0.2664 -0.2615
11410TIP3   OH255644   3.561   3.753  13.648  0.6186 -0.3061 -0.2717
11410TIP3    H155645   3.622   3.822  13.621 -2.0887  2.0826 -0.7313
11410TIP3    H255646   3.603   3.713  13.724  3.4224  0.1160 -1.4638
11411TIP3   OH255647   6.406   4.574  14.148  0.1583  0.1582  0.2079
11411TIP3    H155648   6.367   4.492  14.116 -0.2161  1.1107 -1.9535
11411TIP3    H255649   6.341   4.609  14.209  0.1578 -0.9533  0.8660
11412TIP3   OH255650   4.567   4.755  15.300  0.6686  0.3350 -0.3426
11412TIP3    H155651   4.559   4.744  15.395 -0.7492 -0.8918 -0.5678
11412TIP3    H255652   4.551   4.848  15.285 -1.1674  0.1913  0.4581
11413TIP3   OH255653   3.787   1.324  13.082  0.3484  0.4985 -0.7476
11413TIP3    H155654   3.837   1.286  13.154 -1.3934  0.9461  0.7693
11413TIP3    H255655   3.768   1.413  13.111 -0.7270  0.5567 -1.5824
11414TIP3   OH255656   5.324   5.896  12.888 -0.4916  0.1364 -0.0664
11414TIP3    H155657   5.285   5.886  12.801  0.3513 -1.3359 -0.2993
11414TIP3    H255658   5.346   5.807  12.916 -0.0142  0.6545  1.3160
11415TIP3   OH255659   4.550   4.913  14.474 -0.3028  0.3229 -0.0990
11415TIP3    H155660   4.512   4.859  14.543  1.2580 -0.0707  0.4961
11415TIP3    H255661   4.476   4.963  14.439 -1.1119  0.7521  2.0341
11416TIP3   OH255662   1.536   0.163  11.009 -0.3878  0.3845  0.3303
11416TIP3    H155663   1.459   0.106  11.011  0.1237 -0.3563 -0.4828
11416TIP3    H255664   1.599   0.120  11.068 -1.3831  2.2369  2.9520
11417TIP3   OH255665   2.829   0.794   2.418  0.0424  0.0141  0.2319
11417TIP3    H155666   2.762   0.862   2.425  0.1058  0.1148 -0.1029
11417TIP3    H255667   2.867   0.806   2.331  1.8635  1.2168  1.1264
11418TIP3   OH255668   1.224   6.088   5.138 -0.4416  0.6094  0.0502
11418TIP3    H155669   1.261   6.151   5.201 -1.6427 -1.6766  3.3055
11418TIP3    H255670   1.274   6.008   5.152 -0.0196  0.2679 -2.8381
11419TIP3   OH255671   1.551   4.554  14.424 -0.0611 -0.1185 -0.6293
11419TIP3    H155672   1.580   4.486  14.484  2.3700  0.3590 -1.1802
11419TIP3    H255673   1.570   4.637  14.468  1.0328  0.2252 -1.6992
11420TIP3   OH255674   5.623   5.860   4.056  0.4141 -0.3978  0.0131
11420TIP3    H155675   5.588   5.771   4.063 -0.5050  0.0548  1.3541
11420TIP3    H255676   5.715   5.852   4.082  0.8226 -1.2301 -1.5544
11421TIP3   OH255677   1.757   6.347  13.542  0.1234  0.4616  0.0987
11421TIP3    H155678   1.699   6.341  13.618  0.2607  3.1426  0.5261
11421TIP3    H255679   1.839   6.307  13.570 -0.7279 -1.2241  0.2962
11422TIP3   OH255680   5.984   2.972   3.328 -0.0275  0.9241 -0.0983
11422TIP3    H155681   6.022   3.048   3.285 -0.8249  1.9222  0.9051
11422TIP3    H255682   5.902   2.956   3.282 -0.0716  0.9411 -0.0255
11423TIP3   OH255683   1.668   5.413   3.475 -0.3436 -0.3847 -0.1098
11423TIP3    H155684   1.746   5.390   3.423  0.5784 -0.4522  1.2427
11423TIP3    H255685   1.664   5.509   3.470  1.6356 -0.0685  2.1652
11424TIP3   OH255686   6.107   3.460  15.352 -0.3784 -0.0367 -0.2741
11424TIP3    H155687   6.179   3.445  15.413 -1.5317 -0.2831  1.0992
11424TIP3    H255688   6.070   3.373  15.337  0.0358 -0.0095 -1.5449
11425TIP3   OH255689   4.894   5.071   3.418 -0.4895  0.3610  0.0154
11425TIP3    H155690   4.891   4.989   3.368  0.1217  0.3041  0.0668
11425TIP3    H255691   4.815   5.118   3.390 -1.9732 -1.1137  1.5027
11426TIP3   OH255692   5.523   1.148  10.361  0.0421 -0.6710  0.4680
11426TIP3    H155693   5.585   1.219  10.342 -0.3022 -0.6773 -0.7831
11426TIP3    H255694   5.578   1.070  10.370  0.2746 -0.5789 -0.0898
11427TIP3   OH255695   4.532   2.899   5.402 -0.2420  0.8248 -0.0860
11427TIP3    H155696   4.574   2.974   5.360  1.1411 -0.4386 -1.0549
11427TIP3    H255697   4.601   2.860   5.455 -0.5157 -0.5819 -0.7288
11428TIP3   OH255698   0.827   1.717   5.210 -0.0260 -0.7697 -0.1627
11428TIP3    H155699   0.796   1.692   5.123  0.1959 -0.6076 -0.2887
11428TIP3    H255700   0.920   1.693   5.210  0.2805  0.3512 -0.4042
11429TIP3   OH255701   5.026   3.602   3.755 -0.0851  0.4468 -0.2707
11429TIP3    H155702   4.982   3.656   3.820  1.2130  0.9819  0.1970
11429TIP3    H255703   4.974   3.521   3.752 -0.3694  0.5458  1.1717
11430TIP3   OH255704   3.892   3.714  15.179  0.6866  0.5406  0.6211
11430TIP3    H155705   3.854   3.787  15.130 -2.9113 -0.7957  1.1285
11430TIP3    H255706   3.877   3.737  15.271  1.4993  0.1098  0.8716
11431TIP3   OH255707   4.499   3.001  13.969 -0.6980  0.5680 -0.3949
11431TIP3    H155708   4.464   3.090  13.958 -1.2801  0.4579  0.4486
11431TIP3    H255709   4.424   2.944  13.958 -0.0728  0.0591 -2.3479
11432TIP3   OH255710   0.330   5.425   1.079 -0.6204  0.4257  0.0606
11432TIP3    H155711   0.239   5.405   1.102 -0.6444 -0.7199 -0.9784
11432TIP3    H255712   0.341   5.389   0.991  1.1095 -0.2646  0.5341
11433TIP3   OH255713   6.639   3.972  11.854 -0.5705 -0.3002 -0.6971
11433TIP3    H155714   6.701   4.011  11.794 -2.3495  1.7828 -1.3089
11433TIP3    H255715   6.665   4.003  11.941  0.5693 -1.3469 -0.6435
11434TIP3   OH255716   3.033   0.969   2.503  0.5585 -0.0025  0.0515
11434TIP3    H155717   3.032   1.029   2.428  2.5840 -0.3176 -0.2923
11434TIP3    H255718   2.959   0.910   2.488 -0.1080  1.0037 -0.7769
11435TIP3   OH255719   3.691   5.801  15.243 -0.3137 -0.0409  0.9829
11435TIP3    H155720   3.663   5.890  15.223  1.2268  0.1153 -0.7608
11435TIP3    H255721   3.646   5.747  15.177  0.6938 -0.2142  0.4228
11436TIP3   OH255722   0.571   4.693  12.033 -0.1836 -0.1967 -0.4418
11436TIP3    H155723   0.501   4.654  12.086 -0.0003 -1.8274 -1.3176
11436TIP3    H255724   0.621   4.617  12.002  1.6881  0.8953 -0.2442
11437TIP3   OH255725   4.472   2.528  14.027 -0.1238  0.1258  0.5677
11437TIP3    H155726   4.380   2.521  14.002 -0.1592  1.9376  0.0930
11437TIP3    H255727   4.485   2.620  14.048  1.4334 -0.2173  1.2848
11438TIP3   OH255728   5.638   1.568  14.668  0.2672  0.1519  0.3475
11438TIP3    H155729   5.706   1.504  14.647 -1.0217 -1.1203 -0.1348
11438TIP3    H255730   5.666   1.605  14.752  0.4392 -2.0104  1.3205
11439TIP3   OH255731   0.336   4.456   1.463 -0.2210 -0.1723 -0.1669
11439TIP3    H155732   0.391   4.511   1.408  1.7459 -3.6513 -2.0232
11439TIP3    H255733   0.258   4.439   1.410 -0.7853  0.6536  0.3680
11440TIP3   OH255734   5.067   0.549  12.737  0.2063 -0.4078 -0.1643
11440TIP3    H155735   5.114   0.615  12.685  1.4044 -0.1851  1.1442
11440TIP3    H255736   5.050   0.478  12.675 -0.8637  0.9715 -1.5382
11441TIP3   OH255737   5.323   5.873   5.869  0.1597 -0.1025 -1.0416
11441TIP3    H155738   5.329   5.865   5.965 -2.2595  2.0149 -0.5928
11441TIP3    H255739   5.394   5.934   5.846  0.2650  0.0018 -0.4639
11442TIP3   OH255740   3.601   1.263  15.293  0.1967 -0.2183  0.6467
11442TIP3    H155741   3.693   1.290  15.291  0.6328 -1.4867  1.9626
11442TIP3    H255742   3.603   1.171  15.265 -1.0230  0.4547 -1.9397
11443TIP3   OH255743   3.535   1.586   5.876 -0.7489  0.2081 -0.5681
11443TIP3    H155744   3.573   1.626   5.798  0.8700 -0.4485 -0.1507
11443TIP3    H255745   3.563   1.642   5.948 -1.0208  0.0031 -0.3006
11444TIP3   OH255746   5.318   5.386   3.629 -0.3521  0.2079 -0.1548
11444TIP3    H155747   5.357   5.298   3.620 -0.0169 -0.0689  2.8727
11444TIP3    H255748   5.235   5.380   3.582  1.3243 -0.4426 -3.3325
11445TIP3   OH255749   5.568   1.212  11.871  0.5128  0.0592  0.5713
11445TIP3    H155750   5.584   1.216  11.965 -0.6038  0.0222  0.7809
11445TIP3    H255751   5.515   1.133  11.859 -0.9480  1.0608  0.1873
11446TIP3   OH255752   6.640   1.434  12.681  0.3194 -0.0484  0.2897
11446TIP3    H155753   6.634   1.500  12.612 -0.0219 -0.6553 -0.2702
11446TIP3    H255754   6.566   1.454  12.739 -0.1959 -0.3353 -0.2463
11447TIP3   OH255755   0.559   0.163   6.280 -0.3858  0.1765 -0.5606
11447TIP3    H155756   0.465   0.159   6.267 -0.2398  0.5476 -1.8592
11447TIP3    H255757   0.571   0.216   6.358 -1.1966  1.4871 -1.3044
11448TIP3   OH255758   0.207   1.886   2.670  0.4605  0.0244  0.2857
11448TIP3    H155759   0.266   1.822   2.630  1.9085  0.9771  0.8152
11448TIP3    H255760   0.120   1.851   2.654  1.1964 -2.0802  0.5311
11449TIP3   OH255761   1.464   2.866   3.196  0.4949 -0.1967 -0.1406
11449TIP3    H155762   1.424   2.785   3.166  0.3462  0.4160 -1.6820
11449TIP3    H255763   1.552   2.840   3.225  0.0683 -1.0583  0.4264
11450TIP3   OH255764   4.714   3.648  13.276  0.1705 -0.0243 -0.3984
11450TIP3    H155765   4.748   3.625  13.362  0.1766  0.7554 -0.1891
11450TIP3    H255766   4.637   3.592  13.265  0.4776 -0.5040 -0.1140
11451TIP3   OH255767   4.938   0.977  17.066 -0.2797  0.1203  0.4205
11451TIP3    H155768   4.962   0.895  17.110  0.6718 -0.5230 -1.1893
11451TIP3    H255769   4.843   0.983  17.076 -0.0969  0.0723  2.5922
11452TIP3   OH255770   2.103   6.185   2.348  0.3751  0.3161 -0.3158
11452TIP3    H155771   2.077   6.133   2.272  1.2679 -0.1655 -0.3002
11452TIP3    H255772   2.148   6.261   2.310 -0.0566  0.5836 -0.2997
11453TIP3   OH255773   4.043   5.350  14.755 -0.0792 -0.4317  0.1064
11453TIP3    H155774   4.119   5.320  14.705 -0.2564 -1.6364  0.5431
11453TIP3    H255775   4.066   5.439  14.782  0.9237 -0.5650 -0.2650
11454TIP3   OH255776   5.588   0.742   3.611  0.1422  0.3491 -0.2025
11454TIP3    H155777   5.553   0.811   3.556 -0.0227 -0.5812 -1.2842
11454TIP3    H255778   5.560   0.765   3.700 -0.2809  1.4222 -0.6072
11455TIP3   OH255779   6.136   5.692  17.015 -0.0450 -0.5401  0.3468
11455TIP3    H155780   6.051   5.732  17.001 -0.5272 -1.9703 -1.0765
11455TIP3    H255781   6.178   5.748  17.081 -2.0427  0.1998  1.0689
11456TIP3   OH255782   6.015   4.553   5.075 -0.1975 -0.6191  0.3119
11456TIP3    H155783   6.098   4.519   5.042 -0.3711 -0.1027 -0.7076
11456TIP3    H255784   5.962   4.475   5.092 -0.1592 -0.9015 -0.8078
11457TIP3   OH255785   2.183   5.461  16.826  0.1488  0.9404  0.0428
11457TIP3    H155786   2.233   5.481  16.905 -0.3551  0.6239  0.4474
11457TIP3    H255787   2.132   5.540  16.809 -1.2234  0.3321  1.1712
11458TIP3   OH255788   4.415   0.197   3.359 -0.0685  0.6942 -0.1817
11458TIP3    H155789   4.460   0.168   3.279  1.5221  1.6075  0.3461
11458TIP3    H255790   4.348   0.130   3.374  2.1877 -1.6976 -0.0600
11459TIP3   OH255791   1.643   3.705   5.118  0.1667 -0.0219  0.1273
11459TIP3    H155792   1.665   3.749   5.200  1.0452 -0.0811 -0.0712
11459TIP3    H255793   1.678   3.616   5.128  0.3599  0.0001 -0.3496
11460TIP3   OH255794   5.364   6.348   5.713  0.0358 -0.3841 -0.1434
11460TIP3    H155795   5.328   6.262   5.689  0.6378 -0.7147  0.1025
11460TIP3    H255796   5.396   6.385   5.631 -0.8672 -0.0800 -0.3668
11461TIP3   OH255797   1.397   0.524   3.919  0.4483  0.1284  0.5722
11461TIP3    H155798   1.475   0.468   3.918  1.7217  1.7803  1.6256
11461TIP3    H255799   1.340   0.483   3.984  0.7958 -0.6159  0.4303
11462TIP3   OH255800   1.063   2.407  15.392  0.7094 -0.2352  0.2428
11462TIP3    H155801   1.009   2.334  15.364 -1.7262  1.9615 -1.2893
11462TIP3    H255802   1.073   2.396  15.487 -0.6630 -1.8308  0.2326
11463TIP3   OH255803   4.534   1.895  13.764 -0.1981  0.4506 -0.2917
11463TIP3    H155804   4.520   1.967  13.826 -0.2968 -0.9280  1.3573
11463TIP3    H255805   4.629   1.885  13.760 -0.1999  0.4053 -0.2111
11464TIP3   OH255806   4.926   1.373   4.588  0.0706  0.2021 -0.2196
11464TIP3    H155807   4.988   1.313   4.546  0.0788 -0.7032  1.0281
11464TIP3    H255808   4.979   1.450   4.609  0.4970 -0.0802 -0.2309
11465TIP3   OH255809   3.718   1.577  13.167  0.3592  0.6187 -0.6991
11465TIP3    H155810   3.633   1.621  13.164 -0.8218 -1.4571  0.2928
11465TIP3    H255811   3.763   1.618  13.241 -1.2454 -0.6162  1.0545
11466TIP3   OH255812   4.978   5.550   4.775 -0.5631  0.5315 -0.5094
11466TIP3    H155813   5.043   5.593   4.830 -0.4484  0.0755 -0.2790
11466TIP3    H255814   5.010   5.460   4.767  0.9570  1.2119 -3.6611
11467TIP3   OH255815   2.208   1.267  12.743  0.3058 -0.2577 -0.3218
11467TIP3    H155816   2.228   1.329  12.813 -0.7993  0.0881 -0.2961
11467TIP3    H255817   2.289   1.219  12.731  1.1571  1.0880 -0.2385
11468TIP3   OH255818   3.089   4.387  15.506 -0.0628  1.0261  0.5909
11468TIP3    H155819   3.144   4.381  15.583 -1.4390  0.7764  1.5960
11468TIP3    H255820   3.084   4.297  15.473  0.2559  1.0792  0.3890
11469TIP3   OH255821   2.466   4.348  12.770 -0.1807  0.6584 -0.4970
11469TIP3    H155822   2.373   4.351  12.747 -0.4538 -0.6167  0.3395
11469TIP3    H255823   2.510   4.385  12.693 -1.3263  0.5575 -1.2361
11470TIP3   OH255824   5.778   1.662   2.668  0.3751  0.1166  0.7972
11470TIP3    H155825   5.807   1.572   2.679 -1.3959 -0.6252 -0.1349
11470TIP3    H255826   5.702   1.670   2.726  0.4065  0.9589  0.7354
11471TIP3   OH255827   0.557   1.727  16.148  0.2183 -0.6849  0.2221
11471TIP3    H155828   0.543   1.755  16.058 -0.6033 -1.3122  0.1424
11471TIP3    H255829   0.508   1.789  16.201  1.4162  0.2137  0.3169
11472TIP3   OH255830   5.652   1.661  13.131 -0.0303  0.8071  0.0625
11472TIP3    H155831   5.603   1.743  13.126 -1.3783  0.3086  2.8573
11472TIP3    H255832   5.585   1.594  13.142  1.1357 -0.4066  0.0108
11473TIP3   OH255833   1.698   5.973  12.756 -0.1964  0.1190 -0.6189
11473TIP3    H155834   1.650   6.040  12.708 -1.3802 -0.9014 -0.9019
11473TIP3    H255835   1.693   6.001  12.848 -2.6818 -0.7049 -0.4287
11474TIP3   OH255836   4.519   5.178  16.448 -0.7176 -0.3738  0.1320
11474TIP3    H155837   4.500   5.096  16.402 -1.5088 -0.7794  1.1338
11474TIP3    H255838   4.597   5.159  16.500  0.4295  0.2122 -1.3061
11475TIP3   OH255839   3.954   2.209  16.014 -0.0936 -0.6892  0.0408
11475TIP3    H155840   3.881   2.263  16.043  0.6071  0.4305 -0.2404
11475TIP3    H255841   3.999   2.184  16.094 -1.3826 -2.3158  0.3157
11476TIP3   OH255842   2.368   2.165   2.626 -0.1457 -0.0142  0.0376
11476TIP3    H155843   2.318   2.205   2.554 -0.6606 -1.3193 -0.3534
11476TIP3    H255844   2.390   2.239   2.683  2.5872  1.5524 -2.7409
11477TIP3   OH255845   5.159   0.863   4.382 -0.3332  1.0517  0.4084
11477TIP3    H155846   5.136   0.951   4.412 -1.2954  0.3842  1.7479
11477TIP3    H255847   5.181   0.816   4.462  2.1598  0.5938 -0.4761
11478TIP3   OH255848   4.851   1.948   3.781 -1.1577  0.2728  0.0796
11478TIP3    H155849   4.865   2.007   3.707 -0.3681  0.7970  0.6242
11478TIP3    H255850   4.794   1.880   3.747 -0.6513  0.3916 -1.0717
11479TIP3   OH255851   3.661   0.741  11.486  0.6978  0.7293  0.1168
11479TIP3    H155852   3.695   0.828  11.463  2.5716 -0.0706 -0.2906
11479TIP3    H255853   3.574   0.739  11.447  0.6321  2.3923  0.0776
11480TIP3   OH255854   3.717   3.932  13.490 -0.4661 -0.1739  0.2201
11480TIP3    H155855   3.777   3.871  13.447 -1.1809 -1.0566  0.4452
11480TIP3    H255856   3.775   3.992  13.537  0.2572 -1.3809  0.9334
11481TIP3   OH255857   1.116   6.474   0.247 -0.4852  0.0888 -0.3405
11481TIP3    H155858   1.061   6.487   0.169 -2.2184  0.3635  0.8886
11481TIP3    H255859   1.091   6.387   0.279  0.0985  0.0476  0.0147
11482TIP3   OH255860   4.755   1.166   3.746 -0.4298 -0.3596  0.4419
11482TIP3    H155861   4.782   1.075   3.745 -1.8432 -0.8341  1.8316
11482TIP3    H255862   4.817   1.209   3.805 -0.6126 -0.7228  0.9025
11483TIP3   OH255863   0.504   6.277   4.083  0.0452  0.2685  0.3612
11483TIP3    H155864   0.591   6.268   4.044  0.3254  0.1184  1.0045
11483TIP3    H255865   0.501   6.368   4.114 -0.9149  0.9966 -1.7232
11484TIP3   OH255866   6.076   0.755   6.391  0.1944 -0.1431  0.2225
11484TIP3    H155867   6.100   0.676   6.342 -0.0069 -0.1259  0.0909
11484TIP3    H255868   6.146   0.817   6.373  0.2077 -0.1949  0.0908
11485TIP3   OH255869   6.178   5.090  14.645  0.5795  0.1098 -0.4897
11485TIP3    H155870   6.134   5.174  14.634 -1.2548 -0.9342 -1.5355
11485TIP3    H255871   6.244   5.088  14.576 -0.7418 -0.1169 -1.7884
11486TIP3   OH255872   3.826   3.513   2.307 -0.3054  0.8292 -0.1214
11486TIP3    H155873   3.833   3.532   2.401 -1.0174  2.5090 -0.3750
11486TIP3    H255874   3.736   3.483   2.296 -0.4997  1.4886 -0.3851
11487TIP3   OH255875   6.144   0.858  14.245  0.1179 -0.1636 -0.2367
11487TIP3    H155876   6.209   0.895  14.304 -0.5629  0.2810  0.2550
11487TIP3    H255877   6.126   0.929  14.183 -0.2949 -0.0912 -0.0370
11488TIP3   OH255878   0.072   6.551  16.575 -0.4072  0.8510  0.3113
11488TIP3    H155879   0.144   6.502  16.535 -0.4018 -0.0143  1.3566
11488TIP3    H255880   0.026   6.487  16.629 -1.8752  1.4323 -0.2016
11489TIP3   OH255881   3.276   4.459   0.561 -0.0389 -0.5128  0.4759
11489TIP3    H155882   3.347   4.501   0.512  0.2058  1.1555  2.1244
11489TIP3    H255883   3.196   4.485   0.514  0.3440 -1.7520 -0.9339
11490TIP3   OH255884   3.709   4.351   3.269  0.2488  0.0166 -0.5927
11490TIP3    H155885   3.728   4.287   3.201 -0.3296  0.2205 -0.9572
11490TIP3    H255886   3.692   4.298   3.348  1.3763 -0.1992 -0.4744
11491TIP3   OH255887   2.833   4.612  15.958 -0.5030  0.1377  0.0311
11491TIP3    H155888   2.878   4.630  16.040  1.4777 -0.8468 -0.7760
11491TIP3    H255889   2.875   4.533  15.924 -1.6076  0.2337 -1.6912
11492TIP3   OH255890   0.712   5.011   4.352 -0.1204  0.3596  0.2381
11492TIP3    H155891   0.629   4.969   4.374  0.7167 -0.9221  1.0574
11492TIP3    H255892   0.741   4.969   4.271  0.1468  0.1910  0.4191
11493TIP3   OH255893   0.550   0.532  12.613 -0.2997  0.1249 -0.4486
11493TIP3    H155894   0.569   0.619  12.577 -1.7885  0.7062  0.0952
11493TIP3    H255895   0.565   0.541  12.707  1.6099 -0.8385 -0.5980
11494TIP3   OH255896   1.426   2.802   5.901 -0.2017 -0.0089 -0.4448
11494TIP3    H155897   1.460   2.718   5.931  1.1355  1.6510  3.2610
11494TIP3    H255898   1.504   2.856   5.886 -1.0273  0.6799 -2.7428
11495TIP3   OH255899   6.285   0.987   4.819  0.0044  0.7056 -0.5751
11495TIP3    H155900   6.378   0.965   4.821 -0.4343 -1.3593  0.3711
11495TIP3    H255901   6.251   0.953   4.902 -1.5619  1.6645 -0.7777
11496TIP3   OH255902   6.712   0.708   0.837 -0.0885 -0.5418  0.1459
11496TIP3    H155903   6.804   0.687   0.819  0.1224  0.3716  0.0609
11496TIP3    H255904   6.663   0.636   0.799  0.6000 -1.1052  0.2986
11497TIP3   OH255905   3.140   0.360  13.354  0.7004 -0.6796  0.7305
11497TIP3    H155906   3.090   0.279  13.357 -0.7764  0.1998  1.1238
11497TIP3    H255907   3.142   0.384  13.261 -0.7744 -0.0691  0.8289
11498TIP3   OH255908   1.794   2.182   0.919 -0.1416  0.3216 -0.5047
11498TIP3    H155909   1.816   2.243   0.849  2.7527  0.9474  0.8144
11498TIP3    H255910   1.859   2.112   0.912  0.2165  0.3895  1.4736
11499TIP3   OH255911   2.762   0.005   1.073 -0.1807  0.1855 -0.0297
11499TIP3    H155912   2.677   0.001   1.115  0.0739 -0.1389  0.4570
11499TIP3    H255913   2.771  -0.079   1.029  0.2354 -0.1047  0.6021
11500TIP3   OH255914   0.460   2.758   4.480 -0.2502 -0.4296  0.1242
11500TIP3    H155915   0.396   2.819   4.517  0.7866  0.7923 -0.0237
11500TIP3    H255916   0.532   2.758   4.543  0.1276 -0.8653 -0.2954
11501TIP3   OH255917   3.339   5.800  11.389  0.2515  0.3971 -0.4397
11501TIP3    H155918   3.417   5.771  11.437 -0.9528 -0.3579  1.1466
11501TIP3    H255919   3.373   5.832  11.305  2.4584  1.7727  0.8826
11502TIP3   OH255920   4.200   0.943   2.143 -0.0177 -0.1906  0.3409
11502TIP3    H155921   4.212   1.037   2.131  3.8664 -0.5093  0.7232
11502TIP3    H255922   4.130   0.920   2.081 -0.0549  2.6795 -0.8225
11503TIP3   OH255923   1.882   5.557  14.834 -0.0706 -0.1532 -0.1886
11503TIP3    H155924   1.944   5.539  14.762  0.3143 -1.5540  0.4475
11503TIP3    H255925   1.938   5.585  14.907 -0.2199 -0.8475  0.2059
11504TIP3   OH255926   4.217   3.817   6.382  0.0660  0.1119 -0.4394
11504TIP3    H155927   4.226   3.889   6.444  0.5214 -1.3846  1.3269
11504TIP3    H255928   4.153   3.758   6.423 -1.0178 -0.0658 -2.2953
11505TIP3   OH255929   4.791   2.144  14.953  0.4177  0.1185 -0.5290
11505TIP3    H155930   4.729   2.150  14.880  0.5632 -0.0543 -0.6676
11505TIP3    H255931   4.872   2.112  14.913  0.3261 -0.5380 -0.1963
11506TIP3   OH255932   5.600   6.706   3.383 -0.4140 -0.3390 -0.5291
11506TIP3    H155933   5.511   6.727   3.356 -0.6227  0.8007  0.9437
11506TIP3    H255934   5.631   6.785   3.427  1.2839 -0.7623 -0.9014
11507TIP3   OH255935   2.366   4.480  11.228 -0.4066 -0.4206  0.3401
11507TIP3    H155936   2.354   4.416  11.299 -0.9664 -0.3543  0.3094
11507TIP3    H255937   2.341   4.564  11.268  0.7779 -0.1321  0.5246
11508TIP3   OH255938   4.362   1.920   4.228  0.1611 -0.7666 -0.7410
11508TIP3    H155939   4.330   1.843   4.275  0.6203 -0.3087  0.3545
11508TIP3    H255940   4.445   1.941   4.270  0.6093 -0.3514 -1.7903
11509TIP3   OH255941   4.526   6.199   5.101  0.0871 -0.1847 -0.0498
11509TIP3    H155942   4.542   6.240   5.017  0.0407 -0.3840 -0.1564
11509TIP3    H255943   4.456   6.252   5.140  0.1914 -0.0205 -0.0825
11510TIP3   OH255944   1.228   6.117   1.170 -0.0147 -0.6176 -0.0057
11510TIP3    H155945   1.293   6.162   1.224 -0.6961  2.5224 -1.5552
11510TIP3    H255946   1.145   6.160   1.191 -0.7850 -1.2945 -1.4834
11511TIP3   OH255947   5.147   1.896   5.374 -0.0332 -0.0388 -0.5626
11511TIP3    H155948   5.136   1.920   5.466 -0.2500  0.3070 -0.6791
11511TIP3    H255949   5.241   1.884   5.364  0.0700  0.7045 -0.4897
11512TIP3   OH255950   5.612   5.132   2.908 -0.4067 -0.3472 -0.3454
11512TIP3    H155951   5.647   5.182   2.835 -1.0946  1.5114  0.5304
11512TIP3    H255952   5.518   5.150   2.907 -0.4849 -0.6144  0.7323
11513TIP3   OH255953   2.935   0.262  13.999  0.1020 -0.3639 -0.4949
11513TIP3    H155954   2.850   0.255  14.042  1.3634 -0.0692  2.3444
11513TIP3    H255955   2.960   0.354  14.010  0.9040 -0.5101 -1.0021
11514TIP3   OH255956   2.038   0.162  15.366  0.0378 -0.1145  0.1628
11514TIP3    H155957   2.099   0.169  15.439  0.6732 -0.5588 -0.3152
11514TIP3    H255958   1.970   0.102  15.398  0.4978 -0.5832  0.2687
11515TIP3   OH255959   5.868   6.644  11.739  0.1047  0.2208 -0.0295
11515TIP3    H155960   5.795   6.597  11.780  0.4697 -1.2274 -0.9462
11515TIP3    H255961   5.925   6.668  11.811 -0.3089 -0.3882  0.5056
11516TIP3   OH255962   6.692   2.392   4.729  0.4641  0.1437 -0.4471
11516TIP3    H155963   6.612   2.397   4.677  0.6515 -0.3618 -0.7885
11516TIP3    H255964   6.662   2.399   4.820  0.2654  2.7198 -0.6241
11517TIP3   OH255965   2.937   2.149  16.133 -0.4333 -0.2922  0.0539
11517TIP3    H155966   3.025   2.137  16.170 -1.2199  0.1858  2.1929
11517TIP3    H255967   2.932   2.084  16.062  2.3687  1.0500 -1.5576
11518TIP3   OH255968   0.836   6.651   5.150  0.5028 -0.3400  0.0392
11518TIP3    H155969   0.799   6.687   5.231 -0.7062 -1.0029 -0.1957
11518TIP3    H255970   0.814   6.714   5.082 -1.0633 -1.1668 -0.2621
11519TIP3   OH255971   6.076   3.518  11.572  0.0224 -0.5147  0.3891
11519TIP3    H155972   6.138   3.587  11.595 -0.7315  0.0564  0.7495
11519TIP3    H255973   6.122   3.437  11.594  0.0593 -0.0504  2.1485
11520TIP3   OH255974   5.014   5.293  13.968 -0.0525  0.1323  0.7106
11520TIP3    H155975   4.993   5.368  13.913  1.1397  1.1765  1.6307
11520TIP3    H255976   4.929   5.263  14.001 -0.9301 -1.0959 -2.3007
11521TIP3   OH255977   4.781   4.283  14.402  0.5920 -0.2454 -0.4038
11521TIP3    H155978   4.808   4.199  14.366  0.1783 -0.5287 -0.0640
11521TIP3    H255979   4.814   4.348  14.340  0.1577 -0.7074 -1.1249
11522TIP3   OH255980   1.588   1.071  14.342 -0.1112 -0.1175 -0.4051
11522TIP3    H155981   1.606   1.079  14.436  0.9808 -1.8228 -0.4222
11522TIP3    H255982   1.663   1.022  14.308  0.0016  1.3068 -2.3717
11523TIP3   OH255983   4.718   0.964  16.408  0.1155  0.1252 -0.6133
11523TIP3    H155984   4.782   0.990  16.342  0.5456  0.2105 -0.1675
11523TIP3    H255985   4.643   1.021  16.392  1.2826  2.1734  0.7724
11524TIP3   OH255986   2.030   6.220   4.406 -0.4730  0.7486  0.3822
11524TIP3    H155987   2.033   6.126   4.424 -0.7777  0.4017 -1.2310
11524TIP3    H255988   2.113   6.253   4.441 -1.1369  0.2259  2.5824
11525TIP3   OH255989   5.213   6.206  13.271  0.3034 -0.0906 -0.6127
11525TIP3    H155990   5.176   6.195  13.183 -1.0020  0.7110 -0.1919
11525TIP3    H255991   5.165   6.279  13.308  1.2922  0.0034  0.5509
11526TIP3   OH255992   5.732   3.171   2.920 -0.4963  0.4842 -0.0780
11526TIP3    H155993   5.789   3.097   2.901  0.4672  1.2276 -0.1754
11526TIP3    H255994   5.646   3.132   2.939 -0.7952 -0.5007 -2.9496
11527TIP3   OH255995   4.824   4.634   1.718 -0.1322 -0.0897 -0.9598
11527TIP3    H155996   4.842   4.641   1.625 -0.5041  2.6131 -0.8873
11527TIP3    H255997   4.903   4.668   1.761 -0.0206 -1.1729 -0.2482
11528TIP3   OH255998   6.684   2.130  11.787 -0.3837 -0.0618  0.2261
11528TIP3    H155999   6.622   2.073  11.742 -1.4926  0.6945  0.7675
11528TIP3    H256000   6.661   2.122  11.880  0.6252 -0.1115  0.4857
11529TIP3   OH256001   4.233   5.910  15.058 -0.4978  0.3048 -0.0964
11529TIP3    H156002   4.139   5.891  15.057 -0.7530  1.4209  0.9635
11529TIP3    H256003   4.275   5.824  15.069 -1.4285 -0.1032  0.3601
11530TIP3   OH256004   0.947   5.576  15.614 -0.3589 -0.7215 -0.6507
11530TIP3    H156005   0.897   5.658  15.618  0.0739 -0.4868 -0.0023
11530TIP3    H256006   0.898   5.522  15.552 -1.9358 -0.8259  0.6309
11531TIP3   OH256007   2.579   4.740  15.936  0.1591  0.0161  0.5740
11531TIP3    H156008   2.594   4.807  16.002  1.9048 -1.9966  2.3852
11531TIP3    H256009   2.664   4.698  15.924 -0.4686 -0.7501 -1.8305
11532TIP3   OH256010   5.211   3.961  12.487  0.4286 -0.0979  0.4944
11532TIP3    H156011   5.256   3.990  12.567 -0.1566  0.9637  0.4564
11532TIP3    H256012   5.123   3.936  12.517 -0.0538  1.0577  0.0831
11533TIP3   OH256013   6.285   5.034   3.415 -0.3078 -0.1144 -0.5054
11533TIP3    H156014   6.372   5.065   3.439 -0.5500 -0.6418  1.1854
11533TIP3    H256015   6.251   5.101   3.357  1.7522 -0.5842 -2.4142
11534TIP3   OH256016   5.530   3.812   1.374  0.1454 -0.3278 -0.0333
11534TIP3    H156017   5.575   3.756   1.437  0.1487  0.5537  0.7701
11534TIP3    H256018   5.582   3.806   1.294  2.0688  1.1179  1.0355
11535TIP3   OH256019   6.575   5.504  13.078  0.4047 -0.2014 -0.2014
11535TIP3    H156020   6.620   5.431  13.036 -0.1873 -0.9784  0.4767
11535TIP3    H256021   6.499   5.464  13.120 -0.2616  0.9065 -0.3246
11536TIP3   OH256022   0.389   6.303  12.020 -0.4878 -0.3501 -0.2103
11536TIP3    H156023   0.399   6.394  11.992  0.2298  0.0529  1.2490
11536TIP3    H256024   0.306   6.302  12.068  0.9025  0.2965  2.3862
11537TIP3   OH256025   3.821   4.395   5.897  0.1825 -0.7832 -0.2534
11537TIP3    H156026   3.910   4.391   5.932  0.0347 -0.6906  0.1395
11537TIP3    H256027   3.766   4.414   5.973 -0.1078 -0.2256 -0.5948
11538TIP3   OH256028   5.715   6.356  13.912 -0.3938 -1.0204 -0.4595
11538TIP3    H156029   5.649   6.393  13.970  0.4802 -1.4219  0.8207
11538TIP3    H256030   5.667   6.333  13.832 -1.3013  1.1862 -0.6285
11539TIP3   OH256031   4.876   5.989  11.172  0.4706  0.0015  0.0185
11539TIP3    H156032   4.904   5.932  11.101 -0.7418  0.6397 -1.0125
11539TIP3    H256033   4.786   5.963  11.190  0.2109  0.9509  0.1691
11540TIP3   OH256034   4.196   2.118  11.164  0.3662  0.2028 -0.2980
11540TIP3    H156035   4.155   2.132  11.079  1.7511  2.9312 -0.6167
11540TIP3    H256036   4.146   2.172  11.225  0.3336 -0.5206  0.3305
11541TIP3   OH256037   4.747   2.101   0.027 -0.5073  0.0074  0.1125
11541TIP3    H156038   4.765   2.116   0.120  2.2310  0.4171 -0.3999
11541TIP3    H256039   4.825   2.057  -0.006 -2.3961 -2.3914 -1.5538
11542TIP3   OH256040   0.003   3.092   0.726  0.1249 -0.3549 -0.3139
11542TIP3    H156041   0.061   3.068   0.654 -0.6889 -0.4761 -0.9429
11542TIP3    H256042  -0.066   3.144   0.685 -0.5069 -0.6667  0.3331
11543TIP3   OH256043   0.791   5.458   4.525  0.6216  0.4108  0.9515
11543TIP3    H156044   0.882   5.432   4.513  0.3812 -0.6709  1.3350
11543TIP3    H256045   0.794   5.523   4.596  1.1680  0.9714  0.4260
11544TIP3   OH256046   5.137   5.173   5.731 -0.1977 -0.1201 -0.0050
11544TIP3    H156047   5.095   5.087   5.743 -0.2944 -0.1217 -0.3654
11544TIP3    H256048   5.127   5.192   5.638 -1.1487  0.7957  0.2748
11545TIP3   OH256049   1.647   1.652  14.675  0.0189  0.4136  0.1826
11545TIP3    H156050   1.611   1.661  14.764 -1.5528 -0.6665 -0.2986
11545TIP3    H256051   1.651   1.742  14.642 -1.2056  0.6754  0.6765
11546TIP3   OH256052   3.443   2.699   3.848 -0.3254 -0.2087 -0.0438
11546TIP3    H156053   3.453   2.609   3.879  0.2815 -0.1009  0.0759
11546TIP3    H256054   3.354   2.702   3.812  0.2710 -1.3439 -1.6934
11547TIP3   OH256055   0.234   6.669   1.571 -0.0425  0.2545 -0.1243
11547TIP3    H156056   0.255   6.581   1.540 -0.1602 -0.1905  0.9993
11547TIP3    H256057   0.150   6.660   1.615 -0.6108  1.1797 -0.9772
11548TIP3   OH256058   2.335   6.504  12.534 -0.0302 -0.0829  0.9182
11548TIP3    H156059   2.375   6.515  12.621  0.8092 -1.0354  0.6647
11548TIP3    H256060   2.348   6.589  12.491 -2.0616  1.0301  2.3300
11549TIP3   OH256061   3.996   1.480   2.571  0.5648  0.7336  0.0770
11549TIP3    H156062   3.937   1.414   2.534  0.5426  0.8675 -0.1237
11549TIP3    H256063   4.047   1.432   2.637  0.0104  0.6855  0.4777
11550TIP3   OH256064   5.851   5.399  16.440 -0.1555 -0.5595  0.6000
11550TIP3    H156065   5.944   5.424  16.447 -0.4668  0.8397  0.1245
11550TIP3    H256066   5.805   5.466  16.491 -1.1397  0.6194 -1.7190
11551TIP3   OH256067   2.518   2.059  16.549 -0.3909 -0.1295  0.8550
11551TIP3    H156068   2.522   2.020  16.636 -0.3416  0.3195  1.0602
11551TIP3    H256069   2.467   2.139  16.561 -0.6963 -0.2525  0.3971
11552TIP3   OH256070   6.452   2.477   0.263 -0.3625 -0.4556 -0.5267
11552TIP3    H156071   6.390   2.413   0.227 -1.3518  0.8619 -1.2426
11552TIP3    H256072   6.526   2.477   0.202  0.0658 -1.5400 -0.0367
11553TIP3   OH256073   5.848   1.744  12.019  0.6884 -0.7317 -0.0203
11553TIP3    H156074   5.754   1.753  12.037  0.6744 -0.3928 -0.2458
11553TIP3    H256075   5.887   1.825  12.052  0.9755 -1.0877  0.5269
11554TIP3   OH256076   1.961   3.652   0.623 -0.1143  0.8172 -0.6031
11554TIP3    H156077   1.872   3.617   0.621  0.1342  0.1921 -1.0550
11554TIP3    H256078   1.996   3.625   0.708 -0.0027  0.1656 -0.8566
11555TIP3   OH256079   6.747   4.278  16.615 -0.2136 -0.2523 -0.5832
11555TIP3    H156080   6.833   4.264  16.575  0.8638 -0.1912  1.5153
11555TIP3    H256081   6.740   4.207  16.680 -1.0498  0.6299  0.3161
11556TIP3   OH256082   0.008   0.777  11.823  0.1786 -0.0238  0.3138
11556TIP3    H156083   0.100   0.806  11.819 -0.2590  1.5047  0.7793
11556TIP3    H256084  -0.021   0.804  11.910 -0.4718 -1.3344  0.5259
11557TIP3   OH256085   4.451   4.377  14.956 -0.0289  0.4065  0.2850
11557TIP3    H156086   4.528   4.432  14.965 -0.5185  1.3202 -0.7767
11557TIP3    H256087   4.402   4.416  14.884 -0.5826 -1.2189 -0.2809
11558TIP3   OH256088   0.128   5.759  16.910 -0.2708  0.0749 -0.0437
11558TIP3    H156089   0.173   5.743  16.992 -1.1171  0.7432  0.5674
11558TIP3    H256090   0.056   5.818  16.933  0.5662  1.7912 -1.5378
11559TIP3   OH256091   3.091   1.307  12.792 -0.3764  0.0545  0.3028
11559TIP3    H156092   3.187   1.309  12.790 -0.2894 -1.9904 -1.1464
11559TIP3    H256093   3.065   1.330  12.702 -1.2108  0.0515  0.5347
11560TIP3   OH256094   3.338   3.554  15.072 -0.1315  0.1957  0.1124
11560TIP3    H156095   3.261   3.516  15.114 -0.6385 -1.3893 -2.0719
11560TIP3    H256096   3.409   3.493  15.092  0.5061  1.3667  1.6551
11561TIP3   OH256097   6.615   6.701   0.782  0.1731 -0.0208 -0.6052
11561TIP3    H156098   6.554   6.747   0.725 -0.1231  0.1454 -0.1610
11561TIP3    H256099   6.690   6.760   0.791 -0.3702  0.5728  0.2770
11562TIP3   OH256100   3.017   1.559   0.143 -0.1552 -0.7545 -0.2316
11562TIP3    H156101   3.012   1.474   0.101 -0.3830 -0.8579  0.0031
11562TIP3    H256102   3.099   1.557   0.192 -0.1966 -0.8669 -0.1666
11563TIP3   OH256103   0.887   1.475   0.741  0.0706 -0.0126  0.1203
11563TIP3    H156104   0.923   1.454   0.655 -0.1639  0.7200 -0.1601
11563TIP3    H256105   0.818   1.539   0.723 -2.0873 -2.0706  0.5171
11564TIP3   OH256106   2.395   4.438  11.669  0.3645 -0.2469  0.4463
11564TIP3    H156107   2.333   4.510  11.657  1.8724  0.8828 -1.3802
11564TIP3    H256108   2.455   4.469  11.737  0.5777 -0.0859  0.1876
11565TIP3   OH256109   2.663   2.668   6.216  0.3497  0.3320  0.0701
11565TIP3    H156110   2.616   2.738   6.261 -0.4529 -0.8308  1.0896
11565TIP3    H256111   2.600   2.596   6.211  1.0084 -0.1821 -1.3612
11566TIP3   OH256112   4.699   6.049   4.411 -0.1853 -0.1049 -0.7957
11566TIP3    H156113   4.731   6.123   4.358  1.4318 -0.4024 -0.2853
11566TIP3    H256114   4.727   6.069   4.500  0.5258 -1.4319 -0.6875
11567TIP3   OH256115   4.615   3.425   4.103  0.2484 -0.5465 -0.2756
11567TIP3    H156116   4.586   3.335   4.094  1.3894 -0.8491 -1.2650
11567TIP3    H256117   4.612   3.460   4.014  1.3712 -0.1379 -0.1778
11568TIP3   OH256118   4.354   2.097  12.293 -0.4752 -0.4829 -0.0707
11568TIP3    H156119   4.380   2.110  12.384 -3.1107  0.9525  0.5734
11568TIP3    H256120   4.259   2.105  12.294 -0.6518 -1.2402 -2.8559
11569TIP3   OH256121   0.471   1.400   0.683 -0.4338  0.0997 -1.1009
11569TIP3    H156122   0.539   1.352   0.729 -1.4753 -0.8556 -0.5064
11569TIP3    H256123   0.517   1.446   0.612  1.2897  1.9468  1.0728
11570TIP3   OH256124   0.617   1.834  11.203 -0.0758 -0.1808  0.4684
11570TIP3    H156125   0.533   1.798  11.231  0.4548 -0.8397  1.2392
11570TIP3    H256126   0.618   1.923  11.238 -0.9046  0.2268 -0.4784
11571TIP3   OH256127   1.853   6.431   1.600 -0.3148  0.3729  0.3244
11571TIP3    H156128   1.895   6.345   1.596  1.3082  1.0898  1.2137
11571TIP3    H256129   1.759   6.411   1.601 -0.0856 -1.2660 -2.0059
11572TIP3   OH256130   0.423   1.429   1.685 -0.0946  0.5775  0.1419
11572TIP3    H156131   0.402   1.392   1.599  0.3323  0.8059 -0.0639
11572TIP3    H256132   0.348   1.406   1.740 -0.0951 -0.1068 -0.1298
11573TIP3   OH256133   3.240   4.541   5.077  0.0683  0.5702  0.3641
11573TIP3    H156134   3.191   4.483   5.135 -2.1072  1.1403 -0.7722
11573TIP3    H256135   3.265   4.614   5.134 -0.1522  0.1251  1.0578
11574TIP3   OH256136   6.029   4.093   4.820  0.5827 -0.0771  0.3211
11574TIP3    H156137   6.114   4.073   4.858  0.4561 -0.1334  0.5748
11574TIP3    H256138   6.041   4.178   4.778  0.1033  1.1297  2.4945
11575TIP3   OH256139   4.793   6.579  15.127 -0.7023  0.1402 -0.2510
11575TIP3    H156140   4.748   6.513  15.179 -0.1993  0.1034  0.1504
11575TIP3    H256141   4.794   6.544  15.038  1.2128 -1.3112  0.2699
11576TIP3   OH256142   1.987   4.815   0.673  0.1163  0.4250 -0.0459
11576TIP3    H156143   1.970   4.855   0.588 -2.0710 -2.0911 -0.9231
11576TIP3    H256144   2.022   4.887   0.727 -1.9280  3.0536 -1.9520
11577TIP3   OH256145   4.449   3.592  14.142  0.0484  0.9107 -0.6948
11577TIP3    H156146   4.396   3.513  14.132  0.9194  0.3547 -1.0763
11577TIP3    H256147   4.388   3.665  14.130 -1.1426  0.3513  1.4453
11578TIP3   OH256148   3.734   5.797  13.496 -0.2230  0.4197 -0.5596
11578TIP3    H156149   3.690   5.747  13.428 -0.6532  0.1729 -0.1047
11578TIP3    H256150   3.698   5.886  13.487  0.6164  0.6911 -1.4322
11579TIP3   OH256151   5.267   3.008  14.383 -0.3295  0.1026  0.6393
11579TIP3    H156152   5.238   3.097  14.402 -1.1716 -0.2988  1.3003
11579TIP3    H256153   5.337   3.019  14.319  0.9008  1.3654  2.1120
11580TIP3   OH256154   4.717   3.567  16.417  0.4590 -0.6926  0.6423
11580TIP3    H156155   4.661   3.547  16.342 -0.5714 -2.6323  1.8405
11580TIP3    H256156   4.806   3.559  16.385  0.0300 -1.2978 -0.4196
11581TIP3   OH256157   5.372   3.751   3.985  0.5192  0.2714  0.1617
11581TIP3    H156158   5.277   3.748   3.987  0.4437  1.2197 -1.0552
11581TIP3    H256159   5.396   3.796   4.067  0.0260 -1.2862  1.1996
11582TIP3   OH256160   5.087   2.050   0.268 -0.2174  0.4763 -0.0708
11582TIP3    H156161   4.994   2.060   0.284 -0.2757  1.4734 -0.9223
11582TIP3    H256162   5.098   1.958   0.245 -0.8448  0.1576  0.8286
11583TIP3   OH256163   6.438   2.900   0.023  0.0656 -0.3216  0.4908
11583TIP3    H156164   6.365   2.855  -0.020 -0.7690  1.3025  0.1304
11583TIP3    H256165   6.437   2.988  -0.013  0.9026  0.3562  2.0211
11584TIP3   OH256166   1.099   0.227  15.812 -0.4080  1.0382 -0.0003
11584TIP3    H156167   1.051   0.249  15.732 -0.6848 -1.2143 -0.5370
11584TIP3    H256168   1.178   0.280  15.808 -1.1445  2.1110 -0.9764
11585TIP3   OH256169   4.643   3.608  16.803  0.0142 -0.0484 -0.0540
11585TIP3    H156170   4.603   3.532  16.760 -1.1242 -0.8229  2.2228
11585TIP3    H256171   4.709   3.570  16.862  0.0156  0.7947  0.4981
11586TIP3   OH256172   5.033   2.835   1.447 -0.1343 -0.0830 -0.3070
11586TIP3    H156173   4.990   2.750   1.448  0.4202 -0.3674  0.1269
11586TIP3    H256174   5.040   2.858   1.354 -1.1494 -0.0584 -0.3823
11587TIP3   OH256175   6.056   4.273  14.925 -0.3230  0.5232 -0.0296
11587TIP3    H156176   6.114   4.339  14.962  0.8157 -1.0314  1.0927
11587TIP3    H256177   5.995   4.323  14.871 -0.2449  2.6118  1.6518
11588TIP3   OH256178   5.125   2.769  16.111 -0.2319  0.2092  0.2017
11588TIP3    H156179   5.036   2.733  16.113  0.1002 -0.6185  0.5987
11588TIP3    H256180   5.155   2.763  16.202  0.8138 -1.0437 -0.1973
11589TIP3   OH256181   5.583   2.344  15.928  0.3264 -0.3138 -0.3136
11589TIP3    H156182   5.645   2.368  15.859  0.4940  1.5505  0.4387
11589TIP3    H256183   5.500   2.332  15.883  0.7493 -0.6290 -1.0352
11590TIP3   OH256184   2.250   3.713   1.786 -0.0781  0.1862  0.5012
11590TIP3    H156185   2.287   3.757   1.709  2.5267  1.2592  2.2308
11590TIP3    H256186   2.295   3.753   1.860 -1.9721 -1.3097  2.5716
11591TIP3   OH256187   2.705   6.160   4.620  0.1789  0.1963  0.3817
11591TIP3    H156188   2.715   6.080   4.568 -0.6050  1.8530 -2.5434
11591TIP3    H256189   2.627   6.143   4.674 -1.8025 -0.0849 -2.3325
11592TIP3   OH256190   2.348   2.274  13.236 -0.2244 -0.0186  0.6169
11592TIP3    H156191   2.295   2.298  13.160 -3.0096 -0.6260  2.2022
11592TIP3    H256192   2.438   2.271  13.204 -0.9175  2.5812 -1.9142
11593TIP3   OH256193   0.304   3.039  11.149  0.2987 -0.4214 -0.6012
11593TIP3    H156194   0.383   2.993  11.122  0.6489 -0.3279  0.2318
11593TIP3    H256195   0.321   3.131  11.128  1.4560 -0.0030  1.7573
11594TIP3   OH256196   2.976   3.980   6.165  0.4024 -0.8307  0.1392
11594TIP3    H156197   2.920   4.057   6.177  0.5778 -0.3988 -1.5801
11594TIP3    H256198   2.970   3.960   6.071  2.7630 -1.0528 -0.0153
11595TIP3   OH256199   1.906   1.719  11.413  0.4955 -0.2276 -0.2054
11595TIP3    H156200   1.904   1.623  11.409 -0.5562 -0.2905  0.9913
11595TIP3    H256201   1.838   1.746  11.351 -1.4110 -0.4227  1.6626
11596TIP3   OH256202   0.697   6.398   5.920  0.0433 -0.0516  0.3095
11596TIP3    H156203   0.677   6.441   5.837  1.2863 -1.9022 -1.0274
11596TIP3    H256204   0.792   6.404   5.928 -0.1083  0.8267  2.0748
11597TIP3   OH256205   1.077   2.817   3.428 -0.3798  0.2115  0.7103
11597TIP3    H156206   1.072   2.722   3.419 -1.5803  0.3294 -0.3456
11597TIP3    H256207   1.088   2.832   3.521  1.6402 -0.9904  0.7160
11598TIP3   OH256208   2.453   4.142  16.498 -0.4356  0.0869 -0.3196
11598TIP3    H156209   2.399   4.218  16.476 -0.7626 -0.0501  0.0070
11598TIP3    H256210   2.542   4.169  16.475 -0.5556  0.5530 -0.2477
11599TIP3   OH256211   3.215   0.174   3.304 -0.3856 -0.1709 -0.9123
11599TIP3    H156212   3.166   0.122   3.241 -0.6551  0.2072 -1.0211
11599TIP3    H256213   3.307   0.164   3.277 -0.5565  0.6407 -1.8820
11600TIP3   OH256214   0.657   1.131  15.464  0.0236 -0.7920 -0.6233
11600TIP3    H156215   0.567   1.149  15.491 -0.0042 -0.3771 -0.9905
11600TIP3    H256216   0.651   1.113  15.371  0.3827 -0.2754 -0.7506
11601TIP3   OH256217   1.047   6.353   1.215  0.6460  0.0437  0.1910
11601TIP3    H156218   0.978   6.376   1.153  0.6215  0.0040  0.2030
11601TIP3    H256219   1.011   6.379   1.300 -0.0950 -1.5680  0.4090
11602TIP3   OH256220   3.662   1.793  11.638  0.0243 -0.0131 -0.0855
11602TIP3    H156221   3.689   1.858  11.574  1.2135  0.6041  0.9930
11602TIP3    H256222   3.572   1.771  11.614 -0.2466  1.6754 -0.7575
11603TIP3   OH256223   6.230   4.437  16.490 -0.0806 -0.3721  0.1330
11603TIP3    H156224   6.161   4.500  16.470  0.6950  0.8508  1.1873
11603TIP3    H256225   6.203   4.395  16.571  1.2323  1.4426  1.5862
11604TIP3   OH256226   2.969   4.834  17.222 -0.5017 -0.2079  0.0028
11604TIP3    H156227   2.876   4.840  17.199 -0.0289 -2.2797 -3.0116
11604TIP3    H256228   3.015   4.836  17.139  1.9959 -1.6083  1.2244
11605TIP3   OH256229   3.248   4.129  11.852  0.4875  0.5215  0.5378
11605TIP3    H156230   3.278   4.073  11.780  1.9143  1.2128  0.5613
11605TIP3    H256231   3.262   4.076  11.931 -1.8013 -0.5403  0.3134
11606TIP3   OH256232   5.672   0.964   3.980 -0.5678  0.3162 -0.5350
11606TIP3    H156233   5.768   0.964   3.972 -0.3609 -0.2179  1.4234
11606TIP3    H256234   5.646   1.052   3.952  0.5285  0.6154 -0.6718
11607TIP3   OH256235   2.146   4.760   1.292 -0.2368  0.1526 -0.2222
11607TIP3    H156236   2.056   4.729   1.290  0.0094 -0.7033  1.1271
11607TIP3    H256237   2.198   4.686   1.260  0.0366  0.5185 -0.6527
11608TIP3   OH256238   1.023   0.144  12.513  0.6764 -0.5023 -0.0360
11608TIP3    H156239   1.104   0.134  12.463  0.9389  1.2463 -0.0130
11608TIP3    H256240   1.033   0.227  12.559 -1.8115  0.5883 -1.3025
11609TIP3   OH256241   5.137   3.087  16.048  0.2142  0.3405  0.1370
11609TIP3    H156242   5.168   3.003  16.012  1.1682  1.4748 -1.8823
11609TIP3    H256243   5.042   3.085  16.036 -0.1901 -1.5336  2.7077
11610TIP3   OH256244   6.711   1.554   5.371  0.1912 -0.0050 -0.5426
11610TIP3    H156245   6.673   1.601   5.446  1.0022  1.1054 -0.7980
11610TIP3    H256246   6.636   1.511   5.330 -0.1357 -1.5588  1.5008
11611TIP3   OH256247   5.178   5.827   3.817  0.4316  0.1183  0.3917
11611TIP3    H156248   5.205   5.775   3.892  0.4150  0.0262  0.3336
11611TIP3    H256249   5.258   5.844   3.769  0.5259  0.6499  0.7291
11612TIP3   OH256250   2.449   1.303  14.403 -0.7366 -0.8131  0.2766
11612TIP3    H156251   2.405   1.325  14.321  0.4682  0.6350 -0.0357
11612TIP3    H256252   2.436   1.380  14.458  0.7925 -0.6178  0.4077
11613TIP3   OH256253   1.017   5.179   3.195 -0.3439 -0.0352  0.3874
11613TIP3    H156254   1.092   5.220   3.237 -1.4105  2.3767  0.1174
11613TIP3    H256255   1.038   5.086   3.193  1.4858  0.2463  2.6260
11614TIP3   OH256256   0.934   5.996   3.689 -0.1735  0.2773  0.1620
11614TIP3    H156257   0.854   6.022   3.644 -0.6752  0.5863  1.2188
11614TIP3    H256258   0.995   5.974   3.618 -1.1440  0.1563 -0.6453
11615TIP3   OH256259   6.713   1.003  14.968 -0.0508 -0.4119 -0.0046
11615TIP3    H156260   6.725   1.059  15.045  3.2728 -0.1541 -0.5580
11615TIP3    H256261   6.730   1.061  14.893 -3.7106 -0.5272 -1.1248
11616TIP3   OH256262   6.194   5.380   4.954  0.2373  0.1767  0.1120
11616TIP3    H156263   6.269   5.334   4.916 -0.9096 -1.9519  0.2605
11616TIP3    H256264   6.164   5.323   5.025 -2.2117  0.3448 -0.6779
11617TIP3   OH256265   4.673   4.192  14.774 -0.2455 -0.0816  0.1044
11617TIP3    H156266   4.736   4.121  14.787 -0.4471 -0.3547 -0.3705
11617TIP3    H256267   4.712   4.267  14.817  0.0207 -0.4563  0.5259
11618TIP3   OH256268   4.149   0.213  10.903 -0.0345 -0.0376 -0.3836
11618TIP3    H156269   4.106   0.281  10.851 -0.6500  0.9199  1.2957
11618TIP3    H256270   4.078   0.154  10.928  0.3989 -0.9924 -1.3141
11619TIP3   OH256271   1.261   4.900  14.980  0.6719  0.7105  0.6298
11619TIP3    H156272   1.254   4.925  14.887  1.7005 -1.0779  0.0332
11619TIP3    H256273   1.293   4.980  15.023 -0.6182  1.8293 -0.3777
11620TIP3   OH256274   2.403   3.096   2.369  0.0786  0.3614  0.3370
11620TIP3    H156275   2.433   3.117   2.281  0.8977  0.0660  0.5306
11620TIP3    H256276   2.308   3.091   2.362  0.0037  2.0384 -0.1424
11621TIP3   OH256277   3.855   0.797   0.154 -0.0658 -0.4874  0.3783
11621TIP3    H156278   3.898   0.767   0.074 -1.0485  0.5272 -0.5730
11621TIP3    H256279   3.901   0.879   0.177 -1.5121  0.6992 -0.7464
11622TIP3   OH256280   1.898   0.443  13.704 -0.0973 -0.1247  0.3027
11622TIP3    H156281   1.957   0.504  13.659  1.3939 -1.4412  0.3841
11622TIP3    H256282   1.821   0.439  13.648  0.7192  0.1306 -0.8803
11623TIP3   OH256283   5.761   4.734   3.097 -0.0218 -0.4723  0.3593
11623TIP3    H156284   5.739   4.714   3.188  0.2012  0.4857  0.6335
11623TIP3    H256285   5.831   4.799   3.102 -0.5557  0.1941 -0.4854
11624TIP3   OH256286   4.889   0.376   1.476 -0.4774  0.5273  0.1043
11624TIP3    H156287   4.895   0.291   1.433 -0.8774  0.0780  0.8966
11624TIP3    H256288   4.978   0.396   1.503 -0.4045  0.2766  0.0537
11625TIP3   OH256289   3.135   2.512  13.847 -0.2060 -0.0801 -0.1052
11625TIP3    H156290   3.228   2.529  13.859 -0.2232  0.9635 -1.2329
11625TIP3    H256291   3.127   2.416  13.851  1.1288 -0.2719 -1.2621
11626TIP3   OH256292   3.887   4.022   0.846  0.0321  0.0178  0.2075
11626TIP3    H156293   3.872   4.061   0.932 -3.1483 -1.7188  0.6024
11626TIP3    H256294   3.929   3.938   0.864 -0.3635 -0.2153  0.0572
11627TIP3   OH256295   5.451   6.674   4.514 -0.0128 -0.1291  0.2422
11627TIP3    H156296   5.435   6.580   4.514 -0.7820 -0.0105 -0.2449
11627TIP3    H256297   5.438   6.700   4.423  1.0219  0.3248  0.2053
11628TIP3   OH256298   0.705   1.991  10.835  0.2165 -0.2951 -0.9770
11628TIP3    H156299   0.642   1.921  10.816  0.9624 -1.3325  0.2204
11628TIP3    H256300   0.776   1.977  10.772  1.1647 -1.7198  0.3358
11629TIP3   OH256301   1.400   3.021  16.562  0.3003 -0.4535  0.9649
11629TIP3    H156302   1.408   2.926  16.559  0.4650 -0.4236  0.4160
11629TIP3    H256303   1.307   3.037  16.572  0.2522 -0.6693  0.8627
11630TIP3   OH256304   0.674   5.047   2.662 -0.1543 -0.1254  0.2400
11630TIP3    H156305   0.751   5.075   2.712  0.7068 -1.3438 -0.3365
11630TIP3    H256306   0.617   5.007   2.727  0.5638 -0.9087  0.4090
11631TIP3   OH256307   0.137   0.385  13.380  0.0361 -0.1471 -0.1448
11631TIP3    H156308   0.073   0.322  13.346  0.5657  0.6886 -2.9460
11631TIP3    H256309   0.090   0.468  13.380  0.5880  0.1643 -0.5002
11632TIP3   OH256310   3.228   0.481   4.441 -0.6103 -0.5457  0.7635
11632TIP3    H156311   3.257   0.453   4.528 -0.7912 -1.5721  0.5046
11632TIP3    H256312   3.199   0.571   4.453 -0.4636 -0.6209  1.7346
11633TIP3   OH256313   0.202   4.550   5.718  0.2715 -0.1581  0.0943
11633TIP3    H156314   0.110   4.569   5.701  0.6681  0.8277 -1.0989
11633TIP3    H256315   0.232   4.622   5.773  0.0509 -1.1267  1.5335
11634TIP3   OH256316   0.428   2.513  16.958 -0.6917 -0.3182  0.0807
11634TIP3    H156317   0.418   2.609  16.958 -2.8478 -0.4707 -1.7614
11634TIP3    H256318   0.510   2.498  16.910 -0.3635  0.5968  0.3297
11635TIP3   OH256319   2.492   4.633  11.036 -0.2917 -0.0746  0.1775
11635TIP3    H156320   2.448   4.552  11.064  2.0482 -2.2128 -1.8243
11635TIP3    H256321   2.460   4.649  10.948 -1.9656  2.2651  1.1098
11636TIP3   OH256322   6.382   0.354   2.433 -0.3871  0.2932  0.1178
11636TIP3    H156323   6.431   0.333   2.512 -1.3479  1.2921  1.0204
11636TIP3    H256324   6.423   0.302   2.364  1.7017  0.8431  0.8791
11637TIP3   OH256325   5.508   1.340  15.597 -0.1480 -0.1791 -0.2081
11637TIP3    H156326   5.573   1.306  15.660 -0.7737 -1.2558 -0.1229
11637TIP3    H256327   5.479   1.422  15.635 -0.5699 -0.8513  0.9874
11638TIP3   OH256328   4.087   0.883   5.618  0.4037 -0.4171  0.7138
11638TIP3    H156329   4.089   0.924   5.532  0.0133  0.0401  0.9156
11638TIP3    H256330   4.161   0.920   5.665  0.9400 -1.0739  0.3996
11639TIP3   OH256331   0.678   3.806   5.706  0.0253  0.0423 -0.1709
11639TIP3    H156332   0.656   3.807   5.799 -0.6025  0.9409 -0.3146
11639TIP3    H256333   0.768   3.772   5.703  0.2556  0.5216  0.8090
11640TIP3   OH256334   5.931   2.288  14.718  0.0609  0.1255 -0.0089
11640TIP3    H156335   5.962   2.376  14.738 -0.3253  0.1331  0.5636
11640TIP3    H256336   6.004   2.246  14.673  1.0985 -0.0237  1.7594
11641TIP3   OH256337   3.310   4.206  12.651 -0.4821 -0.7456 -0.4002
11641TIP3    H156338   3.279   4.292  12.678 -0.4033 -0.5143 -1.0393
11641TIP3    H256339   3.234   4.149  12.660 -0.2544 -0.8574  1.0925
11642TIP3   OH256340   3.248   3.357   5.767  0.0064 -0.2302  0.6903
11642TIP3    H156341   3.225   3.422   5.833  0.5664  0.6407  0.0554
11642TIP3    H256342   3.164   3.326   5.734 -0.3601  2.3449 -1.0802
11643TIP3   OH256343   1.435   2.607  13.688 -0.1755 -0.2092 -0.0283
11643TIP3    H156344   1.468   2.525  13.653  1.0721  0.1386  0.3045
11643TIP3    H256345   1.441   2.598  13.783  0.6876  0.5316  0.0059
11644TIP3   OH256346   5.790   0.251  11.251 -0.3440  0.2302  0.0318
11644TIP3    H156347   5.740   0.246  11.170 -1.0318  1.9786  0.3150
11644TIP3    H256348   5.826   0.339  11.252 -0.5879  0.3487  1.7657
11645TIP3   OH256349   0.830   5.968  12.622  0.4908 -0.5034 -0.5311
11645TIP3    H156350   0.795   5.924  12.700 -1.0089 -1.2686 -1.5660
11645TIP3    H256351   0.846   5.896  12.560 -0.9282  0.2476 -1.8514
11646TIP3   OH256352   2.627   5.816  12.676  0.5703 -0.0343 -0.0105
11646TIP3    H156353   2.569   5.821  12.752 -1.2110  0.5159 -1.3394
11646TIP3    H256354   2.637   5.908  12.649 -2.0539 -0.3994 -2.6978
11647TIP3   OH256355   0.569   3.732   4.826  0.1912 -0.4467  0.3301
11647TIP3    H156356   0.613   3.694   4.902  0.4259 -1.1879 -0.1655
11647TIP3    H256357   0.561   3.660   4.764 -0.6160 -0.0158 -0.0835
11648TIP3   OH256358   2.490   3.793  15.478  0.1677 -0.3235 -0.0601
11648TIP3    H156359   2.412   3.750  15.444 -0.7918  1.6432 -0.4896
11648TIP3    H256360   2.457   3.852  15.546  1.0384  1.5815 -1.2101
11649TIP3   OH256361   6.357   3.666   5.679  0.0767 -0.8409  0.4035
11649TIP3    H156362   6.370   3.636   5.769 -1.4400 -0.4505  0.7873
11649TIP3    H256363   6.270   3.633   5.655 -1.2200  2.1994  0.4459
11650TIP3   OH256364   5.946   4.469  16.379 -0.4434 -0.4833  0.0185
11650TIP3    H156365   5.898   4.533  16.431  0.4009  0.9260 -0.8510
11650TIP3    H256366   5.893   4.457  16.301 -1.0401 -1.5527  0.5740
11651TIP3   OH256367   0.512   1.461  15.762 -0.2790  0.4870  0.0106
11651TIP3    H156368   0.526   1.383  15.815  1.0400  0.2506 -0.6363
11651TIP3    H256369   0.541   1.533  15.818  0.4146  0.3107 -0.1160
11652TIP3   OH256370   1.795   5.025   1.942  0.0601  0.6835 -0.4374
11652TIP3    H156371   1.807   4.953   1.881  0.9059 -0.7421  1.3334
11652TIP3    H256372   1.701   5.043   1.940 -0.0599  0.0325 -1.4242
11653TIP3   OH256373   0.888   4.799   6.750 -0.1201 -0.3724 -0.1254
11653TIP3    H156374   0.917   4.747   6.675 -1.4025 -2.1419  0.5483
11653TIP3    H256375   0.822   4.858   6.715  0.1337 -0.3645 -0.5958
11654TIP3   OH256376   3.260   3.619  12.480  0.6806  0.3429  0.5892
11654TIP3    H156377   3.319   3.571  12.537 -0.4273  0.6151  2.0346
11654TIP3    H256378   3.188   3.647  12.537 -0.8233  0.0819 -1.0672
11655TIP3   OH256379   5.029   2.040   1.458 -0.8507  0.1873  0.6961
11655TIP3    H156380   4.948   2.051   1.407 -1.0592  0.4122  1.0688
11655TIP3    H256381   5.097   2.024   1.393 -1.4483 -1.5333  0.4589
11656TIP3   OH256382   3.102   3.994  15.543  0.2030 -0.1049 -0.2594
11656TIP3    H156383   3.057   3.927  15.594  0.3678 -0.1056 -0.1146
11656TIP3    H256384   3.039   4.019  15.475  0.5201 -1.1466 -0.9634
11657TIP3   OH256385   1.149   3.031  16.998 -0.8272 -0.4720 -0.3231
11657TIP3    H156386   1.205   2.953  16.998 -0.7093 -0.3925  0.5344
11657TIP3    H256387   1.060   2.997  17.009 -0.9491 -0.5808 -1.4534
11658TIP3   OH256388   2.793   5.571   2.388 -0.0011 -0.0856  0.2464
11658TIP3    H156389   2.863   5.505   2.390  0.7409  0.6906  0.5712
11658TIP3    H256390   2.735   5.543   2.318  1.8421  0.4584 -1.5962
11659TIP3   OH256391   5.157   3.031   4.477  0.2166 -0.1263 -0.5642
11659TIP3    H156392   5.073   3.067   4.449 -0.0774  0.1165  0.5670
11659TIP3    H256393   5.205   3.106   4.511  0.8107 -0.3038 -1.0009
11660TIP3   OH256394   5.632   2.010  11.561 -0.3785 -0.0245 -0.2558
11660TIP3    H156395   5.567   1.997  11.631 -0.7810  2.0273 -0.1928
11660TIP3    H256396   5.711   1.967  11.594 -0.9588 -0.3129  0.8394
11661TIP3   OH256397   4.975   0.120   1.395 -0.1536  0.4996  0.5531
11661TIP3    H156398   4.999   0.068   1.319  0.1773  1.5763 -0.0964
11661TIP3    H256399   5.057   0.132   1.443 -0.1086  0.9511  0.3653
11662TIP3   OH256400   0.753   5.295   6.012 -0.3795 -0.1726  0.1593
11662TIP3    H156401   0.738   5.389   6.003  2.1674  0.2991 -0.0316
11662TIP3    H256402   0.696   5.268   6.084  1.6583  2.3779  2.9739
11663TIP3   OH256403   2.220   1.612   6.198 -0.3648 -0.1123 -0.0694
11663TIP3    H156404   2.182   1.686   6.150 -1.2357 -0.1973  0.4512
11663TIP3    H256405   2.211   1.637   6.290 -0.5682 -0.8145  0.1093
11664TIP3   OH256406   5.921   1.245   5.745 -0.1418 -0.1285 -0.3178
11664TIP3    H156407   5.878   1.273   5.826 -2.3097 -1.5143 -0.9217
11664TIP3    H256408   5.903   1.315   5.683  0.1989  0.2135 -0.0378
11665TIP3   OH256409   3.588   5.947  12.025 -0.0548 -0.3822 -0.8520
11665TIP3    H156410   3.618   5.918  12.111 -2.0375 -0.7921 -0.2308
11665TIP3    H256411   3.606   5.873  11.967 -0.1286 -0.7381 -0.4295
11666TIP3   OH256412   3.652   3.925  15.461  0.4331  0.2071 -0.8018
11666TIP3    H156413   3.653   4.006  15.411 -0.7782  0.8125  0.0979
11666TIP3    H256414   3.559   3.906  15.474  0.6046  1.0019  2.5845
11667TIP3   OH256415   6.341   4.796   1.961 -0.3101  0.0818 -0.0535
11667TIP3    H156416   6.246   4.806   1.969 -0.4765  0.1569 -1.8007
11667TIP3    H256417   6.354   4.702   1.954 -0.3273  0.1053 -0.4401
11668TIP3   OH256418   3.744   0.206   1.517 -0.4639 -0.1814  0.3460
11668TIP3    H156419   3.805   0.277   1.495  0.4921 -1.3898 -1.1139
11668TIP3    H256420   3.659   0.249   1.525 -0.0375  1.0704 -1.2288
11669TIP3   OH256421   5.664   1.382  16.642 -0.5208 -0.5530  0.0107
11669TIP3    H156422   5.590   1.424  16.600 -0.0934  0.4038  0.1940
11669TIP3    H256423   5.733   1.449  16.643  0.2269 -1.3031  0.1655
11670TIP3   OH256424   4.958   1.471   2.727 -0.4069  0.3291 -0.0570
11670TIP3    H156425   4.891   1.433   2.669  0.1782 -0.5054 -0.2097
11670TIP3    H256426   4.930   1.561   2.740 -2.0029 -0.1976  0.5046
11671TIP3   OH256427   1.260   4.596   2.348  0.2431  0.1009 -0.1102
11671TIP3    H156428   1.200   4.652   2.397  0.3412  1.5500 -1.5595
11671TIP3    H256429   1.346   4.635   2.362  0.9848 -2.1492  2.2121
11672TIP3   OH256430   5.598   1.996   5.865  0.7336 -0.0689  0.1226
11672TIP3    H156431   5.583   2.041   5.782 -1.6504 -0.2251  0.3877
11672TIP3    H256432   5.530   1.928   5.868  1.1564 -0.4659  1.9100
11673TIP3   OH256433   6.007   1.813  14.845  0.6095  0.6289  0.0352
11673TIP3    H156434   5.960   1.746  14.795  0.2627  0.9471 -0.0685
11673TIP3    H256435   6.029   1.769  14.928  1.3518  0.0427 -0.4578
11674TIP3   OH256436   2.834   6.728   5.109  0.0897 -0.3922 -0.7203
11674TIP3    H156437   2.817   6.716   5.202  1.9133  2.5000  0.1464
11674TIP3    H256438   2.875   6.647   5.080 -2.0337 -1.9964  0.4911
11675TIP3   OH256439   2.404   1.684   5.691  0.2084  0.1404 -0.2625
11675TIP3    H156440   2.334   1.750   5.700 -0.4932 -0.6850  0.6110
11675TIP3    H256441   2.485   1.735   5.694 -0.3340  1.0653 -0.6794
11676TIP3   OH256442   1.067   3.478   0.600 -0.4838  0.5090 -0.6412
11676TIP3    H156443   0.972   3.482   0.611 -0.4949  1.1621 -0.9294
11676TIP3    H256444   1.098   3.566   0.623 -0.0638  0.6280 -1.6265
11677TIP3   OH256445   4.877   5.440   5.635 -0.0323 -0.0045  0.1766
11677TIP3    H156446   4.873   5.345   5.623  0.5307  0.3177 -4.8999
11677TIP3    H256447   4.787   5.469   5.625  0.1654  0.1079 -1.6140
11678TIP3   OH256448   6.650   3.846  12.802 -0.6071 -0.6156  0.2154
11678TIP3    H156449   6.580   3.802  12.754 -0.1247 -0.3480 -0.7568
11678TIP3    H256450   6.731   3.806  12.769 -0.1912  0.6039 -0.2916
11679TIP3   OH256451   5.808   2.581  12.664  0.2142  0.7157  0.0805
11679TIP3    H156452   5.883   2.520  12.665  0.7568  1.3043  2.9255
11679TIP3    H256453   5.833   2.648  12.600  0.9608 -0.4333 -0.8787
11680TIP3   OH256454   5.650   4.409   5.450 -0.4166  0.2352 -0.5991
11680TIP3    H156455   5.677   4.322   5.479 -1.7602 -0.1879 -0.5770
11680TIP3    H256456   5.620   4.396   5.360 -0.7964  0.6459 -0.5356
11681TIP3   OH256457   2.411   2.784   5.597 -0.0277 -0.7443  0.5223
11681TIP3    H156458   2.327   2.828   5.580 -0.0296 -0.7880  0.4168
11681TIP3    H256459   2.427   2.799   5.690  1.3265  1.8586 -0.0184
11682TIP3   OH256460   2.283   2.962   5.053 -0.3013  0.5195 -0.2963
11682TIP3    H156461   2.236   2.944   4.971 -0.0289 -0.1682 -0.3097
11682TIP3    H256462   2.220   2.937   5.122  0.2094 -0.9172 -0.3164
11683TIP3   OH256463   2.559   2.999   1.012 -0.2079  0.0656  0.1066
11683TIP3    H156464   2.621   2.991   0.940  0.6254  0.5493  0.7549
11683TIP3    H256465   2.611   3.029   1.086 -1.2860  0.9249  0.5586
11684TIP3   OH256466   6.693   1.353  11.721  0.4094  0.2408  1.0583
11684TIP3    H156467   6.747   1.427  11.691  2.1123 -1.0799  0.6917
11684TIP3    H256468   6.636   1.391  11.788 -0.4483  2.3623 -0.7556
11685TIP3   OH256469   3.960   6.168  13.626  0.2447 -0.0365 -0.3530
11685TIP3    H156470   3.996   6.096  13.679  0.4895  0.1707 -0.2333
11685TIP3    H256471   4.016   6.243  13.647  0.1886  0.1097 -0.7192
11686TIP3   OH256472   2.254   6.352  14.783  0.4338  0.7423  0.3253
11686TIP3    H156473   2.233   6.259  14.777  1.0690  0.6353 -0.4539
11686TIP3    H256474   2.341   6.355  14.822  0.2012  1.0434  0.8370
11687TIP3   OH256475   1.280   6.763  11.143  0.0775 -0.6048 -0.0397
11687TIP3    H156476   1.308   6.680  11.183  0.9953 -0.5369 -0.5162
11687TIP3    H256477   1.307   6.755  11.052  0.9548  0.5656  0.0989
11688TIP3   OH256478   0.674   5.030  15.689 -0.3221  0.9235  0.7748
11688TIP3    H156479   0.631   5.084  15.623 -0.6088 -1.4308 -1.1064
11688TIP3    H256480   0.721   4.964  15.639 -0.5377 -0.9687  2.9128
11689TIP3   OH256481   1.453   5.697  12.928  0.4782 -0.4295  0.0596
11689TIP3    H156482   1.377   5.728  12.879 -0.7980 -2.4464  0.6753
11689TIP3    H256483   1.472   5.769  12.989 -1.7174 -0.3479  0.7368
11690TIP3   OH256484   0.339   6.751  14.534 -0.6092 -0.2726 -0.1476
11690TIP3    H156485   0.413   6.702  14.570 -0.7285 -0.1464  0.2769
11690TIP3    H256486   0.293   6.687  14.480  0.2554 -0.1413 -1.0724
11691TIP3   OH256487   3.847   0.415   5.858  0.3630  0.2583  0.1989
11691TIP3    H156488   3.885   0.379   5.778  2.9826  1.2437  0.8914
11691TIP3    H256489   3.858   0.510   5.849 -0.8449  0.4906  1.0085
11692TIP3   OH256490   4.280   1.319  12.374 -0.3578 -0.8216  0.4279
11692TIP3    H156491   4.360   1.302  12.325 -0.4683  0.7500 -0.3715
11692TIP3    H256492   4.210   1.279  12.321 -0.7673  2.6330 -2.0598
11693TIP3   OH256493   5.736   4.587   1.810  0.6510 -0.7856 -0.1727
11693TIP3    H156494   5.713   4.658   1.870 -1.4284 -0.8839 -0.7736
11693TIP3    H256495   5.652   4.546   1.788  1.6421 -2.4471 -1.0582
11694TIP3   OH256496   6.233   4.504  13.449  0.2861  0.2516 -0.4440
11694TIP3    H156497   6.155   4.467  13.489  0.4355  0.6145  0.2003
11694TIP3    H256498   6.205   4.589  13.416  1.0664  1.7873  2.5049
11695TIP3   OH256499   3.123   0.199  16.773 -0.4916  0.4404  0.0221
11695TIP3    H156500   3.206   0.232  16.739 -1.1475  1.9493 -0.1983
11695TIP3    H256501   3.121   0.107  16.746  1.8703 -0.1412  1.5191
11696TIP3   OH256502   6.486   4.619  15.575  0.0069 -0.0279  0.7037
11696TIP3    H156503   6.512   4.669  15.497 -1.3145  1.0988  0.9385
11696TIP3    H256504   6.512   4.529  15.556  0.3391  0.3527 -0.7491
11697TIP3   OH256505   4.450   6.606   1.257  0.1679 -0.6464 -0.0126
11697TIP3    H156506   4.455   6.593   1.351  1.2362 -0.1171  0.0234
11697TIP3    H256507   4.503   6.685   1.241  1.6453 -1.8396 -1.2655
11698TIP3   OH256508   5.174   1.732   1.795  0.1838 -0.7285  0.1078
11698TIP3    H156509   5.220   1.659   1.752 -1.1284 -1.3994 -0.2209
11698TIP3    H256510   5.218   1.742   1.879  2.5385  0.3330 -1.1557
11699TIP3   OH256511   0.815   0.894   1.105  0.3489  0.1317  0.0254
11699TIP3    H156512   0.832   0.896   1.011  3.4970 -0.1218  0.4860
11699TIP3    H256513   0.901   0.903   1.146 -0.9706  0.9859  2.9308
11700TIP3   OH256514   4.976   6.451   1.652  0.1885 -0.2443 -0.1927
11700TIP3    H156515   4.933   6.428   1.734  0.8264  0.6371  0.4094
11700TIP3    H256516   4.925   6.406   1.585 -0.3306 -1.0080  0.6804
11701TIP3   OH256517   5.754   0.323  13.899  1.1765 -0.1755 -0.2715
11701TIP3    H156518   5.790   0.400  13.941  0.8338 -0.2676  0.2003
11701TIP3    H256519   5.780   0.331  13.807  0.6210  0.8111 -0.3560
11702TIP3   OH256520   6.014   2.783   3.579 -0.2830 -0.3239 -0.0599
11702TIP3    H156521   5.941   2.831   3.618  0.2226  0.6430 -0.2719
11702TIP3    H256522   6.027   2.824   3.494  2.3498  1.5468  1.0938
11703TIP3   OH256523   1.395   0.091   4.997  0.5047 -0.0314 -0.2954
11703TIP3    H156524   1.451   0.164   4.973  1.6692  0.4656  3.4065
11703TIP3    H256525   1.447   0.040   5.059 -1.0759 -2.8634 -1.0989
11704TIP3   OH256526   2.335   3.228   2.813 -0.0692 -0.0518 -0.2048
11704TIP3    H156527   2.427   3.243   2.788  0.4572 -1.9896  0.3880
11704TIP3    H256528   2.320   3.136   2.793 -1.8725  0.2045 -0.1490
11705TIP3   OH256529   5.941   1.708  15.329 -0.2646 -0.1577  0.5083
11705TIP3    H156530   5.872   1.757  15.374 -0.4645 -0.0531  0.0973
11705TIP3    H256531   5.898   1.629  15.298  0.1739 -0.8556  1.6099
11706TIP3   OH256532   5.576   6.259   0.198  0.2344 -0.0943 -0.1772
11706TIP3    H156533   5.647   6.223   0.252  0.2651  0.0765 -0.1006
11706TIP3    H256534   5.583   6.213   0.115  1.0814  0.6389 -0.5242
11707TIP3   OH256535   0.360   1.865  14.586  0.6463  0.2758 -0.2729
11707TIP3    H156536   0.356   1.960  14.598  0.4953  0.1770  0.4882
11707TIP3    H256537   0.269   1.838  14.573  0.4384 -0.0038  1.5159
11708TIP3   OH256538   1.480   1.536  15.939  0.2919  0.4764  0.4391
11708TIP3    H156539   1.436   1.457  15.972 -1.3181  0.9797 -0.4064
11708TIP3    H256540   1.549   1.502  15.881 -1.4433 -0.3616 -1.2494
11709TIP3   OH256541   1.067   0.429  15.010  0.2783  0.1287 -0.3442
11709TIP3    H156542   0.983   0.459  14.976 -1.2268 -2.1574  1.0592
11709TIP3    H256543   1.110   0.386  14.935 -0.2343  0.4729 -0.8389
11710TIP3   OH256544   0.191   3.211   2.829  0.0992 -0.1892  0.2373
11710TIP3    H156545   0.203   3.285   2.889 -1.9845  0.4573 -0.0555
11710TIP3    H256546   0.279   3.180   2.810  0.9209  1.1007  1.7669
11711TIP3   OH256547   3.924   5.403   2.597 -0.0237 -0.2707 -0.0611
11711TIP3    H156548   3.950   5.481   2.548  0.4905  0.3591  1.1798
11711TIP3    H256549   3.953   5.420   2.687 -3.4830 -0.0615  1.1870
11712TIP3   OH256550   0.975   4.994  13.086  0.1154 -0.7774 -0.3614
11712TIP3    H156551   0.921   4.991  13.007  0.9681 -0.6431 -0.9689
11712TIP3    H256552   0.964   5.084  13.119 -0.6605 -0.9911 -0.0145
11713TIP3   OH256553   6.292   2.285   3.524 -0.3630  0.1503  0.3352
11713TIP3    H156554   6.236   2.246   3.591 -0.4458  0.4893  0.4668
11713TIP3    H256555   6.264   2.377   3.519  0.8540  0.5987  1.1344
11714TIP3   OH256556   1.267   0.007   0.660 -0.1543  0.2856  0.5906
11714TIP3    H156557   1.350   0.010   0.707  1.1438 -2.3236 -1.3438
11714TIP3    H256558   1.204  -0.023   0.726  0.2561  2.5177  2.1380
11715TIP3   OH256559   4.440   3.368  15.415  0.2867 -0.1671  0.1360
11715TIP3    H156560   4.393   3.289  15.444 -0.0832 -0.4509 -1.1971
11715TIP3    H256561   4.529   3.338  15.397  0.4504 -0.0386  0.6923
11716TIP3   OH256562   0.681   1.923  15.371  0.3894 -0.1183 -0.6610
11716TIP3    H156563   0.690   1.926  15.276 -1.1492 -2.6229 -1.0022
11716TIP3    H256564   0.599   1.969  15.390  0.6803  0.3549 -0.5293
11717TIP3   OH256565   3.083   6.011  16.625 -0.2730 -0.5724 -0.2192
11717TIP3    H156566   3.119   6.008  16.537  0.6140 -1.5749  0.1535
11717TIP3    H256567   3.152   5.976  16.681 -0.8302  0.0224  0.8736
11718TIP3   OH256568   2.602   3.773  17.146  0.2254 -0.5490 -0.1030
11718TIP3    H156569   2.634   3.857  17.178  0.0961  0.2179 -1.8312
11718TIP3    H256570   2.509   3.773  17.166  0.1426 -0.0772 -0.4779
11719TIP3   OH256571   1.235   4.494   4.257  0.5717  0.3278 -0.1460
11719TIP3    H156572   1.290   4.430   4.213 -0.0436 -0.1139 -0.2814
11719TIP3    H256573   1.244   4.474   4.350  0.7185  0.3266 -0.1605
11720TIP3   OH256574   5.673   6.353  14.301 -0.2810  0.1497 -0.0707
11720TIP3    H156575   5.729   6.420  14.262  0.6062  0.2711  1.3414
11720TIP3    H256576   5.713   6.334  14.386 -2.4615  0.3532  1.0892
11721TIP3   OH256577   1.292   2.065   6.001 -0.0545  0.2753 -0.0995
11721TIP3    H156578   1.213   2.090   5.952  0.4825  0.0589 -1.0911
11721TIP3    H256579   1.330   1.994   5.950  0.0168 -0.6096  1.1395
11722TIP3   OH256580   2.720   0.307   5.817  0.3340  0.2612  0.1511
11722TIP3    H156581   2.808   0.344   5.818  0.1063  0.8193  0.0568
11722TIP3    H256582   2.700   0.296   5.723  0.6340 -0.6781  0.1893
11723TIP3   OH256583   1.062   0.710  13.752  0.6012  0.0915  0.1146
11723TIP3    H156584   1.009   0.649  13.699  0.2384  0.1863  0.3623
11723TIP3    H256585   1.002   0.782  13.771  0.0612 -0.8543  2.3563
11724TIP3   OH256586   1.225   3.520  12.258  0.6825  0.4407  0.2617
11724TIP3    H156587   1.275   3.573  12.319  2.6762 -2.0131  0.9072
11724TIP3    H256588   1.155   3.481  12.311 -1.2028  2.7721 -0.3509
11725TIP3   OH256589   2.258   4.016   0.502 -0.1650 -0.0537 -0.3447
11725TIP3    H156590   2.271   3.952   0.432  0.1848 -0.0067 -0.3222
11725TIP3    H256591   2.190   3.978   0.558  0.7518 -0.8726  0.2343
11726TIP3   OH256592   1.464   6.126  16.361  0.0467 -0.3141  0.5794
11726TIP3    H156593   1.548   6.084  16.346  1.5343  1.7920  2.3166
11726TIP3    H256594   1.422   6.073  16.429 -1.5563 -3.1471 -2.3482
11727TIP3   OH256595   3.207   6.413   0.186  0.1933 -0.4015 -0.5889
11727TIP3    H156596   3.261   6.363   0.125  0.2604 -2.2169  0.8632
11727TIP3    H256597   3.133   6.444   0.134  1.0959 -0.4202 -1.9412
11728TIP3   OH256598   0.167   2.881  15.486 -0.4625 -1.2305 -0.1560
11728TIP3    H156599   0.258   2.895  15.459 -0.4216 -1.5460 -0.1950
11728TIP3    H256600   0.124   2.966  15.475 -0.0978 -1.0035  0.1544
11729TIP3   OH256601   2.183   5.904   5.500  0.3111 -0.0004 -0.4586
11729TIP3    H156602   2.173   5.809   5.505 -0.2419  0.1267  2.5226
11729TIP3    H256603   2.277   5.919   5.512  0.3604 -0.1517 -0.6525
11730TIP3   OH256604   1.817   1.516   3.792  0.2268 -0.4894  0.0274
11730TIP3    H156605   1.902   1.560   3.804  1.0962 -2.3638  1.2501
11730TIP3    H256606   1.764   1.546   3.866  0.6035 -1.0079  0.5130
11731TIP3   OH256607   3.160   5.314  13.505 -0.2496  0.3509 -0.1331
11731TIP3    H156608   3.146   5.346  13.594  2.6150 -0.8569  0.8616
11731TIP3    H256609   3.231   5.369  13.471  1.4819 -1.7038 -0.0918
11732TIP3   OH256610   2.866   0.314  17.261  0.1908  0.0288  0.2907
11732TIP3    H156611   2.939   0.347  17.209 -0.9349  0.8135 -0.8615
11732TIP3    H256612   2.877   0.355  17.347  1.4117 -0.3415  0.3393
11733TIP3   OH256613   6.148   6.459  11.834  0.0515 -0.2040 -0.0438
11733TIP3    H156614   6.160   6.475  11.740  1.2082  0.7249  0.2504
11733TIP3    H256615   6.195   6.377  11.850 -1.5335 -1.2724 -0.5554
11734TIP3   OH256616   2.068   2.736  13.820  0.2607 -0.0406 -0.0731
11734TIP3    H156617   1.985   2.702  13.786  0.2215  0.9419 -0.9940
11734TIP3    H256618   2.054   2.830  13.827  0.8962 -0.0076  0.9439
11735TIP3   OH256619   2.601   5.308  13.322 -0.5700 -0.0280  0.1138
11735TIP3    H156620   2.558   5.392  13.340 -0.8778  0.1120 -1.2121
11735TIP3    H256621   2.530   5.249  13.298 -0.0790  0.2545 -2.2862
11736TIP3   OH256622   4.712   5.047   1.013 -0.2044  0.1957 -0.4768
11736TIP3    H156623   4.753   4.967   1.047 -1.2825 -0.4461 -0.6488
11736TIP3    H256624   4.783   5.112   1.014  1.5100 -1.4316 -2.8869
11737TIP3   OH256625   0.730   2.159  15.629  0.3642 -0.4062 -0.1702
11737TIP3    H156626   0.641   2.172  15.597  0.3298  0.0831  0.0990
11737TIP3    H256627   0.740   2.065  15.637  0.2025 -0.5139 -1.1231
11738TIP3   OH256628   5.420   3.980   1.557 -0.1111  0.1784 -0.4712
11738TIP3    H156629   5.423   3.928   1.636 -0.6931  1.3473  0.3535
11738TIP3    H256630   5.483   3.939   1.498  1.6367  0.2937  1.2286
11739TIP3   OH256631   4.215   6.495   2.676 -0.8783 -0.0778  0.2125
11739TIP3    H156632   4.302   6.478   2.712 -0.7497 -0.4769 -0.2699
11739TIP3    H256633   4.157   6.438   2.726 -1.1437  1.4351  1.7193
11740TIP3   OH256634   5.206   5.132  16.639 -0.0666  0.2756  0.1146
11740TIP3    H156635   5.249   5.114  16.555 -1.0526  0.6996 -0.5025
11740TIP3    H256636   5.219   5.053  16.690 -1.3858 -0.8943 -1.2780
11741TIP3   OH256637   3.147   0.769   4.160 -0.5320  0.1544  0.6306
11741TIP3    H156638   3.135   0.859   4.131  0.6491  0.1241  0.0186
11741TIP3    H256639   3.230   0.769   4.207  0.1468 -0.8738 -0.5240
11742TIP3   OH256640   0.763   2.410   3.614 -0.1057 -0.0021  0.1545
11742TIP3    H156641   0.783   2.492   3.571  0.8284 -0.8054 -1.0074
11742TIP3    H256642   0.675   2.423   3.652  0.0171  1.4902 -0.0184
11743TIP3   OH256643   5.001   3.194  11.806  0.0437  0.6770 -0.6146
11743TIP3    H156644   5.014   3.284  11.836  0.2577  0.6939 -0.7551
11743TIP3    H256645   5.059   3.186  11.730 -1.2758  0.9880 -1.6996
11744TIP3   OH256646   4.598   2.618  16.509  0.4700 -0.3616 -0.2112
11744TIP3    H156647   4.686   2.653  16.494  0.4594  1.1905  2.5768
11744TIP3    H256648   4.609   2.562  16.586 -0.7055 -1.4934 -0.8451
11745TIP3   OH256649   5.924   5.993  17.220  0.1955 -0.2344  0.1798
11745TIP3    H156650   5.975   5.953  17.150 -1.8432 -4.1694  0.6814
11745TIP3    H256651   5.906   5.922  17.281 -1.7199  2.0525  2.5247
11746TIP3   OH256652   1.396   6.695  10.921 -0.2126  0.1545 -1.0653
11746TIP3    H156653   1.445   6.737  10.850 -0.6531 -0.6793 -1.8770
11746TIP3    H256654   1.343   6.628  10.878 -1.0463  0.1204 -0.0381
11747TIP3   OH256655   3.450   1.102  14.882  0.1345  0.2556 -0.0896
11747TIP3    H156656   3.363   1.089  14.921 -1.2705  2.2279 -2.2274
11747TIP3    H256657   3.467   1.196  14.892  1.8526 -0.0310 -0.0885
11748TIP3   OH256658   0.678   3.668   5.970 -0.3049 -0.2397  0.5703
11748TIP3    H156659   0.716   3.582   5.986  0.1492  0.0669  1.2115
11748TIP3    H256660   0.669   3.707   6.057  3.0274  1.8358  0.1633
11749TIP3   OH256661   1.110   4.570  10.997  0.3179 -0.0449  0.4811
11749TIP3    H156662   1.072   4.483  11.005 -0.4186  0.1792 -0.4028
11749TIP3    H256663   1.096   4.594  10.906  2.7914 -0.0246  0.0471
11750TIP3   OH256664   3.921   2.203  15.323  0.0051 -0.1120  0.0493
11750TIP3    H156665   3.954   2.148  15.394 -1.4481 -0.6731  0.3213
11750TIP3    H256666   3.980   2.185  15.249  0.3608 -1.0105  0.5372
11751TIP3   OH256667   5.902   5.824  16.997 -0.6208 -0.2021  0.6668
11751TIP3    H156668   5.826   5.805  17.051 -0.9755 -0.6512  0.0100
11751TIP3    H256669   5.867   5.841  16.910 -0.1250  1.2654  0.7108
11752TIP3   OH256670   4.043   1.580   0.545 -0.5139 -0.6658 -0.3060
11752TIP3    H156671   4.069   1.653   0.488 -3.0800  0.9141  0.3503
11752TIP3    H256672   4.122   1.526   0.553  1.4784  1.9360 -0.9721
11753TIP3   OH256673   6.063   6.449  13.030 -0.5249  0.4597 -0.1326
11753TIP3    H156674   6.056   6.436  13.125 -1.2632  0.3523 -0.1964
11753TIP3    H256675   5.982   6.493  13.006 -0.0338  1.1158 -0.6133
11754TIP3   OH256676   5.885   5.825   4.501 -0.1889  0.1668  0.6255
11754TIP3    H156677   5.891   5.803   4.408  1.7485 -0.2416  0.7983
11754TIP3    H256678   5.810   5.775   4.533 -1.6981  1.2799 -0.9305
11755TIP3   OH256679   3.468   6.240  15.959 -0.0897  0.0214 -0.1239
11755TIP3    H156680   3.514   6.313  15.916  1.5593 -0.4566  0.7230
11755TIP3    H256681   3.482   6.256  16.053  0.3850 -1.4023  0.0752
11756TIP3   OH256682   1.112   1.143   0.725  0.1268  0.1696 -0.6526
11756TIP3    H156683   1.070   1.059   0.741  0.4450 -0.0304 -0.8500
11756TIP3    H256684   1.119   1.183   0.812 -2.0039  0.9738 -0.7884
11757TIP3   OH256685   1.352   3.314  11.470  0.1662  0.2142 -0.1872
11757TIP3    H156686   1.343   3.330  11.376  0.1959  0.0754 -0.2147
11757TIP3    H256687   1.301   3.384  11.511  0.8797  0.7939 -0.2817
11758TIP3   OH256688   1.195   4.083   1.113  0.3810 -0.0667  0.0160
11758TIP3    H156689   1.246   4.162   1.095  2.8831 -1.2747  1.2375
11758TIP3    H256690   1.241   4.041   1.186 -0.7106 -2.7446 -0.7129
11759TIP3   OH256691   4.115   2.934  11.642  0.5182  0.7312  0.1432
11759TIP3    H156692   4.196   2.904  11.599  0.3778  0.4583  0.0692
11759TIP3    H256693   4.059   2.961  11.569  1.0795  2.2999  0.2522
11760TIP3   OH256694   1.929   0.599   5.592 -0.0256  0.0073  0.2454
11760TIP3    H156695   1.859   0.635   5.645  0.7966 -0.0769  1.4214
11760TIP3    H256696   1.955   0.671   5.534 -0.6368  0.2351  0.2486
11761TIP3   OH256697   4.255   4.540  11.240 -0.1664 -1.1678  0.0982
11761TIP3    H156698   4.312   4.466  11.224 -0.9012 -1.9210  0.8636
11761TIP3    H256699   4.205   4.550  11.159  3.0054  1.3933 -1.7945
11762TIP3   OH256700   1.160   5.708  16.454 -0.0854 -0.3327 -0.0262
11762TIP3    H156701   1.111   5.637  16.496  0.0984 -1.5299 -1.7690
11762TIP3    H256702   1.097   5.750  16.395  0.4570 -0.6356 -0.8330
11763TIP3   OH256703   4.542   0.294  14.571  0.0902 -0.5593  0.6465
11763TIP3    H156704   4.543   0.381  14.610 -0.8921 -1.3102  2.4410
11763TIP3    H256705   4.553   0.310  14.477 -0.4271  1.5067  0.8964
11764TIP3   OH256706   1.560   2.593   3.763 -0.2323 -0.0897 -0.3086
11764TIP3    H156707   1.599   2.558   3.682 -1.3647 -1.3626 -0.3519
11764TIP3    H256708   1.553   2.517   3.821  0.2260  0.7377  0.8733
11765TIP3   OH256709   3.865   0.796  13.878  0.7017  0.0743  0.0285
11765TIP3    H156710   3.831   0.770  13.792  0.0787  2.1520 -0.4095
11765TIP3    H256711   3.949   0.837  13.858 -0.1662  2.0128  0.1758
11766TIP3   OH256712   5.582   2.038   3.371  0.4622 -0.4977 -0.1187
11766TIP3    H156713   5.605   1.977   3.301  1.1792 -0.3762  0.0024
11766TIP3    H256714   5.666   2.068   3.406  0.1401 -1.1062  1.2741
11767TIP3   OH256715   4.641   1.977  12.009 -0.1267 -0.5061  0.4326
11767TIP3    H156716   4.623   2.072  12.008  0.2198 -0.4429 -0.0836
11767TIP3    H256717   4.631   1.952  12.100  1.1483  0.3002  0.8247
11768TIP3   OH256718   3.583   3.257   1.165  1.2846 -0.3602 -0.4923
11768TIP3    H156719   3.522   3.327   1.146 -1.7784 -2.7937 -0.4161
11768TIP3    H256720   3.571   3.193   1.094  1.3038 -2.3776  1.2074
11769TIP3   OH256721   1.953   5.278  15.642  0.0641 -0.1862  0.1272
11769TIP3    H156722   1.955   5.248  15.551 -1.3392  1.0399 -0.3588
11769TIP3    H256723   1.967   5.373  15.636  0.3995 -0.1458  1.2437
11770TIP3   OH256724   5.441   1.920   4.176  0.3896 -0.1391  0.4859
11770TIP3    H156725   5.398   2.005   4.164  0.4666 -0.0772  0.6418
11770TIP3    H256726   5.495   1.909   4.097 -1.3776 -1.1126 -0.6673
11771TIP3   OH256727   4.995   2.792   6.032 -0.0839 -0.1196 -0.5454
11771TIP3    H156728   5.052   2.716   6.025  0.8794  0.4015  1.0529
11771TIP3    H256729   4.939   2.774   6.108  0.6689  1.0480  0.3258
11772TIP3   OH256730   5.598   2.081  13.306  0.5140  0.0952  0.0734
11772TIP3    H156731   5.505   2.074  13.329  0.8349 -2.3179  0.9712
11772TIP3    H256732   5.603   2.052  13.215  0.4312 -0.1901  0.1594
11773TIP3   OH256733   2.840   2.622  13.381 -0.2358  0.3509 -0.0090
11773TIP3    H156734   2.869   2.713  13.379 -0.9112  0.5767  0.0139
11773TIP3    H256735   2.761   2.623  13.434 -0.3189 -0.2302 -0.1087
11774TIP3   OH256736   4.020   6.172  16.124  0.9792  0.9407  1.1117
11774TIP3    H156737   3.951   6.139  16.181  0.0738 -0.3549 -0.6328
11774TIP3    H256738   4.082   6.099  16.115 -0.1911  0.1299 -1.4651
11775TIP3   OH256739   5.097   5.265   4.728 -0.2398 -0.0422  0.2971
11775TIP3    H156740   5.035   5.215   4.781 -0.1501 -0.7198 -0.2155
11775TIP3    H256741   5.164   5.202   4.704  0.7439  0.7183  0.9706
11776TIP3   OH256742   2.679   6.567  12.237 -0.3739  0.6782 -0.1715
11776TIP3    H156743   2.753   6.573  12.177  0.5578 -2.5826  0.4481
11776TIP3    H256744   2.603   6.552  12.180  0.0473  0.3939 -0.6601
11777TIP3   OH256745   0.261   3.663   0.719  0.2028  0.0364  0.3360
11777TIP3    H156746   0.272   3.569   0.706  1.1828  0.2867 -0.8461
11777TIP3    H256747   0.174   3.672   0.759  0.0248 -1.3441  0.3103
11778TIP3   OH256748   4.829   6.178  13.655 -0.6037  0.1671  0.3743
11778TIP3    H156749   4.909   6.177  13.706 -1.3684 -1.0333  1.6098
11778TIP3    H256750   4.820   6.088  13.622 -1.2123  0.3945 -0.1084
11779TIP3   OH256751   0.686   0.231  10.475  0.0537 -0.5063  0.1364
11779TIP3    H156752   0.671   0.181  10.555 -0.1173 -0.5961  0.0480
11779TIP3    H256753   0.779   0.222  10.458  0.7663  1.9854  2.0068
11780TIP3   OH256754   5.659   3.012  14.574  0.0444 -0.7172 -0.2445
11780TIP3    H156755   5.744   2.983  14.606  1.1112  2.2430 -0.1187
11780TIP3    H256756   5.670   3.105  14.555 -3.2615 -0.1103  0.1334
11781TIP3   OH256757   0.719   1.031   6.197  0.2764 -0.0818  0.3574
11781TIP3    H156758   0.649   0.995   6.141  1.4003 -0.5940 -0.7632
11781TIP3    H256759   0.759   1.100   6.144  1.6886 -0.9089  0.2923
11782TIP3   OH256760   0.397   5.893  12.446  0.0519 -0.0568 -0.2369
11782TIP3    H156761   0.343   5.921  12.520 -0.8036 -0.8868 -0.5227
11782TIP3    H256762   0.460   5.832  12.484 -0.1883 -0.2453 -0.1380
11783TIP3   OH256763   3.659   2.191   3.321 -0.1504 -0.2186  0.3503
11783TIP3    H156764   3.681   2.193   3.228  2.3395  0.6153  0.8886
11783TIP3    H256765   3.723   2.132   3.360  1.0612  2.0514  1.9928
11784TIP3   OH256766   4.075   0.245  11.612  0.7915  0.3177 -0.3616
11784TIP3    H156767   4.057   0.153  11.634  2.7031  0.1840  0.8503
11784TIP3    H256768   4.073   0.290  11.697 -1.3367  1.6872 -1.0625
11785TIP3   OH256769   2.522   4.899   1.126 -0.1274  0.1843  0.1985
11785TIP3    H156770   2.572   4.826   1.164  0.6560  1.7531  2.3608
11785TIP3    H256771   2.441   4.858   1.094  0.7917 -1.7959  0.2575
11786TIP3   OH256772   1.394   6.257  12.695 -0.1774  0.7614  0.2471
11786TIP3    H156773   1.337   6.181  12.710  1.0442 -0.0377  1.0205
11786TIP3    H256774   1.371   6.317  12.766 -1.4622  1.3518 -0.6234
11787TIP3   OH256775   4.859   6.750   2.372 -0.4193  0.4672  0.3991
11787TIP3    H156776   4.775   6.777   2.410 -0.5428  0.3856  0.1896
11787TIP3    H256777   4.880   6.819   2.310  0.2624  1.0908  1.2944
11788TIP3   OH256778   5.895   5.393   6.904  0.4746  0.0196  0.2652
11788TIP3    H156779   5.890   5.301   6.929  1.0381 -0.1100 -0.0879
11788TIP3    H256780   5.940   5.393   6.820 -1.4528  0.4534 -0.8164
11789TIP3   OH256781   3.162   5.961   1.105  0.0225  0.4097  0.2884
11789TIP3    H156782   3.255   5.984   1.096 -0.1761  1.6483  1.2479
11789TIP3    H256783   3.161   5.865   1.099  1.2370  0.4332 -0.7205
11790TIP3   OH256784   4.492   3.443  15.681 -0.2982  0.1297  0.5651
11790TIP3    H156785   4.561   3.507  15.666 -1.6765  1.4912 -0.3375
11790TIP3    H256786   4.470   3.410  15.594 -1.0110 -0.0125  0.7878
11791TIP3   OH256787   1.823   5.531  17.259  0.4849  0.2474 -0.9442
11791TIP3    H156788   1.749   5.588  17.238 -1.1052 -0.5730  1.9159
11791TIP3    H256789   1.898   5.591  17.264 -0.0306  1.2028 -3.2427
11792TIP3   OH256790   4.452   4.326   4.749  0.4534 -0.5905 -0.1289
11792TIP3    H156791   4.459   4.255   4.685 -1.1809 -1.2460  0.3512
11792TIP3    H256792   4.421   4.401   4.698  0.2473 -0.7982 -0.3155
11793TIP3   OH256793   6.454   5.689  12.886  0.2034  0.3049  0.0320
11793TIP3    H156794   6.519   5.637  12.932 -1.9189 -0.8227  1.9681
11793TIP3    H256795   6.437   5.640  12.806  1.4688  0.4554 -0.3489
11794TIP3   OH256796   5.170   4.537  16.214 -0.3005 -0.1464  0.2074
11794TIP3    H156797   5.138   4.501  16.131  0.0943  1.1759 -0.5434
11794TIP3    H256798   5.099   4.594  16.244 -0.3261 -0.4065  0.6625
11795TIP3   OH256799   2.819   4.051   7.010 -0.1908 -0.1910 -0.4642
11795TIP3    H156800   2.769   4.089   6.938 -1.0929 -2.3424 -1.0461
11795TIP3    H256801   2.855   4.127   7.057 -0.4367  1.2920 -2.5383
11796TIP3   OH256802   3.011   1.663  11.982  0.2821  0.3098  0.0455
11796TIP3    H156803   3.076   1.734  11.986 -0.9024  1.4499 -0.4429
11796TIP3    H256804   2.928   1.705  12.003 -0.4647 -0.9365 -0.3154
11797TIP3   OH256805   5.208   3.600  13.849  0.1703 -0.8041  0.7242
11797TIP3    H156806   5.126   3.649  13.859  0.4372  0.0579 -0.9886
11797TIP3    H256807   5.196   3.550  13.769  1.8044  0.4079 -0.3352
11798TIP3   OH256808   3.173   2.780   5.082 -0.8223  0.2484  0.7114
11798TIP3    H156809   3.217   2.724   5.146  1.0687  1.1013  0.2479
11798TIP3    H256810   3.110   2.831   5.133 -1.7221 -1.4074  1.3179
11799TIP3   OH256811   4.145   5.457   3.536  0.1386  0.1698 -0.3072
11799TIP3    H156812   4.191   5.469   3.453  1.3363  0.5334  0.3925
11799TIP3    H256813   4.053   5.476   3.515  0.5446  1.1007 -1.3665
11800TIP3   OH256814   2.831   2.166  14.859  0.2226 -0.1588  0.2379
11800TIP3    H156815   2.902   2.223  14.829  1.0294 -0.6394  1.1446
11800TIP3    H256816   2.768   2.225  14.900 -0.3521  0.3702 -1.3411
11801TIP3   OH256817   2.054   6.608   1.746 -0.1212 -0.0548  0.2928
11801TIP3    H156818   2.074   6.683   1.691 -0.4182 -0.1846  0.0029
11801TIP3    H256819   1.987   6.560   1.698 -1.0629  0.3214  1.2014
11802TIP3   OH256820   6.006   0.381  16.371 -0.4691 -0.1008  0.2625
11802TIP3    H156821   6.080   0.442  16.371  0.7015 -1.4673  0.6493
11802TIP3    H256822   6.046   0.296  16.354 -2.0389 -0.7991 -0.0671
11803TIP3   OH256823   1.788   4.756  14.318  0.7823  0.1522  0.5058
11803TIP3    H156824   1.820   4.670  14.292  0.1190 -0.4507  1.5874
11803TIP3    H256825   1.745   4.741  14.402 -0.8639  1.2124 -0.0889
11804TIP3   OH256826   6.757   3.163   1.239 -0.0862  0.1191 -0.4462
11804TIP3    H156827   6.690   3.145   1.173 -0.7848  0.5359  0.1345
11804TIP3    H256828   6.758   3.259   1.246 -0.2510  0.0666  0.3779
11805TIP3   OH256829   6.399   1.061   3.988  0.1313  0.0331 -0.1882
11805TIP3    H156830   6.451   1.075   4.067  1.3185  0.4305 -1.0225
11805TIP3    H256831   6.448   0.996   3.938 -0.4819 -0.0248 -0.7308
11806TIP3   OH256832   0.811   4.964  14.876  0.3190 -0.2355  0.7704
11806TIP3    H156833   0.879   5.023  14.906 -1.0493  1.3376  0.9115
11806TIP3    H256834   0.831   4.950  14.783 -0.3260  1.9667  0.2379
11807TIP3   OH256835   1.547   3.087   5.022  0.1008 -0.0695  0.2249
11807TIP3    H156836   1.583   3.014   4.973  0.4356 -0.5460  1.1704
11807TIP3    H256837   1.605   3.097   5.098  0.0846  1.1972  0.0992
11808TIP3   OH256838   1.406   3.247   2.295 -0.0018 -0.5589 -0.0331
11808TIP3    H156839   1.469   3.238   2.223 -0.2364 -0.3561 -0.2653
11808TIP3    H256840   1.322   3.259   2.251 -0.2620 -1.2210  0.2743
11809TIP3   OH256841   0.176   1.842   5.767  0.1779 -0.0063 -0.3008
11809TIP3    H156842   0.086   1.865   5.790  0.2845  0.8940 -0.7215
11809TIP3    H256843   0.188   1.879   5.680  1.5323  1.6177  0.4994
11810TIP3   OH256844   6.242   2.001   3.163  0.5741 -0.1581 -0.3076
11810TIP3    H156845   6.199   1.947   3.096 -0.5555  3.3894 -2.6895
11810TIP3    H256846   6.279   2.075   3.116  1.1972  1.7290  2.8242
11811TIP3   OH256847   3.409   5.890  13.961 -0.2116  0.3769 -0.1791
11811TIP3    H156848   3.321   5.884  13.997 -1.2948  2.1473 -2.2973
11811TIP3    H256849   3.426   5.984  13.952  1.2115  0.0566 -1.3679
11812TIP3   OH256850   6.676   1.597  16.285  0.4425 -0.0485  0.1741
11812TIP3    H156851   6.758   1.572  16.241 -0.2565  0.0748 -1.2805
11812TIP3    H256852   6.650   1.678  16.241 -0.7223 -0.3656  0.2619
11813TIP3   OH256853   2.456   3.252  14.866  0.1310  0.7495 -0.1096
11813TIP3    H156854   2.463   3.198  14.945  0.9285  1.2060  0.1363
11813TIP3    H256855   2.397   3.202  14.809  0.3979 -0.1007  0.3385
11814TIP3   OH256856   0.003   2.185  15.111  0.1300 -0.2564 -0.1131
11814TIP3    H156857   0.038   2.124  15.177  2.3417  0.0017 -0.9693
11814TIP3    H256858  -0.076   2.142  15.079 -0.5708 -0.7700  2.0864
11815TIP3   OH256859   4.247   5.589   2.296 -0.4903  0.4966 -0.2858
11815TIP3    H156860   4.271   5.621   2.209  4.4343  0.5491  0.7732
11815TIP3    H256861   4.265   5.663   2.354 -0.6062 -0.5086  1.0828
11816TIP3   OH256862   5.924   2.499   2.324 -0.1361  0.7956  0.1047
11816TIP3    H156863   5.935   2.587   2.289 -1.5634  1.1690  0.5395
11816TIP3    H256864   5.918   2.511   2.419  1.5080  0.0193  0.3358
11817TIP3   OH256865   4.711   5.035  13.991  0.5490  0.1418 -0.3936
11817TIP3    H156866   4.720   5.099  14.061 -0.0617 -0.7085  0.4846
11817TIP3    H256867   4.758   5.074  13.917  0.5218  1.4124  0.2341
11818TIP3   OH256868   5.053   5.911  13.382 -0.6471 -0.5780  0.3062
11818TIP3    H156869   5.116   5.983  13.389  1.2090 -2.1784  0.7588
11818TIP3    H256870   5.099   5.834  13.415 -1.4210 -2.6757 -3.0077
11819TIP3   OH256871   6.335   1.164   3.619  0.2471  0.2337  0.1253
11819TIP3    H156872   6.279   1.170   3.697 -0.5382 -2.1012 -0.1875
11819TIP3    H256873   6.284   1.204   3.549  0.5870  1.5359  0.5968
11820TIP3   OH256874   6.715   6.611  13.506  0.3684 -0.0970 -0.0106
11820TIP3    H156875   6.774   6.643  13.575  0.5661  0.5445 -0.4610
11820TIP3    H256876   6.688   6.690  13.459 -1.6666 -0.2608  0.8005
11821TIP3   OH256877   4.716   2.631   4.432 -0.3982  0.0054  0.1877
11821TIP3    H156878   4.631   2.609   4.472  0.0890  1.8288  2.3957
11821TIP3    H256879   4.710   2.724   4.412  1.2436  0.2789  0.8360
11822TIP3   OH256880   1.729   2.032   1.987  0.3098 -0.0704  0.1807
11822TIP3    H156881   1.719   2.068   1.899 -1.2385  0.3729  0.5086
11822TIP3    H256882   1.688   2.096   2.045  1.2015 -0.4099  1.2252
11823TIP3   OH256883   6.467   0.334  11.188 -0.4458  0.2999  0.5988
11823TIP3    H156884   6.490   0.306  11.100  0.7036  1.7186  0.3986
11823TIP3    H256885   6.408   0.408  11.176 -1.2772 -0.2766  1.0519
11824TIP3   OH256886   1.019   5.609   2.883 -0.7553  0.2069 -0.9340
11824TIP3    H156887   1.040   5.699   2.857 -1.3973  0.9334  0.9547
11824TIP3    H256888   1.053   5.555   2.811  0.2848  1.8947 -1.7629
11825TIP3   OH256889   2.436   2.696   3.243 -0.1013 -0.2753  0.2675
11825TIP3    H156890   2.346   2.662   3.249 -0.0750 -0.9723 -2.0158
11825TIP3    H256891   2.430   2.766   3.178  1.0887 -0.7242 -0.3476
11826TIP3   OH256892   6.749   4.971  14.067  0.0394  0.1440  0.4158
11826TIP3    H156893   6.703   4.887  14.064 -0.6926  0.3701  2.8870
11826TIP3    H256894   6.832   4.951  14.110  0.4398  0.4629 -0.2048
11827TIP3   OH256895   2.385   4.688  12.339 -0.4493 -0.2708 -0.8985
11827TIP3    H156896   2.464   4.735  12.312  0.3101 -1.3743 -0.6670
11827TIP3    H256897   2.313   4.747  12.317  0.4693  1.0394 -0.4970
11828TIP3   OH256898   5.142   4.803   1.560  0.2653  0.0074 -0.1867
11828TIP3    H156899   5.133   4.775   1.469 -0.3912 -0.0753 -0.1045
11828TIP3    H256900   5.091   4.884   1.566 -0.0491 -0.2106  0.1979
11829TIP3   OH256901   5.097   3.333   5.654 -0.0175 -0.5980  0.6927
11829TIP3    H156902   5.177   3.324   5.601  0.1923  0.5317  0.7970
11829TIP3    H256903   5.035   3.377   5.596 -0.0884 -0.1845  1.0787
11830TIP3   OH256904   3.747   0.538  14.057 -0.1885 -0.2895  0.2239
11830TIP3    H156905   3.653   0.537  14.038  0.0453  0.0954 -1.0263
11830TIP3    H256906   3.764   0.626  14.090  0.0006  0.1538 -1.0319
11831TIP3   OH256907   5.918   5.364  16.853  0.2798 -0.0490  0.2393
11831TIP3    H156908   5.859   5.290  16.839  1.7680 -1.2518  0.0360
11831TIP3    H256909   6.005   5.328  16.837  1.0187  1.8630 -0.2473
11832TIP3   OH256910   6.323   2.231  17.235 -0.0045  0.3539  0.8880
11832TIP3    H156911   6.357   2.310  17.194 -0.8584  0.0889 -0.4039
11832TIP3    H256912   6.397   2.170  17.235 -0.1931  0.0590 -1.1224
11833TIP3   OH256913   0.926   5.830   6.459  0.1998 -0.3002 -0.4527
11833TIP3    H156914   0.855   5.808   6.399  1.3155  1.8818 -2.7235
11833TIP3    H256915   0.966   5.745   6.480 -0.2196 -1.1702 -2.8240
11834TIP3   OH256916   3.323   3.987  12.072 -0.3789  0.1867  0.5982
11834TIP3    H156917   3.298   3.913  12.128  0.6351 -0.5348  0.1194
11834TIP3    H256918   3.374   4.044  12.130 -0.4720  0.1098  0.7577
11835TIP3   OH256919   3.911   6.091   4.774  0.3413  0.7045 -0.2263
11835TIP3    H156920   3.885   6.076   4.865 -0.3478  1.1696 -0.3393
11835TIP3    H256921   3.872   6.175   4.752 -0.7687 -0.0913 -1.4164
11836TIP3   OH256922   5.490   6.730  16.117  0.0553 -0.3621 -0.1993
11836TIP3    H156923   5.470   6.679  16.196 -1.4238  2.2713  1.2813
11836TIP3    H256924   5.504   6.819  16.149  0.3476  0.6435 -2.8552
11837TIP3   OH256925   1.030   2.707  16.999 -0.1134 -0.6203 -0.2010
11837TIP3    H156926   1.034   2.658  17.081 -0.3682  0.4810  0.4916
11837TIP3    H256927   1.065   2.647  16.933  3.4293 -0.3808  1.2491
11838TIP3   OH256928   5.016   3.442  11.521  0.0690  0.4838  0.0053
11838TIP3    H156929   5.071   3.368  11.497 -0.3857 -0.2210  1.0639
11838TIP3    H256930   5.001   3.431  11.615 -0.3146  1.7130  0.1026
11839TIP3   OH256931   5.111   6.634  14.871  0.2638  0.6114 -0.3270
11839TIP3    H156932   5.152   6.614  14.955  1.4129 -1.0831 -1.2341
11839TIP3    H256933   5.113   6.551  14.824 -2.0501  1.0632 -1.3559
11840TIP3   OH256934   3.517   1.836   4.719 -0.3007 -0.1319  0.6064
11840TIP3    H156935   3.483   1.889   4.647 -0.5594 -1.2927 -0.1606
11840TIP3    H256936   3.568   1.897   4.772  1.9634  0.3535 -1.8726
11841TIP3   OH256937   0.346   0.512   0.991 -0.2915  0.0756 -0.1871
11841TIP3    H156938   0.335   0.420   0.966  0.4831 -0.7935  2.3715
11841TIP3    H256939   0.259   0.539   1.021  0.0412 -0.6744  1.5268
11842TIP3   OH256940   1.944   4.753   3.144 -0.8410  0.5496 -0.3955
11842TIP3    H156941   1.966   4.794   3.060 -1.3245  0.4172 -0.5870
11842TIP3    H256942   1.890   4.818   3.188 -2.3696 -0.2271 -1.0740
11843TIP3   OH256943   1.662   5.625  12.782 -0.4346  0.0134 -0.3289
11843TIP3    H156944   1.685   5.543  12.825 -0.0145  0.3080  0.0148
11843TIP3    H256945   1.577   5.649  12.819 -1.6773 -1.4139 -2.0766
11844TIP3   OH256946   1.495   2.375  12.666 -0.0248  0.6194 -0.1797
11844TIP3    H156947   1.429   2.321  12.709  1.2873  0.7513  2.1611
11844TIP3    H256948   1.524   2.436  12.734  1.8188  1.2061 -1.4198
11845TIP3   OH256949   6.515   5.569   6.476  0.4252  0.4622  0.3018
11845TIP3    H156950   6.565   5.648   6.455 -0.0791  0.9958  1.0423
11845TIP3    H256951   6.423   5.595   6.467  0.2330  0.2541  1.5378
11846TIP3   OH256952   1.868   4.539  11.644  0.3927 -0.0571  0.5372
11846TIP3    H156953   1.841   4.495  11.724  0.5361  1.3022  1.3551
11846TIP3    H256954   1.786   4.563  11.600  0.2850  0.5932  1.0765
11847TIP3   OH256955   1.152   3.111   5.265 -0.5371  0.6395  0.2785
11847TIP3    H156956   1.228   3.094   5.321 -0.1936  0.4874 -0.2304
11847TIP3    H256957   1.189   3.141   5.183 -1.0697  1.6077  0.3793
11848TIP3   OH256958   1.856   5.744   5.553  0.3360 -0.0115 -0.2111
11848TIP3    H156959   1.903   5.709   5.629 -0.6833 -1.9417 -0.3867
11848TIP3    H256960   1.875   5.837   5.554  2.9418 -0.4516  0.5496
11849TIP3   OH256961   0.761   6.151  16.825  0.2934  0.6676 -0.1997
11849TIP3    H156962   0.686   6.192  16.869  0.9542  1.4501  0.2306
11849TIP3    H256963   0.781   6.210  16.753 -1.2878 -1.0131 -2.1475
11850TIP3   OH256964   1.373   1.006  14.535  0.1855 -0.2500 -0.2751
11850TIP3    H156965   1.320   0.987  14.612 -1.5278  2.0874 -0.7620
11850TIP3    H256966   1.454   1.043  14.570 -0.5940  0.8404  0.4460
11851TIP3   OH256967   4.163   6.038  11.392  0.0238 -0.7691 -0.1437
11851TIP3    H156968   4.236   5.986  11.360 -0.1982 -1.0562 -0.1868
11851TIP3    H256969   4.182   6.127  11.362  1.2849 -0.4615  1.3880
11852TIP3   OH256970   3.932   2.671  14.309  0.2304  0.1146 -0.4070
11852TIP3    H156971   3.911   2.580  14.288  1.9547 -0.7119  1.1217
11852TIP3    H256972   4.011   2.689  14.258  0.1331  0.6226 -0.3829
11853TIP3   OH256973   6.532   4.555   5.320 -0.4745  0.1191 -0.2644
11853TIP3    H156974   6.503   4.622   5.382 -0.3413  0.1000 -0.1828
11853TIP3    H256975   6.520   4.472   5.367  0.1147  0.1385 -0.0774
11854TIP3   OH256976   5.363   3.950   2.592  0.0401 -0.4214  0.2023
11854TIP3    H156977   5.296   3.909   2.537 -0.9262  0.4973  0.6627
11854TIP3    H256978   5.327   3.947   2.680 -0.4491  2.1430  0.1457
11855TIP3   OH256979   0.860   0.821  14.045 -0.1789 -0.0939 -0.2292
11855TIP3    H156980   0.852   0.910  14.079  1.2521  0.8090 -2.0404
11855TIP3    H256981   0.844   0.830  13.951 -0.7436 -1.8988 -0.3509
11856TIP3   OH256982   0.210   0.182   1.958 -0.3191  0.4178  0.6605
11856TIP3    H156983   0.264   0.156   1.883 -1.5643  0.4411 -0.2673
11856TIP3    H256984   0.222   0.276   1.965  1.5975  0.1360  1.9629
11857TIP3   OH256985   0.626   5.452  15.052 -0.3680 -0.2902  0.0391
11857TIP3    H156986   0.641   5.545  15.069 -0.9672 -0.2797  0.5456
11857TIP3    H256987   0.709   5.410  15.077  0.2928  0.2103 -1.2348
11858TIP3   OH256988   2.115   2.760   5.288 -0.0071 -0.0618  0.1506
11858TIP3    H156989   2.080   2.729   5.204  0.3978  0.2480 -0.1383
11858TIP3    H256990   2.138   2.680   5.335  0.7943 -0.2211 -0.4904
11859TIP3   OH256991   6.332   1.149   0.194 -0.1199  0.5765  0.4404
11859TIP3    H156992   6.357   1.100   0.273 -2.5186 -2.0835 -0.2334
11859TIP3    H256993   6.407   1.141   0.135 -0.1643 -2.0079  0.5938
11860TIP3   OH256994   3.920   5.783   0.618 -0.1047 -0.1122 -0.5329
11860TIP3    H156995   3.839   5.829   0.596  1.0639  0.9495 -3.0745
11860TIP3    H256996   3.981   5.852   0.644  0.2137 -0.8361  0.7640
11861TIP3   OH256997   5.647   5.826   2.291  0.8967 -0.6417  0.2023
11861TIP3    H156998   5.586   5.784   2.352 -0.5654  0.1023 -0.6909
11861TIP3    H256999   5.615   5.800   2.204  3.1450 -1.9790 -0.2974
11862TIP3   OH257000   4.541   4.873   2.475  0.3424 -0.0948 -0.0824
11862TIP3    H157001   4.464   4.873   2.533  1.2508  0.6205  1.1718
11862TIP3    H257002   4.603   4.815   2.519  0.9046  0.1451 -0.5565
11863TIP3   OH257003   3.050   6.486  13.057 -0.1105 -0.4512 -0.0716
11863TIP3    H157004   2.988   6.467  12.987  0.4489 -0.8324 -0.4700
11863TIP3    H257005   3.023   6.430  13.130 -1.3239  0.6987  0.3895
11864TIP3   OH257006   6.682   5.393   6.649 -0.1730 -0.9270  0.2229
11864TIP3    H157007   6.685   5.471   6.594  0.0989  0.1494  1.6840
11864TIP3    H257008   6.591   5.364   6.646 -0.0519 -1.2214 -1.1851
11865TIP3   OH257009   5.491   3.139  16.897 -0.2166 -0.0357  0.0466
11865TIP3    H157010   5.449   3.053  16.906 -0.6746  0.1024 -0.7213
11865TIP3    H257011   5.493   3.173  16.987 -0.3531 -0.6908  0.3087
11866TIP3   OH257012   4.446   5.614   1.076  0.0872  0.5190  0.1492
11866TIP3    H157013   4.454   5.650   1.165 -0.2260 -2.0857  1.3175
11866TIP3    H257014   4.521   5.554   1.068 -0.7742 -0.4673 -0.7237
11867TIP3   OH257015   6.250   5.593  16.350  0.2555  0.1438 -0.3559
11867TIP3    H157016   6.334   5.567  16.311  0.9072  2.2433 -0.5028
11867TIP3    H257017   6.185   5.571  16.283  0.8726 -0.0602 -0.9075
11868TIP3   OH257018   0.242   2.303  16.238 -0.1025 -0.3226  0.2634
11868TIP3    H157019   0.264   2.355  16.315 -0.6265  1.2458 -0.5857
11868TIP3    H257020   0.295   2.340  16.168  0.0405 -1.4259 -0.2252
11869TIP3   OH257021   2.566   0.239  11.553 -0.1322 -0.0440 -0.1601
11869TIP3    H157022   2.625   0.187  11.607  2.2894  1.4736 -1.2100
11869TIP3    H257023   2.623   0.290  11.496 -2.4875 -0.5169 -3.2175
11870TIP3   OH257024   0.991   1.062   5.230 -0.3396  0.4554  0.1195
11870TIP3    H157025   0.929   1.048   5.301  0.5659 -0.4825  0.7591
11870TIP3    H257026   0.937   1.065   5.151 -1.1179 -1.5190  0.5149
11871TIP3   OH257027   1.473   4.123  16.962 -0.1953  0.1528  0.1266
11871TIP3    H157028   1.542   4.118  17.028 -0.9689  0.5427  1.0006
11871TIP3    H257029   1.515   4.097  16.880  0.3597 -2.2066  1.0769
11872TIP3   OH257030   0.529   4.908   5.090 -0.0007 -0.1199 -0.0599
11872TIP3    H157031   0.514   4.847   5.018 -1.1460 -0.8759  0.7914
11872TIP3    H257032   0.622   4.931   5.083  0.0465 -0.6444 -1.3979
11873TIP3   OH257033   5.839   4.745   5.116  0.4750  0.1596  0.1281
11873TIP3    H157034   5.905   4.676   5.108  1.2384  0.7426  1.1546
11873TIP3    H257035   5.757   4.698   5.134  0.8317 -0.5088  0.0495
11874TIP3   OH257036   2.663   1.035   4.277  0.1329 -0.4082 -0.2492
11874TIP3    H157037   2.627   0.950   4.301  0.4648 -0.4457  0.1142
11874TIP3    H257038   2.745   1.015   4.231  0.8936 -0.2557  0.9891
11875TIP3   OH257039   1.052   0.378   1.538  0.5819 -0.4502  0.4613
11875TIP3    H157040   0.981   0.324   1.504 -1.1017  1.4453  0.8144
11875TIP3    H257041   1.063   0.447   1.473  1.4478 -0.1488  0.9026
11876TIP3   OH257042   3.435   2.432   5.333 -0.0803 -0.3590  0.5368
11876TIP3    H157043   3.466   2.402   5.247 -0.0490  1.7562 -0.2422
11876TIP3    H257044   3.381   2.508   5.313 -1.0978 -0.5692  2.3363
11877TIP3   OH257045   2.928   4.534   3.127 -0.0226  0.3986 -0.0301
11877TIP3    H157046   2.834   4.546   3.135  0.2747  1.8742  2.2429
11877TIP3    H257047   2.942   4.440   3.131 -1.3394  0.2187  0.5485
11878TIP3   OH257048   3.477   5.483   4.997 -0.2816  0.2091 -0.1435
11878TIP3    H157049   3.429   5.405   4.972 -1.2144  0.7132  0.0273
11878TIP3    H257050   3.570   5.459   4.989 -0.5592 -0.4913 -1.3573
11879TIP3   OH257051   0.505   6.392   4.413 -0.1485 -0.6249 -0.4017
11879TIP3    H157052   0.422   6.439   4.411  0.9281  1.4219  0.0180
11879TIP3    H257053   0.547   6.413   4.329  0.9609  0.4448  0.3739
11880TIP3   OH257054   5.934   1.070  10.539  0.0108 -0.1414 -0.4354
11880TIP3    H157055   5.999   1.015  10.583  0.1838 -0.3961 -1.0091
11880TIP3    H257056   5.907   1.132  10.606 -0.4290 -1.1235  0.3298
11881TIP3   OH257057   2.769   4.242  14.205 -0.2099  0.3182 -0.5464
11881TIP3    H157058   2.787   4.239  14.299 -0.6393  0.2191 -0.4636
11881TIP3    H257059   2.848   4.279  14.167  1.6845 -3.2348 -0.5728
11882TIP3   OH257060   1.763   2.329   4.608  0.0291  0.1368 -0.8557
11882TIP3    H157061   1.693   2.266   4.623 -1.9599  2.1692 -1.0092
11882TIP3    H257062   1.844   2.280   4.622 -1.3813 -1.4348  3.4392
11883TIP3   OH257063   6.075   0.719   0.261 -0.0173 -0.2375 -0.1998
11883TIP3    H157064   6.125   0.642   0.234 -2.5305 -1.6067 -1.1984
11883TIP3    H257065   5.998   0.684   0.305 -1.8661  1.6037 -1.7556
11884TIP3   OH257066   6.300   3.300   6.230  0.4481  0.0804 -0.3607
11884TIP3    H157067   6.230   3.365   6.216  0.2599 -0.1387 -0.4443
11884TIP3    H257068   6.325   3.312   6.321 -0.0907 -0.2218 -0.1684
11885TIP3   OH257069   1.960   5.220   2.185  0.5759  0.1103 -0.3143
11885TIP3    H157070   1.930   5.310   2.201 -1.6417 -0.7824  1.1738
11885TIP3    H257071   2.026   5.228   2.116  2.9549  3.2362  1.9980
11886TIP3   OH257072   5.489   4.191   0.953 -0.1860 -0.0541  0.5395
11886TIP3    H157073   5.557   4.123   0.948 -0.3624 -0.3546  1.8660
11886TIP3    H257074   5.537   4.272   0.970 -0.2053 -0.5959  3.8211
11887TIP3   OH257075   0.989   5.063  13.945 -0.2829 -0.2305  0.4443
11887TIP3    H157076   1.003   5.131  13.879  1.6456 -1.2266 -0.2461
11887TIP3    H257077   0.928   5.002  13.905 -1.1588  0.4855  0.6417
11888TIP3   OH257078   3.655   5.311   0.088  0.0321  0.2106 -0.1407
11888TIP3    H157079   3.610   5.333   0.169 -0.8315 -1.8657  0.0285
11888TIP3    H257080   3.745   5.341   0.100 -0.1655  0.2131  1.4736
11889TIP3   OH257081   4.906   6.630  14.638 -0.1408 -0.1630 -0.2132
11889TIP3    H157082   4.996   6.650  14.611  0.6230 -1.8937  0.8513
11889TIP3    H257083   4.878   6.707  14.688  0.6575  0.4910 -0.7440
11890TIP3   OH257084   0.503   2.144   4.363  0.2280 -0.1993  0.0586
11890TIP3    H157085   0.458   2.077   4.415  0.1957  0.1773  0.5228
11890TIP3    H257086   0.503   2.109   4.274  0.2126 -0.8167  0.2964
11891TIP3   OH257087   2.020   6.634  13.701  0.0011 -0.5801  0.2289
11891TIP3    H157088   2.088   6.684  13.745 -0.7066  0.2351  0.4238
11891TIP3    H257089   1.938   6.663  13.741 -0.3849 -2.6393  1.0802
11892TIP3   OH257090   3.032   3.742  12.562 -0.1127 -0.5605 -0.5796
11892TIP3    H157091   3.039   3.734  12.657 -0.7996  2.6423 -0.1404
11892TIP3    H257092   2.961   3.682  12.539 -0.1325 -1.1896  0.9524
11893TIP3   OH257093   5.132   5.615  17.233 -0.0774 -0.1459  0.4682
11893TIP3    H157094   5.053   5.643  17.279 -1.5299 -1.5120 -1.0280
11893TIP3    H257095   5.109   5.621  17.140  0.7716 -2.5717  0.0199
11894TIP3   OH257096   2.748   2.525  12.181  0.1821  0.2694 -0.1642
11894TIP3    H157097   2.828   2.578  12.186 -0.8279  1.9390 -0.8921
11894TIP3    H257098   2.677   2.588  12.185 -1.1261 -1.1681  0.2762
11895TIP3   OH257099   5.134   0.645  15.595 -0.4142 -0.2750  0.1385
11895TIP3    H157100   5.098   0.708  15.658 -1.5305 -0.4774 -0.2786
11895TIP3    H257101   5.163   0.571  15.648  2.5656  1.2256  0.8616
11896TIP3   OH257102   3.405   5.323   1.177 -0.0875  0.0831  0.2835
11896TIP3    H157103   3.455   5.358   1.104  2.1309 -0.6978  1.3514
11896TIP3    H257104   3.393   5.397   1.236  0.2332  0.1589  0.2529
11897TIP3   OH257105   2.953   6.389   2.818  0.2056  0.1952 -0.3026
11897TIP3    H157106   2.901   6.320   2.860  0.2084  0.1523 -0.3687
11897TIP3    H257107   3.044   6.365   2.837  0.1817  0.7181  0.5121
11898TIP3   OH257108   4.272   5.477  11.395  0.2894 -0.3734  0.3763
11898TIP3    H157109   4.235   5.402  11.441  2.0074 -0.2274  2.1022
11898TIP3    H257110   4.198   5.513  11.344 -0.8915 -2.3867  0.5776
11899TIP3   OH257111   4.305   4.682  13.887  0.1149 -0.2974 -0.4714
11899TIP3    H157112   4.234   4.649  13.833 -0.3831 -0.0796  0.0361
11899TIP3    H257113   4.381   4.632  13.860  0.2720  0.9408 -2.5530
11900TIP3   OH257114   5.988   1.163   0.717 -0.0262  0.1323  0.4027
11900TIP3    H157115   5.998   1.205   0.631  0.3992 -1.6007 -0.4562
11900TIP3    H257116   6.078   1.151   0.748 -0.0874 -0.8487  0.2391
11901TIP3   OH257117   5.673   6.635  11.443 -0.0708  0.0461  0.5561
11901TIP3    H157118   5.581   6.618  11.459 -0.0816 -2.2647 -1.3713
11901TIP3    H257119   5.719   6.560  11.481  1.0236  1.0484  1.3007
11902TIP3   OH257120   2.029   4.725   4.318  0.0111 -0.2131 -0.1435
11902TIP3    H157121   2.090   4.683   4.379  1.5355  0.5440 -1.0726
11902TIP3    H257122   2.079   4.797   4.280 -0.3466 -1.4020 -3.2426
11903TIP3   OH257123   4.899   0.535   1.994 -0.6624  0.3255  0.0076
11903TIP3    H157124   4.916   0.441   1.983 -1.0830  0.3635 -1.0438
11903TIP3    H257125   4.822   0.552   1.941  0.6229  1.6804 -1.5336
11904TIP3   OH257126   2.886   1.982   2.892  0.0496 -0.3865 -0.0121
11904TIP3    H157127   2.870   2.005   2.801 -0.4966 -1.9790 -0.3509
11904TIP3    H257128   2.802   1.950   2.924  1.4984 -6.1062 -0.9394
11905TIP3   OH257129   2.830   3.748  14.023 -0.9027  0.2081  0.4721
11905TIP3    H157130   2.852   3.818  14.083  0.3911  0.9579 -0.8087
11905TIP3    H257131   2.842   3.786  13.936  0.8495 -1.8301 -0.2820
11906TIP3   OH257132   0.239   2.447   6.015 -0.1956 -0.2596  0.3235
11906TIP3    H157133   0.324   2.464   5.975 -0.4800 -0.8886 -0.5783
11906TIP3    H257134   0.176   2.458   5.943 -0.8302 -0.3155  0.8613
11907TIP3   OH257135   6.614   1.371  12.368 -0.1455  0.1683  0.1525
11907TIP3    H157136   6.527   1.333  12.355  0.1015 -0.6324  0.7487
11907TIP3    H257137   6.657   1.312  12.430  0.4147  1.1915  0.7594
11908TIP3   OH257138   1.359   4.498   0.890 -0.4900 -0.2932  0.1598
11908TIP3    H157139   1.359   4.467   0.800 -0.3538 -0.0534  0.0772
11908TIP3    H257140   1.420   4.440   0.936  0.1378  0.1533 -0.0985
11909TIP3   OH257141   3.517   0.277  15.219 -0.5160 -0.6290  0.2599
11909TIP3    H157142   3.444   0.223  15.249 -0.3315 -0.6614  0.6540
11909TIP3    H257143   3.587   0.260  15.282 -0.5075  0.1918  0.4852
11910TIP3   OH257144   3.814   3.875   3.863 -0.5273 -0.0810  0.6118
11910TIP3    H157145   3.747   3.826   3.909 -0.7031 -0.3024  0.1320
11910TIP3    H257146   3.829   3.953   3.917 -1.9647  0.5352  0.1821
11911TIP3   OH257147   2.146   5.521   3.864 -0.2737  0.3114 -0.1635
11911TIP3    H157148   2.092   5.444   3.880 -1.5749  1.1639 -0.3501
11911TIP3    H257149   2.119   5.552   3.778  2.0976 -0.5039 -1.2998
11912TIP3   OH257150   4.379   3.804  13.060  0.9251  0.1009 -0.0376
11912TIP3    H157151   4.331   3.877  13.101  0.3779 -0.8753  1.1184
11912TIP3    H257152   4.468   3.811  13.095  0.8494  0.1665  0.1431
11913TIP3   OH257153   6.603   3.572  13.292 -0.4488  1.3043  0.3509
11913TIP3    H157154   6.574   3.594  13.204 -0.7841 -0.6455 -0.0648
11913TIP3    H257155   6.698   3.576  13.288 -0.4614  1.1819 -0.0938
11914TIP3   OH257156   3.790   6.534  11.808  0.3163 -0.2571  0.3043
11914TIP3    H157157   3.757   6.623  11.819  1.1340  0.2044 -0.7030
11914TIP3    H257158   3.753   6.505  11.724 -1.1491 -1.4616  1.3160
11915TIP3   OH257159   2.683   1.654   5.749 -0.1263  0.2330  0.7300
11915TIP3    H157160   2.761   1.672   5.801  0.6525 -0.5072 -0.1343
11915TIP3    H257161   2.632   1.593   5.803  0.8675 -0.8493  0.4954
11916TIP3   OH257162   1.129   0.791   2.857 -0.3217  0.2064 -0.7430
11916TIP3    H157163   1.084   0.742   2.926 -1.1096  1.1594 -0.5597
11916TIP3    H257164   1.117   0.737   2.779 -1.3690  0.1904 -0.5931
11917TIP3   OH257165   0.338   1.164   2.873  0.2968  0.6982  0.4098
11917TIP3    H157166   0.418   1.125   2.839 -0.4736  0.3330 -1.0626
11917TIP3    H257167   0.293   1.092   2.917  1.1564  1.1061  2.0630
11918TIP3   OH257168   0.510   0.221   3.642 -0.5273 -0.2010  0.0345
11918TIP3    H157169   0.505   0.261   3.729 -0.2080 -0.4179  0.1537
11918TIP3    H257170   0.600   0.189   3.635 -0.7016 -0.6476 -0.1720
11919TIP3   OH257171   4.403   0.914   3.425  0.7006  0.3920  0.1979
11919TIP3    H157172   4.462   0.852   3.384 -1.5753 -0.7706 -1.5407
11919TIP3    H257173   4.423   0.998   3.384  2.5208  0.5118  1.2115
11920TIP3   OH257174   5.181   3.989   2.212 -0.1009 -0.3814  0.2192
11920TIP3    H157175   5.185   4.082   2.189 -0.9757 -0.3175  0.2844
11920TIP3    H257176   5.087   3.968   2.211  0.1499 -1.5508 -0.9116
11921TIP3   OH257177   3.752   0.968  16.526 -0.1623 -0.0061 -0.4917
11921TIP3    H157178   3.668   0.925  16.543  0.2517 -0.3621  0.6813
11921TIP3    H257179   3.731   1.033  16.458 -1.1079 -0.9823 -1.1746
11922TIP3   OH257180   0.717   0.830  11.546  0.1420  0.7507  0.2994
11922TIP3    H157181   0.710   0.889  11.471 -1.6187 -0.1750 -0.2867
11922TIP3    H257182   0.644   0.769  11.537  1.4052 -1.0131  1.3637
11923TIP3   OH257183   4.428   6.073  11.031  0.2741  0.2005 -0.4243
11923TIP3    H157184   4.432   5.999  10.970 -1.5191  0.0673 -0.4301
11923TIP3    H257185   4.421   6.150  10.975  3.0684  0.5519 -0.4514
11924TIP3   OH257186   5.344   1.988  13.163 -0.0759  0.5123  0.0537
11924TIP3    H157187   5.314   1.928  13.231  0.0173 -0.7418 -0.9561
11924TIP3    H257188   5.274   2.053  13.156 -0.8096 -0.2252  0.2927
11925TIP3   OH257189   2.867   3.993  10.993  0.1598  0.0831  0.1313
11925TIP3    H157190   2.959   3.967  10.998 -0.0195 -0.3866  2.8818
11925TIP3    H257191   2.825   3.922  10.945  1.4157  1.1237 -2.6889
11926TIP3   OH257192   6.200   4.592  15.985 -0.0355 -0.3769 -0.4976
11926TIP3    H157193   6.286   4.553  15.973  1.1460  1.7085  0.6835
11926TIP3    H257194   6.181   4.635  15.902  0.1404 -0.6775 -0.6952
11927TIP3   OH257195   0.147   4.484  10.895  0.2471 -0.3420 -0.0262
11927TIP3    H157196   0.084   4.449  10.832  2.3847 -2.1917 -1.3192
11927TIP3    H257197   0.204   4.409  10.914  0.7303  0.6509  2.8068
11928TIP3   OH257198   3.462   2.671   2.245  0.2305  0.0511 -0.0189
11928TIP3    H157199   3.427   2.637   2.328  0.7096 -0.5574 -0.0661
11928TIP3    H257200   3.391   2.657   2.182  0.4306 -0.9004 -0.0477
11929TIP3   OH257201   6.201   2.617  13.150 -0.2942 -0.4959 -0.5806
11929TIP3    H157202   6.142   2.669  13.205 -0.2705 -0.6158 -0.4424
11929TIP3    H257203   6.152   2.537  13.130  0.3753 -1.2877  0.7882
11930TIP3   OH257204   3.551   3.387  15.545  0.6093  0.5542  0.2345
11930TIP3    H157205   3.525   3.469  15.587  0.1527  0.6291 -0.1844
11930TIP3    H257206   3.499   3.383  15.465  0.7200 -0.0849  0.1845
11931TIP3   OH257207   4.195   6.192  14.371 -0.3382  0.3367  0.2769
11931TIP3    H157208   4.253   6.144  14.312 -0.2644  1.7310 -0.8607
11931TIP3    H257209   4.219   6.284  14.357 -2.1720  0.8887  0.4751
11932TIP3   OH257210   3.143   4.031  13.215  0.2805 -0.0554 -0.0497
11932TIP3    H157211   3.209   3.998  13.276  0.6158 -0.0031 -0.3814
11932TIP3    H257212   3.061   4.028  13.265  0.6153  0.3665  0.5386
11933TIP3   OH257213   3.675   3.241   2.718 -0.4091 -0.1158 -0.2732
11933TIP3    H157214   3.601   3.301   2.705 -0.7171  0.2196  2.4632
11933TIP3    H257215   3.722   3.277   2.793  1.6271 -1.2293 -0.9511
11934TIP3   OH257216   4.568   1.484   2.200  0.0512 -0.3054 -0.0783
11934TIP3    H157217   4.606   1.558   2.246 -0.8452  0.0969  0.0458
11934TIP3    H257218   4.490   1.520   2.157  1.2649 -0.4593 -2.5796
11935TIP3   OH257219   4.039   4.845  16.362 -0.2227 -0.3528 -0.3392
11935TIP3    H157220   4.114   4.891  16.400  0.5771 -1.4222 -0.5668
11935TIP3    H257221   3.965   4.869  16.419  0.3634  0.4065  0.1263
11936TIP3   OH257222   3.546   4.131  14.505  0.2121 -0.6326 -0.0592
11936TIP3    H157223   3.546   4.075  14.428 -1.0486 -1.4620  0.5091
11936TIP3    H257224   3.515   4.216  14.472  1.8184 -0.3153 -0.8570
11937TIP3   OH257225   5.623   2.515   2.498 -0.3213  0.2541 -0.2970
11937TIP3    H157226   5.681   2.467   2.557 -0.6650  1.1094  0.7861
11937TIP3    H257227   5.580   2.448   2.446  3.3027 -0.3606 -2.8753
11938TIP3   OH257228   1.739   4.356  12.544  0.5497 -0.7384  0.0512
11938TIP3    H157229   1.681   4.417  12.590  0.8764 -0.0055 -0.4908
11938TIP3    H257230   1.713   4.269  12.576  0.3083 -0.2964  1.0867
11939TIP3   OH257231   1.299   6.549  14.243  0.2041  0.8572 -0.2338
11939TIP3    H157232   1.210   6.530  14.212  0.0821 -0.5300  0.8508
11939TIP3    H257233   1.286   6.607  14.318  0.1479  0.1346  0.3286
11940TIP3   OH257234   0.012   1.609  11.405 -0.0899 -0.1330 -0.3267
11940TIP3    H157235   0.081   1.657  11.359  0.5380 -1.3962 -0.7394
11940TIP3    H257236  -0.018   1.670  11.472  1.6013  0.3806  0.0287
11941TIP3   OH257237   3.313   1.316  14.606  0.0950  0.8707 -0.3158
11941TIP3    H157238   3.237   1.288  14.657  1.8345 -0.2404  1.8614
11941TIP3    H257239   3.363   1.372  14.666  1.9987 -0.0908 -0.8970
11942TIP3   OH257240   1.578   4.469  13.733 -0.0061  0.2083 -0.0593
11942TIP3    H157241   1.657   4.524  13.735 -0.7928  1.3585  0.0298
11942TIP3    H257242   1.554   4.466  13.641  0.5226 -0.7418 -0.1862
11943TIP3   OH257243   0.747   2.578   2.839  0.8065  0.1559  0.0110
11943TIP3    H157244   0.820   2.517   2.851  0.9580  0.1559 -0.8805
11943TIP3    H257245   0.776   2.659   2.882  0.0923 -0.7424  2.3465
11944TIP3   OH257246   6.042   4.862   2.328  0.2896 -0.4231 -0.3527
11944TIP3    H157247   6.047   4.891   2.237 -0.9167  1.6684  0.1767
11944TIP3    H257248   5.958   4.897   2.359  0.8873 -0.7044  1.6992
11945TIP3   OH257249   2.869   2.217   4.639  0.2804  0.2944  0.4377
11945TIP3    H157250   2.819   2.185   4.715 -1.7354  1.3609 -0.3745
11945TIP3    H257251   2.865   2.312   4.647  2.2441  0.4106  0.3348
11946TIP3   OH257252   3.184   4.410  16.392  0.3763  0.5733  0.0628
11946TIP3    H157253   3.105   4.462  16.376 -0.2867 -0.4771 -0.1507
11946TIP3    H257254   3.253   4.456  16.343 -0.1936  1.2519 -0.1122
11947TIP3   OH257255   4.343   0.672  14.200  0.4744 -0.2382  0.5770
11947TIP3    H157256   4.423   0.627  14.174  0.4414 -0.2950  0.5749
11947TIP3    H257257   4.316   0.628  14.281 -0.2830 -1.1027 -0.1280
11948TIP3   OH257258   2.940   6.323  13.271 -0.2461 -0.5054 -0.2944
11948TIP3    H157259   2.976   6.267  13.202  0.0902  0.6088 -1.0510
11948TIP3    H257260   2.876   6.268  13.316  0.9851 -1.9031 -0.1710
11949TIP3   OH257261   1.464   4.770  16.200  0.0700  0.2833  0.3478
11949TIP3    H157262   1.397   4.740  16.262 -0.4327  1.4206  0.3634
11949TIP3    H257263   1.439   4.729  16.117  0.4752 -0.8618  0.7702
11950TIP3   OH257264   1.802   5.444   2.102 -0.1452 -0.5265  0.0427
11950TIP3    H157265   1.711   5.420   2.118 -1.0980  1.2717 -2.1541
11950TIP3    H257266   1.803   5.540   2.108  0.8783 -0.2508 -2.8561
11951TIP3   OH257267   2.160   0.330   4.584  0.2927 -0.0116 -0.8051
11951TIP3    H157268   2.216   0.291   4.517  1.4136  0.7667 -0.3573
11951TIP3    H257269   2.217   0.392   4.629 -0.6318 -0.0224  0.4180
11952TIP3   OH257270   4.114   2.743   1.273  0.0508 -0.1659 -0.8132
11952TIP3    H157271   4.207   2.723   1.283  0.0514 -0.1628 -0.8117
11952TIP3    H257272   4.100   2.821   1.327 -0.0630 -0.4672 -0.4038
11953TIP3   OH257273   0.301   4.057   4.577 -0.5863 -0.3215 -0.0323
11953TIP3    H157274   0.262   4.144   4.567 -0.3439 -0.1887  0.1575
11953TIP3    H257275   0.256   4.020   4.653  1.0204  0.6161  1.4718
11954TIP3   OH257276   2.682   1.812   2.517 -0.0109  0.1395 -0.0588
11954TIP3    H157277   2.668   1.811   2.612 -0.5439 -0.4707 -0.1426
11954TIP3    H257278   2.633   1.737   2.484 -1.0248  1.1593 -0.9806
11955TIP3   OH257279   3.707   0.160   5.491 -0.0711  0.0997 -0.1851
11955TIP3    H157280   3.624   0.146   5.446  0.6489 -3.2925 -0.7422
11955TIP3    H257281   3.751   0.227   5.439 -1.6442  0.5217 -1.0354
11956TIP3   OH257282   5.965   4.402  12.123  0.0009  0.2027  0.1741
11956TIP3    H157283   5.974   4.468  12.054 -1.4929  1.9572  1.5398
11956TIP3    H257284   6.051   4.362  12.129  0.1700 -0.0696 -2.7180
11957TIP3   OH257285   1.412   3.533   2.359 -0.1177 -0.0408  0.3426
11957TIP3    H157286   1.506   3.549   2.368 -0.1759  0.6370 -0.1774
11957TIP3    H257287   1.405   3.438   2.355  0.4669 -0.1278  1.1845
11958TIP3   OH257288   4.768   2.911  12.785  0.1521  0.0326 -0.3474
11958TIP3    H157289   4.675   2.920  12.763 -0.5482  1.9920  2.8508
11958TIP3    H257290   4.771   2.836  12.845  0.3038  1.0113  0.9070
11959TIP3   OH257291   1.347   2.856  17.159 -0.5190 -0.1837 -0.0347
11959TIP3    H157292   1.428   2.835  17.204 -0.1138  1.3502  0.0070
11959TIP3    H257293   1.371   2.926  17.099 -2.1564  1.5584  1.2384
11960TIP3   OH257294   4.162   2.010  16.148 -0.1329 -0.6691 -0.3300
11960TIP3    H157295   4.246   1.989  16.189 -0.9528 -0.0790  1.7740
11960TIP3    H257296   4.098   2.000  16.218 -1.9264 -1.6127 -2.0017
11961TIP3   OH257297   4.144   0.729  10.769  0.5422  0.4794  0.0113
11961TIP3    H157298   4.140   0.741  10.864  0.9473 -0.7515  0.1999
11961TIP3    H257299   4.225   0.772  10.742  0.5271  0.6560  0.2487
11962TIP3   OH257300   5.727   6.599   2.101  0.2432  0.1435 -0.0716
11962TIP3    H157301   5.801   6.628   2.049  0.6652 -0.3006  0.2720
11962TIP3    H257302   5.652   6.608   2.042  0.3482  1.8396  0.0005
11963TIP3   OH257303   2.559   3.734  13.741  0.1264 -0.3043  0.2008
11963TIP3    H157304   2.566   3.774  13.827 -1.0566 -2.2352  1.2602
11963TIP3    H257305   2.524   3.646  13.758 -2.0747 -0.0552 -2.4101
11964TIP3   OH257306   4.929   3.589   6.598  0.0767  0.2881 -0.2002
11964TIP3    H157307   4.982   3.509   6.591 -1.4405 -0.6456 -1.5085
11964TIP3    H257308   4.969   3.650   6.536 -0.8777 -0.7484 -1.9096
11965TIP3   OH257309   2.453   1.479  10.581  0.1153  0.4266  0.0892
11965TIP3    H157310   2.446   1.386  10.599  0.2952  0.2260 -0.8511
11965TIP3    H257311   2.540   1.491  10.544  0.3468  1.0780  0.8020
11966TIP3   OH257312   1.441   3.942   2.022 -0.0521  0.2092  0.1726
11966TIP3    H157313   1.403   3.887   2.090  0.2020  0.5119  0.5614
11966TIP3    H257314   1.470   3.880   1.955  1.5171 -0.2650  1.2382
11967TIP3   OH257315   0.722   1.465  15.587  0.2251 -0.3558  0.0686
11967TIP3    H157316   0.805   1.423  15.610 -0.3380 -0.6358  1.6977
11967TIP3    H257317   0.657   1.425  15.645 -0.6056  1.6836  0.6385
11968TIP3   OH257318   3.573   1.011  12.149 -0.7946  0.0825 -0.1068
11968TIP3    H157319   3.579   1.080  12.083 -1.1358  0.6909  0.4812
11968TIP3    H257320   3.521   1.050  12.220 -1.4042 -0.9462  0.0310
11969TIP3   OH257321   5.996   5.651   2.637  0.2019  0.1059 -0.2202
11969TIP3    H157322   6.083   5.645   2.597  0.3326 -1.4700  0.2157
11969TIP3    H257323   6.003   5.722   2.700  1.8001 -1.1924  1.1728
11970TIP3   OH257324   5.021   0.558  16.480  0.2298  0.2206  0.1284
11970TIP3    H157325   4.952   0.616  16.448 -0.7632 -1.2269 -0.4457
11970TIP3    H257326   5.061   0.606  16.553 -2.7784  0.2869  1.8876
11971TIP3   OH257327   5.794   5.893  15.386  0.1771  0.0586  0.4270
11971TIP3    H157328   5.852   5.950  15.336  0.6915  1.3826  2.4308
11971TIP3    H257329   5.847   5.816  15.406  0.5785  0.3528  0.5043
11972TIP3   OH257330   2.891   1.808  13.123 -0.1138  0.9135 -0.3868
11972TIP3    H157331   2.799   1.829  13.105  0.1091  1.5747 -0.8317
11972TIP3    H257332   2.940   1.871  13.070  0.6310 -1.0634 -2.2056
11973TIP3   OH257333   4.220   1.215  11.071 -0.2860  0.1767  0.2527
11973TIP3    H157334   4.256   1.300  11.046 -0.9153  0.3383 -0.1238
11973TIP3    H257335   4.272   1.152  11.022 -1.0374  0.4521 -0.9517
11974TIP3   OH257336   1.869   5.809  11.376  0.6538 -0.0573 -0.4478
11974TIP3    H157337   1.930   5.856  11.434  2.3730 -0.7333 -1.6316
11974TIP3    H257338   1.828   5.744  11.433  2.1815 -0.5941  0.0968
11975TIP3   OH257339   5.464   3.395   0.930 -0.1135  0.1289 -0.0588
11975TIP3    H157340   5.466   3.331   0.858  1.1658  0.2674 -0.1735
11975TIP3    H257341   5.480   3.342   1.009 -0.5126  0.1187  0.0195
11976TIP3   OH257342   0.445   6.736  11.445 -0.0420 -0.2256 -0.4178
11976TIP3    H157343   0.489   6.712  11.527 -0.5267 -0.4871 -0.2292
11976TIP3    H257344   0.505   6.798  11.403 -0.3677  0.9467  0.7630
11977TIP3   OH257345   1.249   5.405   3.585 -0.2084 -0.1840  0.2352
11977TIP3    H157346   1.338   5.399   3.621 -0.5710 -1.1374  1.0255
11977TIP3    H257347   1.243   5.331   3.524 -0.9516 -1.0763  1.3568
11978TIP3   OH257348   4.344   4.871  12.306  1.0240  0.5515 -0.0740
11978TIP3    H157349   4.403   4.842  12.375 -0.4203 -2.4882  0.0581
11978TIP3    H257350   4.258   4.839  12.333  0.0135  1.2778 -2.1998
11979TIP3   OH257351   5.131   5.196   2.008 -0.0472 -0.3726 -0.0669
11979TIP3    H157352   5.220   5.225   1.986 -0.1665  0.3274  0.3513
11979TIP3    H257353   5.079   5.276   2.011 -0.3074 -0.5606  1.4631
11980TIP3   OH257354   2.473   3.231   1.699 -0.1540 -0.1695 -0.0023
11980TIP3    H157355   2.492   3.263   1.787  0.5068 -1.2541  0.2582
11980TIP3    H257356   2.483   3.136   1.704 -0.1480 -0.2561 -1.2394
11981TIP3   OH257357   1.161   6.773   3.001 -0.0481  0.1863  0.2008
11981TIP3    H157358   1.179   6.825   3.080 -0.2265 -1.2172  1.2226
11981TIP3    H257359   1.078   6.807   2.968  1.0782  2.2383 -0.6742
11982TIP3   OH257360   3.453   0.682  15.586 -0.3830  0.4604 -0.0649
11982TIP3    H157361   3.408   0.765  15.601 -2.7280 -0.8827  0.9963
11982TIP3    H257362   3.512   0.672  15.660 -0.8818  0.7208  0.3755
11983TIP3   OH257363   2.106   0.067  15.620 -0.0623 -0.4444  0.0092
11983TIP3    H157364   2.127  -0.015  15.573  0.2648  0.3917 -1.3798
11983TIP3    H257365   2.188   0.092  15.661  0.8069  0.8932 -2.3596
11984TIP3   OH257366   6.380   0.007   0.088 -0.3167  0.3728 -0.4389
11984TIP3    H157367   6.347   0.073   0.150 -0.7808  0.2899 -0.5930
11984TIP3    H257368   6.317  -0.065   0.094  0.9145 -0.6792  0.7628
11985TIP3   OH257369   1.471   6.525  16.553 -0.7858  0.0982  0.8214
11985TIP3    H157370   1.566   6.534  16.559 -0.7550 -0.4102  1.2286
11985TIP3    H257371   1.450   6.544  16.461 -0.2561 -0.0658  0.6664
11986TIP3   OH257372   2.670   2.387  16.932 -0.4129  0.2595  0.0745
11986TIP3    H157373   2.605   2.419  16.994 -2.3002 -1.4183 -0.9527
11986TIP3    H257374   2.633   2.405  16.846  0.4899 -0.6732 -0.5389
11987TIP3   OH257375   1.292   3.482   5.843 -0.2861 -0.2485 -0.2828
11987TIP3    H157376   1.281   3.392   5.873  0.8093 -0.5864 -0.8405
11987TIP3    H257377   1.252   3.535   5.911 -1.4184 -1.1734 -0.1983
11988TIP3   OH257378   4.262   2.418   2.569 -0.5408 -0.4646 -0.4116
11988TIP3    H157379   4.204   2.344   2.590 -1.3730  0.1633 -0.4496
11988TIP3    H257380   4.202   2.490   2.548  0.1844  0.9104  1.8631
11989TIP3   OH257381   6.318   2.596  12.569 -0.2872  0.3934  0.0645
11989TIP3    H157382   6.405   2.557  12.555 -0.9494 -0.7256 -1.1689
11989TIP3    H257383   6.311   2.664  12.502  0.1757  1.4823  1.0902
11990TIP3   OH257384   2.862   2.722   0.659 -0.2620 -0.1787 -0.6655
11990TIP3    H157385   2.912   2.746   0.581 -1.9568 -0.6637 -1.9588
11990TIP3    H257386   2.863   2.801   0.713  2.2606 -0.3165 -0.3858
11991TIP3   OH257387   6.123   3.583   0.204  0.0567 -0.1387 -0.3899
11991TIP3    H157388   6.195   3.615   0.150 -1.3203 -0.1010 -2.3131
11991TIP3    H257389   6.118   3.643   0.278  2.3087 -0.4732  0.0912
11992TIP3   OH257390   4.305   5.343   0.341 -0.0513  0.6410 -0.1852
11992TIP3    H157391   4.276   5.291   0.267 -0.3275  0.7888 -0.1828
11992TIP3    H257392   4.278   5.432   0.320  0.0183  0.7105  0.0162
11993TIP3   OH257393   4.661   1.973  16.327  0.1873 -0.2795 -0.1840
11993TIP3    H157394   4.574   1.957  16.363 -0.6972  1.1601 -1.5444
11993TIP3    H257395   4.711   2.010  16.400 -1.0740  1.0665  0.0470
11994TIP3   OH257396   2.839   2.795   4.013 -0.0538 -0.1199  0.5617
11994TIP3    H157397   2.820   2.754   3.929  0.6884 -2.4195  1.4063
11994TIP3    H257398   2.756   2.834   4.041 -1.1472 -1.9974  0.1062
11995TIP3   OH257399   1.571   3.802   5.549  0.0318  0.4050  0.6670
11995TIP3    H157400   1.636   3.864   5.580  0.5686 -0.9687  2.4960
11995TIP3    H257401   1.548   3.832   5.462  4.2082  0.1765 -0.7428
11996TIP3   OH257402   5.771   6.722   4.361 -0.2218 -0.5227  0.6171
11996TIP3    H157403   5.782   6.795   4.422 -1.1123  0.1835 -0.0418
11996TIP3    H257404   5.802   6.756   4.277 -0.4274 -0.9874  0.3503
11997TIP3   OH257405   3.041   5.345   3.411 -0.2624 -0.2700  0.3563
11997TIP3    H157406   3.075   5.261   3.381  0.1186  0.2094 -0.5889
11997TIP3    H257407   2.946   5.331   3.417 -0.0481 -1.3453  2.1487
11998TIP3   OH257408   0.058   3.219  10.964  0.0835 -0.0267 -0.2826
11998TIP3    H157409   0.153   3.231  10.962  0.3447 -1.6734  0.1609
11998TIP3    H257410   0.040   3.166  10.886 -0.5231  0.5764 -0.5534
11999TIP3   OH257411   5.405   3.746  12.338 -0.1529  0.5300  0.3536
11999TIP3    H157412   5.344   3.696  12.393  0.7910 -1.4533 -0.2918
11999TIP3    H257413   5.449   3.806  12.398 -1.5391  0.8170  1.1230
12000TIP3   OH257414   5.250   2.264   1.753 -0.1715  0.0425 -0.0973
12000TIP3    H157415   5.335   2.230   1.779  0.3623  1.2068 -0.2469
12000TIP3    H257416   5.196   2.257   1.832 -0.0536 -1.0050 -0.0957
12001TIP3   OH257417   2.746   0.483   2.001 -0.0784 -0.2949 -0.1357
12001TIP3    H157418   2.759   0.407   1.944 -0.3205 -0.1911 -0.3303
12001TIP3    H257419   2.772   0.452   2.088  1.1389 -0.1874 -0.4498
12002TIP3   OH257420   5.374   3.101  15.213  0.4551 -0.0725  0.5648
12002TIP3    H157421   5.351   3.168  15.148 -0.6924 -0.3736  0.6243
12002TIP3    H257422   5.452   3.059  15.178 -0.3766 -0.4956 -0.8461
12003TIP3   OH257423   6.692   3.674   0.477  0.3406  0.6384 -0.4774
12003TIP3    H157424   6.734   3.760   0.485 -1.5425  1.4626  1.2666
12003TIP3    H257425   6.598   3.693   0.474 -0.1269 -1.3481  0.1103
12004TIP3   OH257426   3.406   4.109  15.329 -0.3339  0.3446  0.0118
12004TIP3    H157427   3.327   4.084  15.283 -0.2223 -1.0698  0.5488
12004TIP3    H257428   3.406   4.057  15.409 -0.2506  2.3411  1.3909
12005TIP3   OH257429   1.503   1.207   0.252  0.5645 -0.2287 -0.2207
12005TIP3    H157430   1.476   1.141   0.188 -0.3379  0.1278 -0.2288
12005TIP3    H257431   1.493   1.290   0.205 -1.2802  0.1409  0.7142
12006TIP3   OH257432   6.153   4.025   3.726  0.1767 -0.2541  0.0090
12006TIP3    H157433   6.158   3.989   3.637 -2.6836  0.4311 -0.5209
12006TIP3    H257434   6.167   3.949   3.783  1.6328 -0.7823 -0.9898
12007TIP3   OH257435   4.586   4.360   5.639 -0.2693 -0.0823 -0.4449
12007TIP3    H157436   4.675   4.361   5.604 -0.9059  1.9460 -2.2090
12007TIP3    H257437   4.595   4.395   5.728  0.4713  2.7147 -1.5086
12008TIP3   OH257438   3.488   5.984  13.371  0.2935 -0.2415  0.0140
12008TIP3    H157439   3.463   5.952  13.457  0.9360  2.7080  1.4244
12008TIP3    H257440   3.424   6.052  13.351  0.5943 -0.3668 -1.5307
12009TIP3   OH257441   2.043   3.925   3.429  0.1594  0.1389  0.4840
12009TIP3    H157442   2.008   3.897   3.344 -0.1871 -0.1784  0.7304
12009TIP3    H257443   1.971   3.972   3.470 -0.0720 -0.7361  1.1013
12010TIP3   OH257444   4.061   5.751  11.267 -0.3223 -0.2968  0.0977
12010TIP3    H157445   4.067   5.708  11.181  0.7785 -1.9648  0.9565
12010TIP3    H257446   4.117   5.829  11.258 -0.7241 -0.1001 -0.8692
12011TIP3   OH257447   1.584   5.329  16.753  0.2650  0.1890  0.0893
12011TIP3    H157448   1.677   5.305  16.759  0.1606 -0.6389 -1.2579
12011TIP3    H257449   1.543   5.254  16.709 -1.2508  0.0680  1.6463
12012TIP3   OH257450   6.321   5.785  12.078 -0.2631 -0.1075 -0.5276
12012TIP3    H157451   6.364   5.725  12.016  1.6696 -1.6853  2.1354
12012TIP3    H257452   6.234   5.747  12.092 -0.5778  0.0486 -1.9065
12013TIP3   OH257453   1.080   3.666   4.000  0.1425  0.6276  0.6878
12013TIP3    H157454   1.073   3.711   4.084 -2.6440  0.2989  0.7398
12013TIP3    H257455   1.116   3.580   4.021 -0.5419  0.5448  1.5909
12014TIP3   OH257456   0.336   0.423  12.138  0.3409  0.1881  0.3805
12014TIP3    H157457   0.389   0.344  12.128 -0.3352 -0.6393  2.7039
12014TIP3    H257458   0.286   0.409  12.218 -1.5430  2.0090 -0.3648
12015TIP3   OH257459   1.499   3.236  10.964  0.8073  0.2104  0.2782
12015TIP3    H157460   1.462   3.293  10.897  2.5040  0.4823 -0.4832
12015TIP3    H257461   1.489   3.148  10.929 -3.6917 -0.3753  2.3372
12016TIP3   OH257462   0.327   2.005  13.026 -0.2422  0.2249  1.0747
12016TIP3    H157463   0.233   1.988  13.033  0.1085 -1.3027  2.9898
12016TIP3    H257464   0.344   2.073  13.091  0.2246 -0.8723  2.1478
12017TIP3   OH257465   1.527   1.552  16.734  0.1168 -0.1404 -0.0263
12017TIP3    H157466   1.547   1.523  16.645 -2.0500 -0.9541 -0.2997
12017TIP3    H257467   1.527   1.472  16.785 -1.6303 -0.0903  0.0852
12018TIP3   OH257468   3.200   5.774  10.872 -0.6923 -0.1536  0.2098
12018TIP3    H157469   3.281   5.756  10.825 -0.5162 -1.5778  0.9631
12018TIP3    H257470   3.165   5.853  10.832  0.6290  0.0034 -0.7041
12019TIP3   OH257471   4.672   5.820   4.640 -0.3072  0.1872 -0.4525
12019TIP3    H157472   4.653   5.820   4.734  1.4447  0.5553 -0.0499
12019TIP3    H257473   4.586   5.822   4.598 -1.1276  0.7786  1.1461
12020TIP3   OH257474   0.425   1.596   4.234 -0.0813  0.1170 -0.0535
12020TIP3    H157475   0.497   1.644   4.275  1.2741 -1.7915 -0.0726
12020TIP3    H257476   0.409   1.643   4.152  0.0788  1.4700  0.6687
12021TIP3   OH257477   0.759   2.137   4.036 -0.4522  0.3197  0.6989
12021TIP3    H157478   0.722   2.197   4.100 -0.9232  0.6337  0.1413
12021TIP3    H257479   0.786   2.193   3.963 -4.1325 -0.3580 -1.4295
12022TIP3   OH257480   1.520   1.330  16.896  0.2163 -0.6733 -1.0646
12022TIP3    H157481   1.471   1.292  16.969  0.3343  0.8778 -0.1477
12022TIP3    H257482   1.609   1.297  16.908  0.0676 -1.0448 -0.9617
12023TIP3   OH257483   0.477   0.663   1.823 -0.7525 -0.3151 -0.0794
12023TIP3    H157484   0.438   0.750   1.836  0.4023  0.3796 -1.1226
12023TIP3    H257485   0.431   0.628   1.747 -0.1292  0.0426 -0.6254
12024TIP3   OH257486   6.401   4.912   4.226  0.0132 -0.1479 -0.4431
12024TIP3    H157487   6.352   4.894   4.306  0.9757 -0.9382 -0.0077
12024TIP3    H257488   6.358   4.989   4.188 -2.6712 -1.7534 -0.9893
12025TIP3   OH257489   0.066   6.227  10.987 -0.0821  0.1902  0.3189
12025TIP3    H157490   0.149   6.195  11.022 -0.9263 -0.4468  1.8136
12025TIP3    H257491   0.046   6.305  11.039  0.1787  1.1047 -0.8964
12026TIP3   OH257492   5.285   5.014   0.409 -0.0216 -0.1840  0.1798
12026TIP3    H157493   5.277   5.015   0.505 -1.7684  0.7151  0.0654
12026TIP3    H257494   5.317   4.927   0.388  1.2724 -0.1063  1.6313
12027TIP3   OH257495   1.741   5.822  12.491  0.2630  0.8930 -0.0286
12027TIP3    H157496   1.720   5.758  12.423 -2.6644  0.5694  1.0358
12027TIP3    H257497   1.737   5.907  12.448  0.5463  0.5655 -0.7015
12028TIP3   OH257498   4.175   1.007  13.113 -0.4822 -0.5137  0.4755
12028TIP3    H157499   4.214   1.058  13.184  2.3522 -3.0443  0.9099
12028TIP3    H257500   4.242   1.006  13.045 -0.6608 -3.1019  0.2649
12029TIP3   OH257501   3.700   5.115  15.346 -0.0781 -0.3337  0.5697
12029TIP3    H157502   3.712   5.068  15.263 -0.7436 -0.6725  0.6608
12029TIP3    H257503   3.705   5.207  15.321  1.7139 -0.4189  0.4618
12030TIP3   OH257504   5.288   4.191  13.618  0.3501  0.1705  0.2677
12030TIP3    H157505   5.244   4.271  13.643 -3.9969 -2.4479  2.0946
12030TIP3    H257506   5.333   4.162  13.698  2.6976  1.0854 -0.6333
12031TIP3   OH257507   1.876   6.368   2.273  0.0050 -0.2030 -0.1827
12031TIP3    H157508   1.961   6.328   2.254 -0.0965 -0.5071  0.0036
12031TIP3    H257509   1.883   6.457   2.237 -0.9872 -1.4506 -3.9046
12032TIP3   OH257510   0.357   5.626  12.166 -0.0518  0.6008  0.2171
12032TIP3    H157511   0.388   5.701  12.216  1.5021  0.0247  0.1813
12032TIP3    H257512   0.322   5.566  12.232 -0.2534  0.8722  0.3591
12033TIP3   OH257513   0.010   3.604   4.662 -0.3020  0.5791  0.0235
12033TIP3    H157514   0.058   3.662   4.720  1.3580  0.1734 -0.8809
12033TIP3    H257515   0.077   3.551   4.619 -1.5853 -0.2804 -1.0364
12034TIP3   OH257516   0.630   1.240  11.919  0.4082  0.5713 -0.7287
12034TIP3    H157517   0.692   1.195  11.862 -0.3683 -0.0382 -1.1288
12034TIP3    H257518   0.676   1.251  12.002  0.3776 -1.7311 -0.3379
12035TIP3   OH257519   4.609   6.213   3.302 -0.0414  0.0898  0.1567
12035TIP3    H157520   4.657   6.133   3.278  0.4966  0.4419  0.0416
12035TIP3    H257521   4.530   6.181   3.345  0.3524 -0.5020  0.4540
12036TIP3   OH257522   2.655   5.413   2.121  0.0142  0.4090  0.5205
12036TIP3    H157523   2.612   5.343   2.170 -2.0528  1.6922  0.6359
12036TIP3    H257524   2.661   5.380   2.032  1.1061 -0.7639  0.9993
12037TIP3   OH257525   6.119   5.161   1.310  0.2801 -0.3272  0.2228
12037TIP3    H157526   6.028   5.158   1.283  0.0338 -0.5942  1.0731
12037TIP3    H257527   6.133   5.078   1.357  1.3727 -0.9986 -1.1893
12038TIP3   OH257528   1.506   1.700   2.354  0.0037 -0.0469  0.1633
12038TIP3    H157529   1.459   1.763   2.299 -1.2050  0.8811  2.1626
12038TIP3    H257530   1.574   1.751   2.397 -0.1580 -0.3747  0.8238
12039TIP3   OH257531   1.406   0.087  12.785  0.0784 -0.0001  0.2016
12039TIP3    H157532   1.479   0.103  12.845 -0.5075 -0.4066  1.0570
12039TIP3    H257533   1.382  -0.004  12.801 -0.3100 -0.0062 -0.4111
12040TIP3   OH257534   2.234   5.878  12.396 -0.2597  0.5968  0.9620
12040TIP3    H157535   2.171   5.939  12.357 -0.0787  0.0848 -0.1509
12040TIP3    H257536   2.258   5.919  12.479 -1.0082  1.4764  0.7609
12041TIP3   OH257537   5.310   3.135   3.500 -0.7112  0.2790  0.7471
12041TIP3    H157538   5.239   3.081   3.465 -0.4921  1.3751 -1.5108
12041TIP3    H257539   5.265   3.211   3.538 -0.7766  0.7935 -0.3471
12042TIP3   OH257540   3.806   0.727   6.317 -0.3477 -0.4781 -0.2250
12042TIP3    H157541   3.822   0.808   6.269  0.4407 -0.1263  0.6170
12042TIP3    H257542   3.849   0.739   6.401 -2.0986 -0.8843  0.7921
12043TIP3   OH257543   1.594   0.739   1.968  0.3356  0.0451 -0.3104
12043TIP3    H157544   1.629   0.655   1.938  0.4413 -0.0193 -0.0125
12043TIP3    H257545   1.655   0.804   1.932  1.4118 -0.1326  1.0991
12044TIP3   OH257546   3.126   1.291   5.751 -0.0065  0.5452  0.0280
12044TIP3    H157547   3.165   1.277   5.837 -1.4828  1.8056  0.9551
12044TIP3    H257548   3.163   1.374   5.720  0.0386  0.4174 -0.2664
12045TIP3   OH257549   5.303   0.460   4.032 -0.6673  0.2346  0.2975
12045TIP3    H157550   5.327   0.545   4.068  1.3513 -0.5406  0.9241
12045TIP3    H257551   5.211   0.469   4.008 -0.4478  2.6594  0.1082
12046TIP3   OH257552   2.236   6.771   5.618 -0.2611 -0.3301 -0.1904
12046TIP3    H157553   2.173   6.701   5.601 -0.0491 -0.2103 -1.5903
12046TIP3    H257554   2.266   6.798   5.531  2.3214 -0.9065  0.4189
12047TIP3   OH257555   2.719   6.021   2.075 -0.2578 -0.2954  0.4734
12047TIP3    H157556   2.707   6.043   2.168  1.2537  1.1602  0.3868
12047TIP3    H257557   2.782   5.949   2.076  2.2451  1.7201  0.6084
12048TIP3   OH257558   2.714   1.993  14.067  0.0599 -0.7660  0.1003
12048TIP3    H157559   2.799   1.961  14.036  0.1312 -0.1476 -0.3491
12048TIP3    H257560   2.669   2.023  13.988 -0.2132 -0.2273  0.4541
12049TIP3   OH257561   4.734   2.175   1.551  0.4096  0.2774 -0.2513
12049TIP3    H157562   4.806   2.160   1.612  0.1332 -0.4995 -0.0989
12049TIP3    H257563   4.748   2.110   1.481  0.8879  1.3476 -1.1819
12050TIP3   OH257564   4.220   4.136   5.447  0.2415 -0.1334  0.0572
12050TIP3    H157565   4.179   4.050   5.447  0.4101 -0.2125 -0.6004
12050TIP3    H257566   4.309   4.121   5.480 -0.8754  0.3620  3.8002
12051TIP3   OH257567   1.414   3.957  11.813  0.4046  0.2398 -0.4917
12051TIP3    H157568   1.457   3.875  11.837 -0.7284  0.1553  1.4758
12051TIP3    H257569   1.403   3.951  11.718  1.7022 -1.1953 -0.5847
12052TIP3   OH257570   3.818   0.455  12.894  0.4105 -0.1582  0.2563
12052TIP3    H157571   3.730   0.462  12.857  1.0049 -2.0260 -1.7091
12052TIP3    H257572   3.869   0.520  12.846  0.4487 -0.1832  0.2637
12053TIP3   OH257573   4.329   3.654   2.678  0.2808 -0.4122 -0.1390
12053TIP3    H157574   4.349   3.676   2.769 -0.4631 -2.3112  0.5199
12053TIP3    H257575   4.243   3.613   2.680  0.5658 -1.1725 -1.5949
12054TIP3   OH257576   4.773   3.398   1.694 -0.1944  0.2949 -0.1926
12054TIP3    H157577   4.749   3.324   1.750  0.0868 -0.4783 -1.0540
12054TIP3    H257578   4.839   3.362   1.634 -0.7424  0.9850 -1.2551
12055TIP3   OH257579   4.917   6.158  12.194 -0.0026  0.5971  0.2630
12055TIP3    H157580   4.919   6.087  12.257  1.1593  1.7447  1.5993
12055TIP3    H257581   4.992   6.214  12.218  0.5527  1.0523 -2.1786
12056TIP3   OH257582   0.118   0.905  16.310  0.2141 -0.3493  0.2503
12056TIP3    H157583   0.049   0.872  16.252 -0.9847  3.6400 -0.9010
12056TIP3    H257584   0.198   0.902  16.257 -0.4261  1.1076 -0.8643
12057TIP3   OH257585   5.625   2.716   3.698 -0.0406 -0.4756 -0.2969
12057TIP3    H157586   5.647   2.805   3.669 -0.5208 -0.0923  0.5071
12057TIP3    H257587   5.553   2.690   3.641  0.6070 -0.6582 -1.0547
12058TIP3   OH257588   2.167   6.268  16.360  0.3354  0.0124 -0.4354
12058TIP3    H157589   2.175   6.197  16.424  0.5288 -0.3010 -0.7985
12058TIP3    H257590   2.073   6.280  16.348  0.2958  0.4813  0.3533
12059TIP3   OH257591   4.068   2.806   3.118  0.3160 -0.8639 -0.1621
12059TIP3    H157592   4.100   2.881   3.069  1.1448  2.0278  4.2169
12059TIP3    H257593   3.973   2.813   3.114  0.1991 -2.5425 -3.5769
12060TIP3   OH257594   1.033   3.262  15.577 -0.6445 -0.0997 -0.8246
12060TIP3    H157595   0.953   3.309  15.599  0.7119  1.1321  2.0394
12060TIP3    H257596   1.078   3.319  15.515 -1.0473  0.2061 -0.8438
12061TIP3   OH257597   6.585   1.042   2.952  0.5036  0.2653 -0.9026
12061TIP3    H157598   6.625   0.984   3.016  0.8454  0.1470 -1.2172
12061TIP3    H257599   6.657   1.096   2.920  0.2983  0.4587 -1.0403
12062TIP3   OH257600   1.844   3.794   4.827 -0.6670  0.1172  0.0783
12062TIP3    H157601   1.890   3.762   4.904 -1.2442 -1.5950 -0.2429
12062TIP3    H257602   1.902   3.860   4.789 -0.0226  0.4061  1.5110
12063TIP3   OH257603   5.894   5.218  14.533 -0.2545  0.7189  0.0697
12063TIP3    H157604   5.842   5.142  14.560  0.8081 -0.3966 -0.8922
12063TIP3    H257605   5.913   5.202  14.440 -0.2434  2.3149 -0.2211
12064TIP3   OH257606   1.036   3.332  12.899  0.4588  0.4871 -0.1723
12064TIP3    H157607   0.999   3.409  12.941 -0.6634 -0.6152  0.9322
12064TIP3    H257608   0.968   3.303  12.837  1.1281  0.7210 -1.0458
12065TIP3   OH257609   4.751   0.602  16.765  0.1501  0.4801 -0.2783
12065TIP3    H157610   4.736   0.648  16.683  0.5288  0.3841 -0.4061
12065TIP3    H257611   4.669   0.555  16.782  0.5307 -0.6250 -1.3344
12066TIP3   OH257612   6.102   5.438  16.525  0.2825 -0.4443  0.0365
12066TIP3    H157613   6.164   5.504  16.492  1.0957 -1.4847 -0.5884
12066TIP3    H257614   6.130   5.420  16.614 -0.2322  0.3763  0.3761
12067TIP3   OH257615   2.387   0.238   3.448 -0.0776 -0.6952  0.0013
12067TIP3    H157616   2.430   0.262   3.366 -0.1089 -0.6187  0.0066
12067TIP3    H257617   2.442   0.169   3.485  0.6595  0.1410  0.5391
12068TIP3   OH257618   5.986   4.014  14.978 -0.6032 -0.7860  0.5049
12068TIP3    H157619   6.014   4.102  14.954  2.0603 -2.1043 -1.6558
12068TIP3    H257620   5.892   4.014  14.960 -0.4475  1.2348 -0.6719
12069TIP3   OH257621   0.967   5.213   0.348  0.0651  0.7958  0.1862
12069TIP3    H157622   0.976   5.138   0.406 -1.1605  0.3702 -0.1558
12069TIP3    H257623   0.876   5.242   0.359 -0.0958  0.9147 -1.2626
12070TIP3   OH257624   6.123   0.197  15.199  0.2405  0.0438  0.0691
12070TIP3    H157625   6.153   0.274  15.248  0.0631  0.4534 -0.4655
12070TIP3    H257626   6.053   0.160  15.254 -0.4557  0.9140 -0.2077
12071TIP3   OH257627   0.253   6.073   0.718  0.2788 -0.0697  0.5105
12071TIP3    H157628   0.182   6.051   0.659  0.2977  0.4486  0.2852
12071TIP3    H257629   0.283   5.989   0.754 -0.1256 -0.3273  0.2402
12072TIP3   OH257630   6.751   0.354   4.162 -0.0532  0.3584  0.3667
12072TIP3    H157631   6.667   0.311   4.179  0.3146 -0.6917 -0.4070
12072TIP3    H257632   6.816   0.284   4.166  0.6794  0.9993  0.0299
12073TIP3   OH257633   5.978   6.766   1.501  0.6610 -0.4924 -0.0214
12073TIP3    H157634   5.991   6.736   1.591  0.1742 -0.4649  0.0609
12073TIP3    H257635   6.062   6.750   1.458  1.5145  1.1896  0.9113
12074TIP3   OH257636   4.959   1.995  12.104  0.1166  0.0940 -0.3601
12074TIP3    H157637   4.944   1.914  12.152  0.7543  1.4226  2.3003
12074TIP3    H257638   4.873   2.020  12.072 -0.1851 -1.3182 -0.7030
12075TIP3   OH257639   1.172   4.894  13.254 -0.3081 -0.3090 -0.7477
12075TIP3    H157640   1.118   4.822  13.284 -1.2558  0.4636 -0.5544
12075TIP3    H257641   1.111   4.953  13.210  0.5952 -0.0601 -1.7062
12076TIP3   OH257642   5.230   4.432  15.194 -0.8948  0.0527  0.2443
12076TIP3    H157643   5.184   4.429  15.278  0.1230 -0.8445  0.8004
12076TIP3    H257644   5.263   4.343  15.181 -0.0838  0.4436 -0.5580
12077TIP3   OH257645   5.143   4.893   2.814  0.3749  0.1420 -0.9963
12077TIP3    H157646   5.213   4.839   2.777 -0.2740 -0.8968 -0.7506
12077TIP3    H257647   5.064   4.865   2.768 -0.1286  0.2034 -0.1795
12078TIP3   OH257648   4.147   5.858  12.316 -0.3445  0.0255  0.1450
12078TIP3    H157649   4.142   5.820  12.404 -1.0988  0.5781  0.3532
12078TIP3    H257650   4.089   5.934  12.320 -0.9664 -0.3679 -1.0408
12079TIP3   OH257651   6.617   2.920   1.799 -0.1179  0.6201 -0.2137
12079TIP3    H157652   6.654   2.849   1.852 -0.7811  2.0609  2.3265
12079TIP3    H257653   6.622   2.888   1.709  1.2332 -1.8917  0.6707
12080TIP3   OH257654   5.471   6.317  12.552  0.0031 -0.6218  0.1631
12080TIP3    H157655   5.483   6.240  12.607 -0.8880 -0.1425  1.0758
12080TIP3    H257656   5.540   6.312  12.486  0.6196 -1.6149  0.8716
12081TIP3   OH257657   2.092   6.188   6.029 -0.0868 -1.0166 -0.6915
12081TIP3    H157658   2.158   6.218   6.091 -1.2853  0.9279 -0.2605
12081TIP3    H257659   2.137   6.188   5.944  0.6448 -0.3261 -0.3231
12082TIP3   OH257660   2.135   4.141  12.598 -0.3038  0.4551 -0.4312
12082TIP3    H157661   2.054   4.096  12.621  0.6656 -1.0207  0.2572
12082TIP3    H257662   2.136   4.142  12.502 -0.6027 -0.5563 -0.4560
12083TIP3   OH257663   5.605   5.479  12.159  0.4446 -0.3282 -0.2312
12083TIP3    H157664   5.586   5.407  12.099 -0.2866 -0.7335  0.4610
12083TIP3    H257665   5.627   5.436  12.242  1.3134  0.2233 -0.1634
12084TIP3   OH257666   2.482   5.177   3.988 -0.8973  0.6734 -0.1385
12084TIP3    H157667   2.542   5.242   4.025  0.5233  1.2103 -3.0563
12084TIP3    H257668   2.428   5.227   3.926  0.4815 -0.8507 -2.7557
12085TIP3   OH257669   5.388   2.287   3.693  0.5597  0.0141  0.3280
12085TIP3    H157670   5.483   2.297   3.686  0.4005  0.4982 -2.1069
12085TIP3    H257671   5.355   2.376   3.700  0.1611  0.1553 -2.3419
12086TIP3   OH257672   4.570   0.834   3.079 -0.5411  0.0794 -0.4298
12086TIP3    H157673   4.589   0.838   2.985 -2.1218 -3.4445 -1.0831
12086TIP3    H257674   4.628   0.766   3.112 -2.1980 -0.9968  0.4050
12087TIP3   OH257675   5.546   6.222  12.316 -0.0879 -0.3153 -0.1207
12087TIP3    H157676   5.512   6.247  12.230 -1.0903 -1.6816 -0.1483
12087TIP3    H257677   5.640   6.211  12.303 -0.3441 -1.3403 -1.2783
12088TIP3   OH257678   0.464   2.384   0.850  0.1202 -0.1610 -0.2888
12088TIP3    H157679   0.453   2.422   0.762  1.9511  1.8917  0.2842
12088TIP3    H257680   0.498   2.296   0.833  0.9281  0.3714 -1.6791
12089TIP3   OH257681   6.639   6.490  16.828  0.2026 -0.0225 -0.1059
12089TIP3    H157682   6.546   6.467  16.823  0.1503 -0.0614  0.7714
12089TIP3    H257683   6.641   6.571  16.879  0.8669 -2.0959  3.5037
12090TIP3   OH257684   0.527   0.154  12.877  0.1537 -0.1751  0.6268
12090TIP3    H157685   0.470   0.151  12.801  1.9557  2.6743 -1.0169
12090TIP3    H257686   0.596   0.090  12.858 -0.0283 -0.3120  0.4269
12091TIP3   OH257687   5.618   0.888  13.800 -0.3099  0.4671 -0.7832
12091TIP3    H157688   5.613   0.797  13.772 -0.0544  0.4796 -0.8764
12091TIP3    H257689   5.532   0.925  13.781 -0.5290  0.1523 -0.4137
12092TIP3   OH257690   3.217   3.707  14.225 -0.6752 -0.6829  0.0509
12092TIP3    H157691   3.223   3.705  14.130 -1.4135  0.8228 -0.0579
12092TIP3    H257692   3.151   3.641  14.247 -0.7677 -0.7762 -0.5083
12093TIP3   OH257693   3.511   3.557  13.398 -0.4314 -0.5091 -0.0625
12093TIP3    H157694   3.580   3.606  13.355  0.1306 -1.3620 -0.1417
12093TIP3    H257695   3.488   3.610  13.475 -0.2677  0.1755 -0.4835
12094TIP3   OH257696   3.413   4.892   3.679 -0.0338 -0.4969  0.3038
12094TIP3    H157697   3.497   4.863   3.641  1.2291  3.1699 -0.1338
12094TIP3    H257698   3.361   4.916   3.603 -0.7810 -0.9796  0.6574
12095TIP3   OH257699   0.593   5.732   2.234  0.2011  0.0269  0.0426
12095TIP3    H157700   0.558   5.651   2.198  0.3978 -0.6855  1.3668
12095TIP3    H257701   0.606   5.713   2.327 -0.4937  1.8313  0.5495
12096TIP3   OH257702   1.473   5.940   0.007  0.2177 -0.2016 -0.0594
12096TIP3    H157703   1.471   5.923  -0.087 -0.4648 -0.2514 -0.0396
12096TIP3    H257704   1.566   5.935   0.030  0.2740 -1.4896 -0.4866
12097TIP3   OH257705   2.251   4.182  11.109  0.1201 -0.3209  0.2362
12097TIP3    H157706   2.259   4.271  11.144  2.3238  0.5908 -2.2686
12097TIP3    H257707   2.190   4.191  11.036 -1.0968 -1.3400  1.0626
12098TIP3   OH257708   1.576   6.718  15.276  0.2467 -0.3127  0.2134
12098TIP3    H157709   1.521   6.777  15.225  1.0043  0.2969  0.0826
12098TIP3    H257710   1.526   6.637  15.282 -0.5121  0.1203 -0.1858
12099TIP3   OH257711   4.726   5.563  16.191 -0.7824 -0.2292  0.2672
12099TIP3    H157712   4.646   5.539  16.238 -1.3134  0.9141  0.0042
12099TIP3    H257713   4.706   5.649  16.154  0.4070 -0.1421 -0.2098
12100TIP3   OH257714   5.331   3.083  12.997  0.2920  0.6434 -0.0828
12100TIP3    H157715   5.292   3.090  13.084  0.9868 -0.2613  0.3117
12100TIP3    H257716   5.380   3.164  12.986  2.7505 -0.4900  1.6785
12101TIP3   OH257717   6.443   3.762   4.223  0.1465 -0.0800  0.4455
12101TIP3    H157718   6.404   3.700   4.286  0.8982 -0.1136  0.8884
12101TIP3    H257719   6.536   3.741   4.224  0.1068 -0.4806 -1.1351
12102TIP3   OH257720   0.235   3.670   4.081  0.1969 -0.4944 -0.1700
12102TIP3    H157721   0.205   3.759   4.068  0.9378 -0.0074  1.2645
12102TIP3    H257722   0.310   3.661   4.022 -1.9832 -1.4165 -3.0505
12103TIP3   OH257723   2.468   2.491   6.167 -0.8228 -0.1023  0.0262
12103TIP3    H157724   2.426   2.444   6.238 -1.3068  0.4863  0.1385
12103TIP3    H257725   2.472   2.429   6.095 -1.4746 -0.3023  0.1610
12104TIP3   OH257726   2.177   4.045  14.418 -0.0445 -0.0592 -0.4137
12104TIP3    H157727   2.252   4.093  14.384  0.8083 -1.3367 -0.4223
12104TIP3    H257728   2.216   3.981  14.478 -0.9763 -1.6659 -1.4701
12105TIP3   OH257729   5.492   1.884   0.569  0.6580  0.4780  0.4646
12105TIP3    H157730   5.402   1.904   0.542  0.4320  0.6118  1.2907
12105TIP3    H257731   5.512   1.803   0.523 -0.4162 -0.3316  1.3375
12106TIP3   OH257732   6.067   1.036  14.811  0.1902 -0.2389  0.0991
12106TIP3    H157733   6.079   0.951  14.769 -0.3268 -0.2238 -0.0842
12106TIP3    H257734   6.097   1.099  14.746  1.6771 -0.3258  0.6690
12107TIP3   OH257735   0.021   4.201  16.157  0.1706  0.0795 -0.3083
12107TIP3    H157736   0.013   4.124  16.214  1.4108 -1.1068 -1.6637
12107TIP3    H257737  -0.048   4.261  16.188 -0.6690 -1.4570  0.9401
12108TIP3   OH257738   5.370   1.130   5.292  0.1971  0.2339  0.2359
12108TIP3    H157739   5.380   1.113   5.198  1.3199  0.1481  0.3605
12108TIP3    H257740   5.282   1.096   5.313  0.2898 -0.5663 -0.5972
12109TIP3   OH257741   2.260   5.195  13.949  0.1591 -0.0427  0.2685
12109TIP3    H157742   2.306   5.210  13.867  0.2522 -1.2456  0.0804
12109TIP3    H257743   2.325   5.215  14.017  0.3559  0.0993  0.0400
12110TIP3   OH257744   1.099   6.767  11.642  0.0100 -0.1792 -0.6058
12110TIP3    H157745   1.187   6.796  11.666 -0.2242 -1.3020  2.0623
12110TIP3    H257746   1.066   6.834  11.582  1.8044  1.5682  0.2534
12111TIP3   OH257747   4.077   3.571   1.384 -0.2857  0.6277  0.2382
12111TIP3    H157748   4.106   3.566   1.475 -0.8372 -0.6677  0.3567
12111TIP3    H257749   3.982   3.570   1.389 -0.3165  0.2987 -0.3716
12112TIP3   OH257750   6.155   4.750  13.370 -0.2068  0.0314 -0.2755
12112TIP3    H157751   6.231   4.806  13.389  0.2623 -0.4608 -0.6677
12112TIP3    H257752   6.093   4.769  13.440  0.5789 -0.0790  0.4691
12113TIP3   OH257753   3.226   1.300  15.168  0.3915 -0.0992  0.4268
12113TIP3    H157754   3.249   1.344  15.250  2.4256 -0.5501  0.1511
12113TIP3    H257755   3.207   1.372  15.108 -0.4218  0.2594  1.0959
12114TIP3   OH257756   3.835   1.354  13.408 -0.1016 -0.0316 -0.2071
12114TIP3    H157757   3.884   1.410  13.468  0.2073  0.9059 -1.3110
12114TIP3    H257758   3.804   1.413  13.340  2.2445 -1.4978 -2.7185
12115TIP3   OH257759   5.297   2.766   1.521 -0.2095 -0.3156  0.3255
12115TIP3    H157760   5.210   2.795   1.491 -0.3905 -1.0587  0.1143
12115TIP3    H257761   5.317   2.691   1.466  0.4284 -0.3497  0.6028
12116TIP3   OH257762   1.389   0.705  11.777  0.5659 -0.3431  0.0831
12116TIP3    H157763   1.393   0.618  11.738  1.2451  0.4227 -1.6307
12116TIP3    H257764   1.412   0.691  11.869  2.6230 -1.7226 -0.5881
12117TIP3   OH257765   5.875   0.563   4.994  0.1500 -0.6773 -0.2796
12117TIP3    H157766   5.919   0.532   5.073 -0.1542  1.0215  0.5959
12117TIP3    H257767   5.786   0.529   5.001  0.0505 -0.3085  0.2465
12118TIP3   OH257768   3.535   2.512  12.582  0.2833  0.0009 -0.2716
12118TIP3    H157769   3.619   2.509  12.629  0.5249  1.7362 -0.5549
12118TIP3    H257770   3.496   2.426  12.599  1.2944 -0.1783  1.3849
12119TIP3   OH257771   2.743   2.885   5.034  0.0251 -0.0230  0.1675
12119TIP3    H157772   2.749   2.959   4.973  2.0903  0.3854  0.8146
12119TIP3    H257773   2.712   2.812   4.980  0.8482  0.5802 -1.1605
12120TIP3   OH257774   0.380   6.610   2.363  0.0357 -0.1680 -0.2300
12120TIP3    H157775   0.326   6.637   2.437  0.1312 -0.7262  0.0457
12120TIP3    H257776   0.319   6.571   2.301  0.1865 -1.4614  0.3897
12121TIP3   OH257777   5.184   0.073   5.077 -0.0964  0.4987  0.5557
12121TIP3    H157778   5.199   0.158   5.036  0.0866 -0.5243 -1.5822
12121TIP3    H257779   5.259   0.062   5.137 -0.2639  1.9232  1.0711
12122TIP3   OH257780   2.153   3.629   6.256  0.4052 -0.0220 -0.1700
12122TIP3    H157781   2.216   3.569   6.216  0.8052 -1.0819  1.9237
12122TIP3    H257782   2.082   3.572   6.285  0.0471  0.7322  0.4557
12123TIP3   OH257783   5.382   5.387   3.032  0.2215 -0.3965  0.3309
12123TIP3    H157784   5.399   5.413   3.123 -0.9746 -1.0425  0.7526
12123TIP3    H257785   5.438   5.445   2.980 -0.1390  0.9468  1.3997
12124TIP3   OH257786   3.273   2.767  14.263 -0.2834  0.4581 -0.6083
12124TIP3    H157787   3.262   2.834  14.195  0.6336 -0.2242 -1.4492
12124TIP3    H257788   3.320   2.813  14.333 -1.5787  1.2734 -0.2302
12125TIP3   OH257789   0.223   4.789   1.637  0.1373 -0.3667  0.6216
12125TIP3    H157790   0.315   4.768   1.652  1.0367  1.2704 -1.9464
12125TIP3    H257791   0.209   4.871   1.685  0.3132 -0.0804  0.1845
12126TIP3   OH257792   3.931   3.574  14.642  0.7232  0.0608 -0.5378
12126TIP3    H157793   3.929   3.553  14.548 -1.0171 -0.0066 -0.5250
12126TIP3    H257794   4.022   3.559  14.668  0.8083 -2.0140 -1.7566
12127TIP3   OH257795   6.502   0.820   3.940  0.4850  0.0017  0.9192
12127TIP3    H157796   6.574   0.838   3.880  0.8849 -0.5410  1.2285
12127TIP3    H257797   6.440   0.768   3.888  0.9286 -0.6490  1.0249
12128TIP3   OH257798   5.487   2.859   2.170 -0.1928  0.3469  0.2561
12128TIP3    H157799   5.534   2.807   2.236 -1.6918 -0.1740  0.9626
12128TIP3    H257800   5.548   2.928   2.146  0.3810  0.5906  2.2513
12129TIP3   OH257801   1.102   0.151  13.387 -0.4362  0.2600 -0.4259
12129TIP3    H157802   1.071   0.157  13.297 -0.8928  2.4265 -0.1846
12129TIP3    H257803   1.024   0.167  13.440 -0.3491 -1.8698  0.4098
12130TIP3   OH257804   0.588   5.247  11.591  0.3698  0.1634  0.8759
12130TIP3    H157805   0.616   5.158  11.612  2.1987 -0.1825 -2.3571
12130TIP3    H257806   0.633   5.302  11.656 -0.3957 -1.1630  2.5992
12131TIP3   OH257807   1.951   1.721   2.731 -0.2214  0.2432  0.2343
12131TIP3    H157808   1.985   1.634   2.753  1.3036  0.3614 -1.3978
12131TIP3    H257809   1.856   1.709   2.726 -0.0071 -1.5015 -0.5758
12132TIP3   OH257810   0.432   0.695   2.136 -0.3697  0.1541 -0.0368
12132TIP3    H157811   0.471   0.781   2.153  1.2237 -0.5122 -0.2015
12132TIP3    H257812   0.422   0.691   2.041  0.8904 -0.3692 -0.1693
12133TIP3   OH257813   3.127   0.221  12.842  0.1913 -0.4843 -0.2645
12133TIP3    H157814   3.155   0.295  12.790 -1.7166  0.3880 -0.1498
12133TIP3    H257815   3.070   0.259  12.909 -0.7229 -2.0089 -0.1217
12134TIP3   OH257816   0.182   0.796   3.665  0.0916  0.3263 -0.1905
12134TIP3    H157817   0.170   0.703   3.683 -0.3088  0.3337 -0.4065
12134TIP3    H257818   0.249   0.824   3.728 -1.0385  0.2873  1.0882
12135TIP3   OH257819   5.577   5.418   3.365  0.4315 -0.3753 -0.3155
12135TIP3    H157820   5.531   5.492   3.406  0.5169 -0.0499 -0.7918
12135TIP3    H257821   5.559   5.344   3.422  0.4665  0.0448  0.2570
12136TIP3   OH257822   0.519   1.187   0.301 -0.5777  0.9426  0.1820
12136TIP3    H157823   0.581   1.165   0.371 -1.0565  3.1123  1.3892
12136TIP3    H257824   0.436   1.150   0.331 -0.5267  0.8404  0.1949
12137TIP3   OH257825   1.818   0.545   3.850  0.0758  0.5426  0.0538
12137TIP3    H157826   1.839   0.523   3.759  0.9915  0.1133  0.3592
12137TIP3    H257827   1.898   0.526   3.898 -0.4333  0.6762  0.9702
12138TIP3   OH257828   1.150   1.336  12.023  0.1917 -0.1969  0.1955
12138TIP3    H157829   1.114   1.407  12.077  1.1216  0.5128 -0.0892
12138TIP3    H257830   1.090   1.332  11.948  0.4221  0.6601 -0.0491
12139TIP3   OH257831   5.135   0.279  12.221 -0.2202 -0.1154 -0.2975
12139TIP3    H157832   5.126   0.195  12.265 -0.8941  0.1702  0.1368
12139TIP3    H257833   5.186   0.260  12.143  0.9761 -0.6424  0.5864
12140TIP3   OH257834   1.574   6.502   0.712 -0.5360 -0.4486  0.0607
12140TIP3    H157835   1.609   6.591   0.705 -2.1351  0.2461  0.6121
12140TIP3    H257836   1.527   6.488   0.629 -1.9040 -0.0390  0.7467
12141TIP3   OH257837   3.080   1.626   0.589 -0.1377 -0.3878  0.8033
12141TIP3    H157838   3.021   1.558   0.556 -0.3934 -0.0787  0.6112
12141TIP3    H257839   3.130   1.654   0.512  1.9443 -2.2633  1.3715
12142TIP3   OH257840   1.205   4.683   4.584  0.2827  0.2304  0.7509
12142TIP3    H157841   1.232   4.593   4.600  0.5902  0.3169  0.7266
12142TIP3    H257842   1.165   4.712   4.666  0.5766  0.2124  0.9014
12143TIP3   OH257843   1.393   4.147  14.073 -0.4812 -0.3403  0.2656
12143TIP3    H157844   1.380   4.074  14.133 -0.0756  0.1348  0.9517
12143TIP3    H257845   1.467   4.196  14.111 -0.7148  0.3934 -0.2028
12144TIP3   OH257846   2.851   0.170   1.818  0.5728 -0.3118 -0.0538
12144TIP3    H157847   2.803   0.087   1.817 -1.3466  0.6551  2.0960
12144TIP3    H257848   2.912   0.162   1.891 -0.1737  0.3788  0.6807
12145TIP3   OH257849   3.256   6.089   5.780 -0.0937  0.2301  0.0649
12145TIP3    H157850   3.286   5.999   5.795 -0.4796  0.2593  1.1239
12145TIP3    H257851   3.161   6.085   5.795 -0.1387  0.7834 -0.0623
12146TIP3   OH257852   0.702   0.917   4.157 -0.0085 -0.4257 -0.3052
12146TIP3    H157853   0.785   0.877   4.133 -0.4831 -1.0324 -0.9872
12146TIP3    H257854   0.689   0.893   4.249 -0.3067 -1.9248 -0.7122
12147TIP3   OH257855   1.562   6.572   5.676 -0.0549 -0.2329 -0.2801
12147TIP3    H157856   1.646   6.607   5.646 -0.2041  1.0224  0.7004
12147TIP3    H257857   1.545   6.498   5.618  2.4044 -1.4202  0.3574
12148TIP3   OH257858   6.686   0.888   1.264  0.4302 -0.4488  0.1582
12148TIP3    H157859   6.753   0.955   1.274  0.9675 -1.0902  1.1205
12148TIP3    H257860   6.640   0.888   1.348 -2.4388  1.6493 -1.2504
12149TIP3   OH257861   1.085   2.889  16.000  0.2995  0.6138 -0.3298
12149TIP3    H157862   1.099   2.939  16.081 -0.8060  0.7540 -0.2089
12149TIP3    H257863   1.150   2.925  15.939 -0.4212  2.1862 -0.2270
12150TIP3   OH257864   1.522   2.165   0.664 -0.9263  0.1816 -0.5956
12150TIP3    H157865   1.437   2.177   0.622 -0.1283  1.4660 -1.9481
12150TIP3    H257866   1.532   2.242   0.720 -0.3593  0.4176 -1.0095
12151TIP3   OH257867   3.595   4.843   4.110 -0.3918 -0.1837  0.3271
12151TIP3    H157868   3.602   4.795   4.028  0.5220  1.3329 -0.5174
12151TIP3    H257869   3.663   4.805   4.166 -0.1532 -0.3502 -0.0781
12152TIP3   OH257870   1.044   6.747  15.433 -0.5817 -0.0624  0.1407
12152TIP3    H157871   1.084   6.831  15.454 -1.5384  0.0306  1.7437
12152TIP3    H257872   1.069   6.689  15.505 -1.5918 -0.5714  0.0999
12153TIP3   OH257873   3.742   1.962  16.972 -0.4417 -0.3509 -0.4038
12153TIP3    H157874   3.742   1.922  16.886 -1.0965  1.0692 -1.0884
12153TIP3    H257875   3.654   1.947  17.006 -0.2859 -0.6184 -0.1080
12154TIP3   OH257876   0.105   0.203  11.837  0.0370  0.1372 -0.1296
12154TIP3    H157877   0.149   0.142  11.778 -0.7999  0.1578 -0.7931
12154TIP3    H257878   0.154   0.196  11.919  0.3277 -0.9845 -0.3764
12155TIP3   OH257879   6.363   2.478  10.822  0.0417  0.2223 -0.4562
12155TIP3    H157880   6.394   2.425  10.748  1.1057 -0.8607  0.7303
12155TIP3    H257881   6.401   2.564  10.807 -0.9814  0.4541 -1.9429
12156TIP3   OH257882   5.050   3.191  12.743 -0.3614 -0.0813 -0.1572
12156TIP3    H157883   5.125   3.246  12.763 -0.2419  0.0672 -1.0124
12156TIP3    H257884   5.086   3.102  12.740 -0.2784 -0.0437 -0.2663
12157TIP3   OH257885   3.642   2.431  12.064 -0.8683  0.4016  0.3153
12157TIP3    H157886   3.728   2.420  12.024 -0.9125 -0.4554  0.4199
12157TIP3    H257887   3.661   2.454  12.155 -0.7619  1.4423  0.0337
12158TIP3   OH257888   0.255   1.418  12.020  0.3783 -0.3064  0.3650
12158TIP3    H157889   0.254   1.467  12.102  0.1977  0.1593  0.0923
12158TIP3    H257890   0.170   1.436  11.981  0.8030  0.2105 -0.3450
12159TIP3   OH257891   6.209   2.597  12.196  0.5118  0.2268 -0.0843
12159TIP3    H157892   6.234   2.668  12.138 -1.4422  1.1626  0.1581
12159TIP3    H257893   6.291   2.570  12.238  1.8961 -0.1292 -2.8084
12160TIP3   OH257894   2.733   1.553   3.373  0.2794  0.0499 -0.3336
12160TIP3    H157895   2.738   1.458   3.374 -0.3573  0.0121 -0.2728
12160TIP3    H257896   2.777   1.579   3.292 -2.6395 -0.5142 -2.2580
12161TIP3   OH257897   2.369   3.867  16.477 -0.1391  0.1663 -0.3778
12161TIP3    H157898   2.368   3.956  16.441  0.8392 -0.6594 -2.6519
12161TIP3    H257899   2.437   3.821  16.426  0.5557 -1.4538  1.8615
12162TIP3   OH257900   6.100   5.791  16.502 -0.2407  0.5980  0.1756
12162TIP3    H157901   6.159   5.718  16.478  1.0895  1.0253  1.9206
12162TIP3    H257902   6.103   5.849  16.426  2.3263  1.0162  0.5087
12163TIP3   OH257903   5.373   3.184  16.646 -0.2088 -0.1552  0.0985
12163TIP3    H157904   5.443   3.173  16.710  0.5806 -2.2538 -1.0507
12163TIP3    H257905   5.295   3.202  16.700  0.7423 -0.1248  1.5363
12164TIP3   OH257906   0.267   6.435  12.653 -0.0483  0.1431 -0.5009
12164TIP3    H157907   0.235   6.518  12.617 -0.8567  0.4798  0.9103
12164TIP3    H257908   0.247   6.370  12.585  1.8408  1.2561 -2.2182
12165TIP3   OH257909   3.751   1.780   3.038  0.2929  0.4376 -0.4806
12165TIP3    H157910   3.714   1.868   3.024  1.4024  0.6449 -2.4851
12165TIP3    H257911   3.727   1.732   2.959 -1.6497 -1.6265  1.2501
12166TIP3   OH257912   4.803   3.417  16.973 -0.2410  0.0539  0.2117
12166TIP3    H157913   4.870   3.462  17.025  1.3867 -0.3211 -1.4526
12166TIP3    H257914   4.836   3.420  16.883 -1.5127 -1.8984 -0.3822
12167TIP3   OH257915   4.146   1.834   3.099 -0.2278 -0.2120 -0.1008
12167TIP3    H157916   4.206   1.876   3.037  1.1350 -1.4157  0.3247
12167TIP3    H257917   4.083   1.788   3.045  0.5834 -0.7431 -0.6181
12168TIP3   OH257918   2.508   4.357  15.854 -0.5142 -0.7115 -0.3426
12168TIP3    H157919   2.564   4.407  15.795 -1.3591 -0.3450 -0.8589
12168TIP3    H257920   2.566   4.293  15.894  0.2878 -0.2712 -0.7813
12169TIP3   OH257921   6.333   5.178   0.630 -0.4591 -0.0072  0.5951
12169TIP3    H157922   6.358   5.087   0.612 -0.5561 -0.6388  3.3137
12169TIP3    H257923   6.403   5.231   0.591  0.5615 -1.3357  0.5654
12170TIP3   OH257924   2.694   1.622   4.576  0.6782  0.2245 -0.2530
12170TIP3    H157925   2.742   1.665   4.647 -0.1356 -0.2690  0.6190
12170TIP3    H257926   2.680   1.691   4.511  3.7589  0.0853 -1.2127
12171TIP3   OH257927   5.003   1.937  15.089 -0.2812 -0.5050  0.2153
12171TIP3    H157928   5.068   1.872  15.064  1.5816  1.4540 -0.3345
12171TIP3    H257929   4.992   1.992  15.011  0.0319  1.2595  1.3540
12172TIP3   OH257930   1.511   0.515   4.426  0.1533 -0.4925 -0.7476
12172TIP3    H157931   1.487   0.438   4.374 -1.9552  0.2583 -0.9556
12172TIP3    H257932   1.472   0.499   4.512 -0.5449  0.4465 -0.8755
12173TIP3   OH257933   5.260   4.493   2.439  0.6925  0.1332  0.0048
12173TIP3    H157934   5.193   4.430   2.465  1.8043 -0.7101  0.8997
12173TIP3    H257935   5.214   4.553   2.380 -0.5168 -1.1780 -0.4406
12174TIP3   OH257936   4.179   0.021   3.320  0.3995 -0.3062 -0.1337
12174TIP3    H157937   4.120  -0.028   3.262  0.6361 -0.3476 -0.3407
12174TIP3    H257938   4.164   0.113   3.298  0.0211 -0.2901  0.1907
12175TIP3   OH257939   6.640   3.197   1.739 -0.5302  0.1195  0.0357
12175TIP3    H157940   6.732   3.201   1.711 -0.7258 -0.0712 -0.6479
12175TIP3    H257941   6.636   3.121   1.796  0.2882  1.5991  2.1993
12176TIP3   OH257942   2.001   4.261   5.696  0.0498  0.3473 -0.2505
12176TIP3    H157943   2.090   4.259   5.733 -0.7434  0.1977  1.7867
12176TIP3    H257944   1.987   4.352   5.672  0.1360  0.7527  1.1335
12177TIP3   OH257945   5.489   5.264   1.132 -0.1602 -0.1920  0.5250
12177TIP3    H157946   5.504   5.172   1.108  1.7132  0.2120 -0.0147
12177TIP3    H257947   5.557   5.283   1.197 -0.2127  0.9467  0.2685
12178TIP3   OH257948   0.216   0.105   5.729 -0.7129  0.2055  0.4488
12178TIP3    H157949   0.246   0.100   5.819  3.1355 -0.2744 -0.6888
12178TIP3    H257950   0.231   0.196   5.703 -1.0531  0.1558  0.0587
12179TIP3   OH257951   5.551   6.455   3.509 -0.2188  0.3493 -0.3867
12179TIP3    H157952   5.587   6.381   3.460  0.8175 -0.4312  1.4089
12179TIP3    H257953   5.592   6.532   3.470 -2.2014  0.1746 -3.0561
12180TIP3   OH257954   4.192   2.918   2.662  0.0110 -0.1268 -0.4160
12180TIP3    H157955   4.227   2.870   2.587  1.2319  0.2029 -0.0734
12180TIP3    H257956   4.149   2.852   2.715  0.6856 -0.6569 -0.5235
12181TIP3   OH257957   0.096   0.001   4.379 -0.0402 -0.1785 -0.4453
12181TIP3    H157958   0.024   0.005   4.441 -0.4254 -0.9382 -0.8303
12181TIP3    H257959   0.174  -0.011   4.434 -0.4934 -1.9664 -0.1378
12182TIP3   OH257960   4.478   5.490   5.158  0.6276  0.0236  0.3454
12182TIP3    H157961   4.424   5.564   5.185 -1.0408 -0.9251 -0.2651
12182TIP3    H257962   4.540   5.527   5.095 -1.5116  0.6133 -1.5538
12183TIP3   OH257963   6.678   2.014   3.741  0.1719  0.1219  0.8270
12183TIP3    H157964   6.697   2.026   3.648  1.6818 -0.9503  0.9592
12183TIP3    H257965   6.714   2.092   3.783  0.5451  0.0581  0.6279
12184TIP3   OH257966   3.589   6.090  11.505  0.0999  0.3220 -0.0157
12184TIP3    H157967   3.509   6.142  11.498  0.2458  0.4762 -0.5354
12184TIP3    H257968   3.652   6.150  11.546  0.1663  0.4436 -0.2942
12185TIP3   OH257969   5.471   1.349   3.474 -0.1452  0.0553  0.3630
12185TIP3    H157970   5.503   1.433   3.506  1.9441 -0.2516 -0.7893
12185TIP3    H257971   5.392   1.332   3.527  0.5338  1.7340  2.0325
12186TIP3   OH257972   3.301   2.247  11.540 -0.7135  0.3590 -0.3708
12186TIP3    H157973   3.366   2.287  11.482 -0.0740 -0.2438 -0.0840
12186TIP3    H257974   3.295   2.307  11.614 -1.2007  0.9044 -0.8424
12187TIP3   OH257975   5.128   1.854  13.481  0.3244 -0.3378 -0.2306
12187TIP3    H157976   5.069   1.843  13.555  1.0422 -1.3739  0.2078
12187TIP3    H257977   5.069   1.864  13.406 -0.4087 -0.2298  0.3446
12188TIP3   OH257978   3.827   1.534   5.311 -0.0195 -0.2736 -0.1194
12188TIP3    H157979   3.875   1.480   5.373  1.8608  1.8026  0.3631
12188TIP3    H257980   3.892   1.561   5.247 -0.4422  2.5977  0.5061
12189TIP3   OH257981   6.495   5.598   2.920  0.0232 -0.0609 -0.1938
12189TIP3    H157982   6.450   5.521   2.886 -0.2852 -0.9921  2.1431
12189TIP3    H257983   6.428   5.644   2.971  0.5818  0.9651 -0.3610
12190TIP3   OH257984   2.093   4.979   0.984 -0.6941  0.3069  0.2742
12190TIP3    H157985   2.080   4.887   1.006  4.0235 -0.9258 -0.7901
12190TIP3    H257986   2.154   4.977   0.910  1.0096  4.2490  1.2860
12191TIP3   OH257987   0.090   0.952   3.263 -0.2265 -0.4206 -0.0449
12191TIP3    H157988   0.145   0.875   3.252 -1.3502 -1.4317  1.0879
12191TIP3    H257989   0.107   0.981   3.353 -1.9596 -1.1590  0.5776
12192TIP3   OH257990   0.658   2.977  11.375 -0.0625 -0.1273 -0.5535
12192TIP3    H157991   0.745   2.992  11.338 -0.2053  0.6982 -0.5695
12192TIP3    H257992   0.613   3.061  11.366 -0.0555  0.1695  1.6231
12193TIP3   OH257993   5.596   3.328   4.626 -0.0791 -0.0117  0.2250
12193TIP3    H157994   5.612   3.264   4.696 -2.4953 -0.0071  0.8843
12193TIP3    H257995   5.523   3.291   4.577 -2.2862  2.6484  1.2685
12194TIP3   OH257996   0.996   6.142  13.489 -0.3327  0.2619  0.0527
12194TIP3    H157997   1.068   6.124  13.549 -1.9596  0.9805  2.4038
12194TIP3    H257998   0.984   6.061  13.441  1.0934 -0.3378  0.6518
12195TIP3   OH257999   5.991   3.445  14.453 -0.1058 -0.4998 -0.2894
12195TIP3    H158000   6.041   3.526  14.443 -0.6587 -0.0350  0.5764
12195TIP3    H258001   5.918   3.468  14.511  1.4698 -2.3182  2.6747
12196TIP3   OH258002   1.809   6.546  15.155  0.2688 -0.2569 -0.3455
12196TIP3    H158003   1.761   6.628  15.145 -0.5061 -0.9084 -2.5270
12196TIP3    H258004   1.750   6.479  15.120  1.3944 -1.5669  0.1574
12197TIP3   OH258005   0.728   6.747  12.876 -0.1907 -0.0061 -0.0464
12197TIP3    H158006   0.748   6.755  12.969  0.4913 -1.7777 -0.0045
12197TIP3    H258007   0.739   6.654  12.857  2.2451  0.6403 -2.4301
12198TIP3   OH258008   0.891   0.215   5.382  0.4737  0.6910 -0.7466
12198TIP3    H158009   0.863   0.303   5.358  0.9381  1.1054  0.1919
12198TIP3    H258010   0.952   0.227   5.455  0.0976 -0.4290 -0.2044
12199TIP3   OH258011   4.688   4.738  14.299 -0.0297  0.0480 -0.2767
12199TIP3    H158012   4.608   4.710  14.253  0.0249  0.5350 -0.6703
12199TIP3    H258013   4.656   4.796  14.368 -0.1281 -0.8293  0.4323
12200TIP3   OH258014   5.715   1.926   1.918  0.0348 -0.1302  0.4894
12200TIP3    H158015   5.796   1.976   1.933 -1.1798  1.9103  0.6086
12200TIP3    H258016   5.716   1.907   1.824 -1.0035  3.1467 -0.3222
12201TIP3   OH258017   5.371   0.330  14.833  0.1238  0.2143 -0.3329
12201TIP3    H158018   5.416   0.409  14.864  1.5359 -0.7682  0.2580
12201TIP3    H258019   5.407   0.260  14.887 -0.8545 -0.8885 -1.0715
12202TIP3   OH258020   5.347   2.997   6.475 -0.4177  0.0552  0.4074
12202TIP3    H158021   5.417   3.047   6.433 -0.1882 -0.8999 -0.3855
12202TIP3    H258022   5.393   2.930   6.526 -0.7179 -1.9536 -1.8152
12203TIP3   OH258023   2.002   3.110   1.218  0.0913  0.4697  0.1836
12203TIP3    H158024   2.028   3.107   1.310  0.6238  0.2000  0.0292
12203TIP3    H258025   2.041   3.031   1.179  1.5949  1.6013 -0.7048
12204TIP3   OH258026   4.689   3.306   0.576 -0.1196  0.3602 -0.3579
12204TIP3    H158027   4.691   3.298   0.480 -0.4360  0.3566 -0.3660
12204TIP3    H258028   4.779   3.329   0.600 -0.3880  2.0050 -0.8103
12205TIP3   OH258029   0.265   0.929  11.815  0.0871 -0.3549  0.4279
12205TIP3    H158030   0.298   1.017  11.833  1.5666 -0.8575  0.2857
12205TIP3    H258031   0.324   0.871  11.864 -0.8342 -1.2786  0.4786
12206TIP3   OH258032   2.086   1.779  13.908 -0.0695 -0.0310  0.1833
12206TIP3    H158033   2.135   1.745  13.833 -0.1505 -1.2577  0.6524
12206TIP3    H258034   2.154   1.804  13.971 -0.0074  0.6639 -0.1590
12207TIP3   OH258035   5.113   0.834  16.289 -0.5184  0.0193 -0.0738
12207TIP3    H158036   5.113   0.814  16.382  0.8508 -1.0222 -0.2704
12207TIP3    H258037   5.021   0.823  16.262 -0.8328 -0.1580  1.0410
12208TIP3   OH258038   4.278   3.331  12.002 -0.5585  0.0408 -0.3964
12208TIP3    H158039   4.371   3.350  12.010 -0.8021  1.1730  0.0209
12208TIP3    H258040   4.265   3.248  12.047  0.0352  0.5405  0.7286
12209TIP3   OH258041   3.478   3.444   2.717 -0.9750  0.0806 -0.4288
12209TIP3    H158042   3.425   3.444   2.637 -0.6717 -1.9224 -0.7032
12209TIP3    H258043   3.550   3.503   2.698  0.1088 -1.7311 -2.4267
12210TIP3   OH258044   2.555   3.642   0.209  0.0576 -0.0164 -0.0420
12210TIP3    H158045   2.495   3.645   0.134  2.4163  1.8821 -2.0082
12210TIP3    H258046   2.589   3.552   0.209  0.1151 -0.0100 -1.3444
12211TIP3   OH258047   5.886   5.457   1.413  0.5463 -0.4029  0.3127
12211TIP3    H158048   5.852   5.475   1.501 -0.4146  0.5467 -0.2345
12211TIP3    H258049   5.951   5.526   1.398  0.2802 -0.2084  0.0500
12212TIP3   OH258050   5.213   0.981  16.010 -0.0965  0.1803 -0.0334
12212TIP3    H158051   5.192   1.008  16.099 -0.9112 -0.6790  0.0488
12212TIP3    H258052   5.152   0.909  15.991  1.8568 -1.5107 -0.2848
12213TIP3   OH258053   6.472   4.621   5.974  0.7486  0.0491 -0.2374
12213TIP3    H158054   6.430   4.567   6.041  2.2863  1.1771  1.7483
12213TIP3    H258055   6.456   4.574   5.892  0.4106 -2.4095  1.1356
12214TIP3   OH258056   3.874   2.649  14.607  0.3650  0.4377  0.1430
12214TIP3    H158057   3.923   2.634  14.526  1.8170  1.2064  0.8219
12214TIP3    H258058   3.793   2.601  14.596  0.4320  0.6984 -1.8568
12215TIP3   OH258059   5.021   3.264   4.759  0.0829 -0.4610  0.0401
12215TIP3    H158060   5.045   3.280   4.850  1.5134  2.9779 -0.8204
12215TIP3    H258061   4.925   3.254   4.762  0.0568 -0.1162  1.8456
12216TIP3   OH258062   4.879   4.345   4.878  0.0543 -0.8375 -0.3577
12216TIP3    H158063   4.798   4.333   4.928 -1.1713  0.2289 -1.9759
12216TIP3    H258064   4.903   4.257   4.849 -0.6076 -1.1527  0.0214
12217TIP3   OH258065   4.115   2.427  13.506 -0.2585 -0.1745  0.3599
12217TIP3    H158066   4.082   2.345  13.545 -0.0834 -0.9813 -1.0994
12217TIP3    H258067   4.060   2.440  13.429  2.7153 -1.6637 -2.2905
12218TIP3   OH258068   5.175   5.719  13.520  0.5002 -0.0245  0.2244
12218TIP3    H158069   5.168   5.644  13.578 -2.5902 -0.4313 -0.5147
12218TIP3    H258070   5.220   5.786  13.572 -0.7299 -0.8803  2.5262
12219TIP3   OH258071   1.156   4.771   7.173 -0.2329  0.2485  0.7830
12219TIP3    H158072   1.111   4.688   7.191  0.7056  0.0424  2.3437
12219TIP3    H258073   1.135   4.790   7.082 -1.6818 -0.9454  0.8288
12220TIP3   OH258074   2.875   0.236   2.631  0.2161 -0.1543  0.5561
12220TIP3    H158075   2.860   0.323   2.667 -0.6278  0.1699 -0.5307
12220TIP3    H258076   2.787   0.205   2.607  0.7772 -0.1768 -1.5938
12221TIP3   OH258077   5.439   5.416  14.157 -0.9056  0.2461 -0.4335
12221TIP3    H158078   5.424   5.474  14.232 -0.2851  0.5288 -0.5303
12221TIP3    H258079   5.352   5.407  14.117 -1.2490  0.0851  0.3178
12222TIP3   OH258080   5.496   5.936   0.688 -0.0297 -0.3499 -0.3844
12222TIP3    H158081   5.591   5.929   0.701  0.0580  0.5927 -0.3936
12222TIP3    H258082   5.483   6.027   0.662 -1.1284  0.0403  1.3579
12223TIP3   OH258083   6.156   6.501   0.289 -0.1826 -0.0232 -0.1790
12223TIP3    H158084   6.242   6.469   0.317 -0.8570 -1.2085  0.6658
12223TIP3    H258085   6.129   6.561   0.358  0.4975  1.4008 -1.0969
12224TIP3   OH258086   5.409   0.723  13.491  0.3656  0.0455 -0.0374
12224TIP3    H158087   5.481   0.714  13.428  1.1163  0.3498  0.7526
12224TIP3    H258088   5.331   0.736  13.438  0.8580 -0.5661 -0.9218
12225TIP3   OH258089   4.812   2.338  13.621 -0.2094 -0.2256 -0.0096
12225TIP3    H158090   4.815   2.337  13.525  1.6008  2.5893 -0.0894
12225TIP3    H258091   4.903   2.342  13.648 -0.6506 -1.6538  1.9304
12226TIP3   OH258092   5.227   3.752   3.101 -0.2068  0.5214  0.8095
12226TIP3    H158093   5.222   3.689   3.029  0.2884  0.5000  0.7878
12226TIP3    H258094   5.142   3.747   3.144 -0.4900  0.5145  0.2436
12227TIP3   OH258095   6.162   3.017  11.208 -0.1077  0.5661  0.2639
12227TIP3    H158096   6.203   3.100  11.184  0.8579  0.0476  0.0604
12227TIP3    H258097   6.109   2.993  11.132  1.2494 -0.0067 -0.5368
12228TIP3   OH258098   1.190   1.458  14.105  0.4140 -0.1873 -0.3462
12228TIP3    H158099   1.163   1.448  14.196  1.1354  0.1671 -0.0848
12228TIP3    H258100   1.110   1.484  14.059  0.0397 -0.3978  0.1747
12229TIP3   OH258101   3.078   5.012  12.729 -0.2433  0.4091 -0.2003
12229TIP3    H158102   3.013   4.960  12.682 -0.3515  0.3099  0.0607
12229TIP3    H258103   3.028   5.066  12.790 -0.1133  0.6489 -0.3028
12230TIP3   OH258104   3.325   0.050   0.092 -0.4872 -0.0199 -0.0586
12230TIP3    H158105   3.261   0.090   0.034  0.8666 -0.7126 -2.1416
12230TIP3    H258106   3.282   0.048   0.177 -3.2253 -0.4956 -1.3497
12231TIP3   OH258107   3.149   3.975   5.046  0.2639  0.4771  1.1523
12231TIP3    H158108   3.228   4.000   4.998 -1.3794  0.7888 -1.5694
12231TIP3    H258109   3.128   3.887   5.015 -0.2086  0.1911  2.2268
12232TIP3   OH258110   2.365   3.176  16.772 -0.7316 -0.1445 -0.3103
12232TIP3    H158111   2.310   3.248  16.801 -1.6815 -1.8038  2.3535
12232TIP3    H258112   2.393   3.133  16.853  3.0104 -0.5199 -1.6213
12233TIP3   OH258113   1.258   4.192  15.292 -0.2847  0.1471  0.5664
12233TIP3    H158114   1.285   4.123  15.353 -0.0145 -0.7012 -0.4897
12233TIP3    H258115   1.239   4.267  15.348  1.9771  0.0622  1.5738
12234TIP3   OH258116   1.653   0.166   3.142  0.3863 -0.1233  0.5947
12234TIP3    H158117   1.594   0.141   3.212 -0.3130  1.1681  0.4981
12234TIP3    H258118   1.602   0.155   3.062  0.0015  1.6276  0.5573
12235TIP3   OH258119   0.691   5.362   3.611  0.3996  0.4208  0.2742
12235TIP3    H158120   0.704   5.433   3.674 -1.3192  1.1896 -0.1590
12235TIP3    H258121   0.758   5.378   3.544  1.4606  0.3033  1.2740
12236TIP3   OH258122   5.324   2.116  11.531  0.0085 -0.8058 -0.2122
12236TIP3    H158123   5.348   2.065  11.609  0.5917 -2.2683 -1.2987
12236TIP3    H258124   5.405   2.124  11.481  0.6896  3.7567  1.1877
12237TIP3   OH258125   2.191   1.094   0.187 -0.1654 -0.4166  0.4404
12237TIP3    H158126   2.105   1.069   0.153  0.2016 -2.0119  0.6055
12237TIP3    H258127   2.248   1.094   0.110 -0.3058  0.7249  0.3167
12238TIP3   OH258128   4.244   3.375   0.055 -0.2755 -0.7362 -0.0074
12238TIP3    H158129   4.178   3.369  -0.014 -0.0067  0.2345 -0.3739
12238TIP3    H258130   4.249   3.469   0.075 -1.8615 -1.1297  2.8372
12239TIP3   OH258131   6.316   6.532   1.882  0.1436 -0.2715 -0.2677
12239TIP3    H158132   6.292   6.440   1.898  0.1322 -0.1056  0.7007
12239TIP3    H258133   6.316   6.572   1.968 -1.1108  0.9596 -0.8078
12240TIP3   OH258134   4.879   0.092   2.665 -0.4979  0.1288 -0.1273
12240TIP3    H158135   4.788   0.117   2.646 -0.5824 -1.5430 -2.3371
12240TIP3    H258136   4.875   0.048   2.750 -2.0404 -1.2127 -0.8493
12241TIP3   OH258137   4.968   4.341   6.511  0.3949 -0.2743 -0.9645
12241TIP3    H158138   5.049   4.333   6.560  1.0980 -1.4739 -2.2462
12241TIP3    H258139   4.903   4.295   6.564  0.6075  0.4046 -0.0942
12242TIP3   OH258140   5.493   4.864  12.286  0.1337  0.5287  0.0802
12242TIP3    H158141   5.405   4.885  12.320 -0.1281 -1.0890  0.4828
12242TIP3    H258142   5.530   4.949  12.262 -1.5429  1.2514 -0.1015
12243TIP3   OH258143   6.198   3.838  16.723 -0.1847 -0.5729  0.0645
12243TIP3    H158144   6.243   3.755  16.706 -0.9858 -0.8009 -1.0909
12243TIP3    H258145   6.268   3.903  16.730  0.3632 -1.0163 -1.0716
12244TIP3   OH258146   5.511   5.468   1.663 -0.2896  0.3299  0.0903
12244TIP3    H158147   5.560   5.495   1.585  1.1163  1.3453  1.2795
12244TIP3    H258148   5.435   5.526   1.664  0.1244  0.8841 -0.0675
12245TIP3   OH258149   3.372   3.197  12.457 -0.4710 -0.1263 -0.3982
12245TIP3    H158150   3.399   3.256  12.386  2.4954  1.5093  1.8306
12245TIP3    H258151   3.290   3.235  12.489 -0.6220  0.4875 -1.4410
12246TIP3   OH258152   0.934   4.466   2.196 -0.0353  0.3577 -0.4418
12246TIP3    H158153   0.918   4.452   2.102  2.5095 -0.0029 -0.9141
12246TIP3    H258154   0.993   4.395   2.221  1.4269  1.8824  0.7574
12247TIP3   OH258155   3.217   5.185   2.481 -0.3277  0.6339  0.2430
12247TIP3    H158156   3.301   5.223   2.506  0.0743 -1.4532  2.5514
12247TIP3    H258157   3.153   5.255   2.495  0.7869  1.6581  0.3700
12248TIP3   OH258158   3.610   6.713   5.683 -0.5605  0.1614 -0.1263
12248TIP3    H158159   3.704   6.695   5.687 -0.3304  1.5071  2.1054
12248TIP3    H258160   3.601   6.778   5.612  0.1491 -0.1123 -0.4761
12249TIP3   OH258161   1.952   4.780  12.929 -0.2455  0.1391 -0.4517
12249TIP3    H158162   2.000   4.743  12.854 -0.7092 -1.3123 -0.0615
12249TIP3    H258163   1.875   4.724  12.939 -1.1549  1.4143 -0.0048
12250TIP3   OH258164   4.466   0.121  11.433 -0.2244  0.2581  0.2490
12250TIP3    H158165   4.414   0.169  11.497  0.9552  1.5669  0.2672
12250TIP3    H258166   4.518   0.188  11.389 -0.1638 -0.7430 -1.3050
12251TIP3   OH258167   0.358   1.110   3.222  0.2856  0.2630  0.1022
12251TIP3    H158168   0.322   1.030   3.259 -0.1853 -0.0160 -0.9283
12251TIP3    H258169   0.408   1.081   3.146  0.6987  0.8863  0.1254
12252TIP3   OH258170   5.604   6.707   5.236  0.2104 -0.1840 -0.1868
12252TIP3    H158171   5.633   6.668   5.153  2.0739  0.6449  0.0236
12252TIP3    H258172   5.634   6.646   5.303  0.5134  0.1453 -0.0194
12253TIP3   OH258173   2.557   4.680  16.406  0.3068  0.1148 -0.2549
12253TIP3    H158174   2.499   4.748  16.438  0.3329  0.7769 -1.5609
12253TIP3    H258175   2.507   4.636  16.337  1.1278  0.3139 -0.9882
12254TIP3   OH258176   6.587   6.769   5.136 -0.2845  0.1577 -0.4372
12254TIP3    H158177   6.569   6.680   5.104  0.5140 -0.3519  0.4752
12254TIP3    H258178   6.500   6.806   5.152 -0.6249 -0.8338  0.1603
12255TIP3   OH258179   0.682   2.998  14.545 -0.1260 -0.0605  0.0294
12255TIP3    H158180   0.696   3.043  14.628  0.4552  3.7352 -1.9086
12255TIP3    H258181   0.666   3.068  14.482 -0.2689 -2.7117 -3.1682
12256TIP3   OH258182   0.463   3.330   5.759  0.6490 -0.0612  0.1676
12256TIP3    H158183   0.442   3.260   5.820 -0.0934  0.5085  0.5806
12256TIP3    H258184   0.558   3.338   5.764  0.6839 -0.6474  0.5452
12257TIP3   OH258185   4.381   4.603  13.485 -0.3290 -0.4719 -0.6937
12257TIP3    H158186   4.344   4.585  13.398  1.9155  0.6984 -1.9891
12257TIP3    H258187   4.450   4.538  13.495 -0.1184 -0.1576 -0.0931
12258TIP3   OH258188   1.545   0.639  14.457 -0.1940  0.3032 -0.7119
12258TIP3    H158189   1.508   0.660  14.543 -0.2902 -0.8898 -0.4477
12258TIP3    H258190   1.498   0.695  14.396 -0.7026  0.5738 -0.0844
12259TIP3   OH258191   2.187   2.254  11.889 -0.1646 -0.3315 -0.2192
12259TIP3    H158192   2.216   2.223  11.975 -2.3219  1.4657  1.2767
12259TIP3    H258193   2.108   2.202  11.870 -2.1928  2.0543  1.0242
12260TIP3   OH258194   4.925   4.793  14.527 -0.5183  0.0754  0.1302
12260TIP3    H158195   4.892   4.732  14.592 -0.6216 -0.4596 -0.4127
12260TIP3    H258196   4.853   4.801  14.464  0.2077 -0.7451 -0.8259
12261TIP3   OH258197   2.413   6.607  12.147 -0.2035 -0.6817  0.3943
12261TIP3    H158198   2.362   6.555  12.085 -2.3906 -0.3884  1.8253
12261TIP3    H258199   2.421   6.693  12.105 -0.2222 -0.9677 -0.1988
12262TIP3   OH258200   2.083   2.424   1.182 -0.6121  0.2960  0.1263
12262TIP3    H158201   2.136   2.503   1.196  1.0696 -0.7960  0.1053
12262TIP3    H258202   2.075   2.417   1.087 -0.3795  0.1932  0.1144
12263TIP3   OH258203   2.830   2.437   5.050 -0.8603 -0.0410  0.1314
12263TIP3    H158204   2.921   2.463   5.034 -1.4931  1.2686 -1.6785
12263TIP3    H258205   2.812   2.465   5.139  1.1982 -2.5433  1.4592
12264TIP3   OH258206   5.807   3.965  13.007 -0.1692  0.4200 -0.3790
12264TIP3    H158207   5.779   4.009  12.926  2.5323  1.6167 -0.7613
12264TIP3    H258208   5.777   4.023  13.077 -0.5126  0.5580 -0.6333
12265TIP3   OH258209   0.945   6.335   5.038  0.1835  0.7169  0.0367
12265TIP3    H158210   1.005   6.388   5.091 -0.0364  2.2892 -1.2204
12265TIP3    H258211   1.001   6.289   4.976  0.1326  2.0164 -0.9946
12266TIP3   OH258212   1.987   4.664  12.152 -0.0067  0.3567  0.4140
12266TIP3    H158213   1.973   4.725  12.224  1.7524  0.7846  0.4368
12266TIP3    H258214   1.959   4.713  12.074 -0.4582  0.4594  0.6375
12267TIP3   OH258215   3.205   1.038   4.502  0.3624  0.4257 -0.3737
12267TIP3    H158216   3.299   1.045   4.516  0.4282  1.3538 -1.1511
12267TIP3    H258217   3.169   1.120   4.536 -0.1804  0.0536 -0.0264
12268TIP3   OH258218   3.660   5.239  11.118  0.1310 -0.1940 -0.3822
12268TIP3    H158219   3.618   5.244  11.204  1.5698 -1.2961  0.4277
12268TIP3    H258220   3.712   5.318  11.112 -0.4833  0.2037 -0.5280
12269TIP3   OH258221   2.152   4.646  14.122  0.3328 -1.0955 -0.0850
12269TIP3    H158222   2.102   4.726  14.137  0.8650 -0.8698  0.5406
12269TIP3    H258223   2.087   4.576  14.123  0.1266 -0.9366  1.8762
12270TIP3   OH258224   4.177   5.498   3.084 -0.5309  0.2979 -0.0021
12270TIP3    H158225   4.245   5.434   3.061 -0.0020  1.0043 -0.4264
12270TIP3    H258226   4.116   5.496   3.011  0.5923  1.7771 -1.0224
12271TIP3   OH258227   1.995   2.062   1.155 -0.1403 -0.5220  0.8043
12271TIP3    H158228   2.071   2.020   1.195 -0.5530 -1.2472  0.8331
12271TIP3    H258229   1.921   2.007   1.179 -0.4641 -0.7317 -0.5750
12272TIP3   OH258230   5.171   5.451  13.615  0.1248  0.5155  0.6594
12272TIP3    H158231   5.154   5.362  13.644 -1.6591  1.0585  1.4111
12272TIP3    H258232   5.117   5.506  13.671  2.4195  2.2532  1.3395
12273TIP3   OH258233   5.826   3.979   1.346 -0.4090  0.0009 -0.0857
12273TIP3    H158234   5.909   3.968   1.392  1.8011  0.4560 -3.5279
12273TIP3    H258235   5.816   3.898   1.296 -2.2610 -0.1597  0.4910
12274TIP3   OH258236   1.540   2.539  14.488  0.1854 -0.0170 -0.0409
12274TIP3    H158237   1.581   2.510  14.406 -0.6516 -0.0049 -0.4727
12274TIP3    H258238   1.565   2.631  14.496  0.4369 -0.0721 -0.1770
12275TIP3   OH258239   5.331   1.481  16.333  0.1453  0.5533  0.2664
12275TIP3    H158240   5.403   1.419  16.322  1.9007  2.3703  0.9350
12275TIP3    H258241   5.293   1.489  16.246  1.5619  0.4963 -0.3945
12276TIP3   OH258242   2.769   6.599   3.949 -0.2378  0.0308  0.5061
12276TIP3    H158243   2.780   6.692   3.969  1.1401  0.2379 -1.0083
12276TIP3    H258244   2.690   6.596   3.895 -1.4030  0.0319  2.1375
12277TIP3   OH258245   2.765   2.294  11.447 -0.3883 -0.0966 -0.2564
12277TIP3    H158246   2.774   2.213  11.497  0.9597  1.3271  1.9462
12277TIP3    H258247   2.845   2.300  11.396 -1.0219 -0.6981 -1.3705
12278TIP3   OH258248   6.768   2.175  14.707 -0.4509 -0.9837 -0.1414
12278TIP3    H158249   6.768   2.181  14.802 -0.2605 -2.2848 -0.0418
12278TIP3    H258250   6.857   2.199  14.681 -0.7948  0.4523 -0.1001
12279TIP3   OH258251   1.628   4.738  16.908  0.3110 -0.7171 -1.0220
12279TIP3    H158252   1.607   4.811  16.967 -0.6992 -1.2551 -0.6908
12279TIP3    H258253   1.687   4.776  16.843 -0.4188  0.4716 -1.0236
12280TIP3   OH258254   2.121   2.686   1.782 -0.1761  0.5542 -0.7287
12280TIP3    H158255   2.144   2.763   1.730  1.7839  0.1708 -0.5139
12280TIP3    H258256   2.032   2.663   1.753 -0.8795  2.9632 -0.6711
12281TIP3   OH258257   3.746   3.627   1.337 -0.1968 -0.6331  0.3883
12281TIP3    H158258   3.734   3.659   1.248  3.4392  1.2242  0.3639
12281TIP3    H258259   3.700   3.690   1.392 -2.7916 -2.0018 -0.0342
12282TIP3   OH258260   6.164   6.289  13.976 -0.1880  0.6388 -0.3801
12282TIP3    H158261   6.171   6.200  14.010 -1.2677 -0.2593 -2.3314
12282TIP3    H258262   6.093   6.329  14.026 -0.4386  0.0151 -0.2316
12283TIP3   OH258263   0.443   5.603  14.410  0.1729 -0.4097 -0.1198
12283TIP3    H158264   0.391   5.569  14.337 -1.8075  1.1333  0.4810
12283TIP3    H258265   0.455   5.528  14.468 -1.5658 -0.7953 -0.2078
12284TIP3   OH258266   2.757   5.346   5.932  0.0426  0.3725  0.2893
12284TIP3    H158267   2.833   5.293   5.957  0.0501  0.3008  0.1196
12284TIP3    H258268   2.794   5.429   5.902  0.1958 -0.2752 -1.4568
12285TIP3   OH258269   0.867   0.984  14.782  0.0888 -0.1325  0.4908
12285TIP3    H158270   0.934   0.918  14.799  0.8749  1.3273  4.0463
12285TIP3    H258271   0.902   1.038  14.711  1.7503 -0.6040  0.9212
12286TIP3   OH258272   5.519   5.447   4.531 -0.1720  0.4184 -0.1493
12286TIP3    H158273   5.515   5.417   4.622 -1.0614  3.4214  0.9411
12286TIP3    H258274   5.462   5.387   4.483 -0.7446 -0.4569  1.5340
12287TIP3   OH258275   0.813   1.080  12.660  0.1191  0.1923  0.9132
12287TIP3    H158276   0.790   1.118  12.575 -1.4634  1.9503  2.0558
12287TIP3    H258277   0.907   1.099  12.669  0.4444 -0.5008 -0.6406
12288TIP3   OH258278   0.687   4.586  11.379  0.1327  0.1919  0.6088
12288TIP3    H158279   0.632   4.664  11.376 -1.0478 -0.5169  2.3556
12288TIP3    H258280   0.769   4.612  11.336 -1.2931  1.4500 -1.5172
12289TIP3   OH258281   5.387   6.743  15.589 -0.0683 -0.3009  0.5205
12289TIP3    H158282   5.364   6.779  15.503 -2.1402 -0.8391  0.7993
12289TIP3    H258283   5.350   6.655  15.589 -0.6458 -0.0952  2.1638
12290TIP3   OH258284   2.706   6.261  14.403  0.8791 -0.0716  0.1362
12290TIP3    H158285   2.627   6.304  14.438  1.6826  1.1291  0.5638
12290TIP3    H258286   2.751   6.330  14.354  1.6149 -0.7572 -0.1730
12291TIP3   OH258287   6.239   5.108   4.096  0.0969  0.5608  0.6525
12291TIP3    H158288   6.173   5.159   4.049  1.2764  1.0906 -0.4849
12291TIP3    H258289   6.272   5.169   4.162 -1.7124 -0.2500  2.4306
12292TIP3   OH258290   5.853   5.334   0.946 -0.2448  0.9180  0.0923
12292TIP3    H158291   5.824   5.379   1.026  2.3744  0.0722  1.6433
12292TIP3    H258292   5.946   5.355   0.939  0.3708 -1.7003 -0.8597
12293TIP3   OH258293   5.967   4.384  13.981  0.6251  0.1861 -0.1492
12293TIP3    H158294   5.946   4.477  13.987 -0.4853 -0.0893  0.4296
12293TIP3    H258295   5.947   4.349  14.068  2.8267 -0.2558  0.2409
12294TIP3   OH258296   0.111   3.801  13.555 -0.1725  0.2664 -0.0726
12294TIP3    H158297   0.017   3.784  13.563 -0.5039  1.8985 -0.0758
12294TIP3    H258298   0.121   3.840  13.468  0.7301 -1.0450 -0.5931
12295TIP3   OH258299   3.631   5.257  17.092  0.4352 -0.2759  0.2248
12295TIP3    H158300   3.639   5.258  17.188 -2.4211 -1.5753  0.5982
12295TIP3    H258301   3.692   5.190  17.063  0.6658 -0.5373  1.2577
12296TIP3   OH258302   5.107   4.645   1.770 -0.1479 -0.7652 -0.0713
12296TIP3    H158303   5.176   4.579   1.775  0.6725  0.0470 -0.4402
12296TIP3    H258304   5.130   4.699   1.694 -1.4577 -0.7753 -0.5051
12297TIP3   OH258305   4.607   5.801  13.442  0.4826  0.5678  0.0520
12297TIP3    H158306   4.566   5.758  13.516  0.4173 -0.1285 -0.3744
12297TIP3    H258307   4.548   5.785  13.368  0.8564  0.7008 -0.2853
12298TIP3   OH258308   1.429   3.897   4.808  0.5090 -0.2365  0.0677
12298TIP3    H158309   1.381   3.818   4.832  0.2214  0.7392  3.0517
12298TIP3    H258310   1.438   3.946   4.890  2.5907  1.8061 -1.2552
12299TIP3   OH258311   2.668   6.239   2.878  0.5099 -0.2074 -0.0827
12299TIP3    H158312   2.672   6.325   2.918 -0.6413 -0.7763  1.3214
12299TIP3    H258313   2.757   6.204   2.885  0.4989  0.0201  1.2763
12300TIP3   OH258314   6.273   2.993   1.366 -0.4871 -0.1314  0.4318
12300TIP3    H158315   6.266   2.902   1.394 -3.5386  0.6884  2.9270
12300TIP3    H258316   6.318   3.037   1.438  1.1514  0.3904 -0.8428
12301TIP3   OH258317   6.752   0.324  14.403  0.0570  0.2957 -0.5526
12301TIP3    H158318   6.690   0.283  14.464  0.9543 -0.6392 -0.2351
12301TIP3    H258319   6.838   0.298  14.436  0.5789 -1.4348 -2.9988
12302TIP3   OH258320   3.050   0.577  10.617 -0.5174  0.2936  0.6314
12302TIP3    H158321   3.143   0.553  10.611 -1.0007 -1.5259 -0.4003
12302TIP3    H258322   3.050   0.673  10.622  1.4564  0.2773  2.0971
12303TIP3   OH258323   5.752   0.108   3.546  0.1320  0.2486  0.6049
12303TIP3    H158324   5.803   0.097   3.465  1.2287  0.3676  1.2570
12303TIP3    H258325   5.725   0.200   3.544  0.6448  0.4073  0.6341
12304TIP3   OH258326   0.917   5.216   4.234  0.7753 -0.1344 -0.2781
12304TIP3    H158327   0.825   5.188   4.238  1.1731 -1.4500  0.3181
12304TIP3    H258328   0.966   5.134   4.233  1.9292  0.5239 -1.8162
12305TIP3   OH258329   3.605   1.060  13.621 -0.7825  0.2202 -0.4092
12305TIP3    H158330   3.595   1.137  13.677  0.1861  0.2964 -0.3154
12305TIP3    H258331   3.565   1.084  13.538  1.2940  1.6045 -1.0770
12306TIP3   OH258332   2.281   6.324  11.210  0.2395 -0.0395  0.3326
12306TIP3    H158333   2.276   6.401  11.268  0.8803 -0.6391  1.2159
12306TIP3    H258334   2.260   6.358  11.123 -2.4781  0.5656  1.1578
12307TIP3   OH258335   0.588   6.310   3.334 -0.3218 -0.3002 -0.3828
12307TIP3    H158336   0.640   6.389   3.318  1.2946 -0.9264  1.3610
12307TIP3    H258337   0.506   6.342   3.370 -1.2124  0.7154 -3.0478
12308TIP3   OH258338   5.958   6.497  16.557 -0.9695 -0.1559 -0.0585
12308TIP3    H158339   5.893   6.518  16.624 -1.7002  0.5777 -0.9721
12308TIP3    H258340   6.039   6.486  16.605 -1.1375  1.9309  0.8205
12309TIP3   OH258341   5.981   0.554   1.149 -0.1318  0.4815  0.2825
12309TIP3    H158342   5.897   0.555   1.103  0.4182  1.1775 -0.7465
12309TIP3    H258343   6.026   0.633   1.119  0.5564  0.5645  1.4687
12310TIP3   OH258344   0.952   3.230  17.212 -0.7029 -0.0912 -0.6918
12310TIP3    H158345   0.959   3.308  17.266 -0.3353 -1.0834  0.7597
12310TIP3    H258346   1.024   3.238  17.150  0.4264 -0.0936  0.5717
12311TIP3   OH258347   4.220   2.721  14.232 -0.0930  0.5657 -0.3131
12311TIP3    H158348   4.182   2.805  14.260 -0.5322  0.1208  0.4675
12311TIP3    H258349   4.277   2.696  14.304  1.5563  1.1112 -1.3750
12312TIP3   OH258350   3.011   5.657  13.286  0.2343  0.3246  0.0599
12312TIP3    H158351   3.025   5.627  13.196  1.9689 -1.7804  0.9334
12312TIP3    H258352   3.044   5.585  13.340  0.1280  1.9298  2.3878
12313TIP3   OH258353   4.004   0.603   6.086 -0.1412 -0.4188 -0.0117
12313TIP3    H158354   4.016   0.607   5.991 -0.6521 -0.0703 -0.0685
12313TIP3    H258355   4.044   0.684   6.118  1.4051 -1.2345  0.2467
12314TIP3   OH258356   2.836   5.195   6.209 -0.3267 -0.2830  0.0118
12314TIP3    H158357   2.775   5.249   6.259  1.2611  0.0773  1.6438
12314TIP3    H258358   2.816   5.105   6.235 -0.5450 -0.2111  0.0911
12315TIP3   OH258359   5.019   6.371   4.428 -0.0139  0.2538 -0.2053
12315TIP3    H158360   5.082   6.442   4.417  0.1513  0.3073  0.9749
12315TIP3    H258361   4.940   6.414   4.461  1.0194 -0.3665  3.5203
12316TIP3   OH258362   4.952   1.113  14.671  0.0452 -0.0016  0.7012
12316TIP3    H158363   5.009   1.050  14.626  1.0604  0.2805  1.5469
12316TIP3    H258364   4.965   1.195  14.622  0.6761  0.1528  1.1059
12317TIP3   OH258365   2.393   6.702  12.807 -0.2554  0.0677 -0.4939
12317TIP3    H158366   2.344   6.769  12.854  1.8914  0.2716  1.6641
12317TIP3    H258367   2.403   6.631  12.870  2.4148  0.1811 -0.6565
12318TIP3   OH258368   1.710   1.198   4.053 -0.3783 -0.1214 -0.2040
12318TIP3    H158369   1.756   1.143   4.116  1.0578 -0.4172 -1.4475
12318TIP3    H258370   1.727   1.156   3.968 -3.4521 -0.5791 -0.7223
12319TIP3   OH258371   1.843   0.333   0.252 -0.1115  0.0951  0.5741
12319TIP3    H158372   1.910   0.377   0.306  0.2730 -0.1880  0.3344
12319TIP3    H258373   1.802   0.271   0.312 -1.0238  1.1414  1.0579
12320TIP3   OH258374   2.381   5.322  12.845  0.2839 -0.0165  0.4409
12320TIP3    H158375   2.339   5.367  12.772  1.5365 -0.5639 -0.6360
12320TIP3    H258376   2.317   5.329  12.916 -0.7948  0.8595 -0.5695
12321TIP3   OH258377   2.041   5.028   0.216  0.5297  0.4281 -0.2318
12321TIP3    H158378   1.991   4.968   0.161  0.1250  0.2510  0.3212
12321TIP3    H258379   2.072   5.095   0.155  2.3397 -1.1429 -1.1742
12322TIP3   OH258380   0.354   3.957   6.540  0.2792 -0.3932  0.0249
12322TIP3    H158381   0.269   3.924   6.511 -0.6639 -0.1467  2.2988
12322TIP3    H258382   0.352   3.948   6.635  2.7187 -0.1214  0.1608
12323TIP3   OH258383   1.407   1.028   0.080  0.3742  0.1747  0.4510
12323TIP3    H158384   1.453   0.951   0.049  1.1506  0.7492  0.1353
12323TIP3    H258385   1.323   0.995   0.112  0.3290 -0.6722 -0.5028
12324TIP3   OH258386   5.433   1.411  15.352 -0.4542  0.0909 -0.4184
12324TIP3    H158387   5.467   1.332  15.309 -0.2714 -0.8031  1.2998
12324TIP3    H258388   5.459   1.402  15.443  0.8710  2.8729 -0.4180
12325TIP3   OH258389   0.007   0.925  13.140  0.0758  0.2368  0.1619
12325TIP3    H158390   0.028   0.831  13.143  0.2675  0.3012  1.1976
12325TIP3    H258391  -0.089   0.927  13.145 -0.0182  0.0704 -1.1086
12326TIP3   OH258392   1.772   1.311   4.488 -0.1532 -0.1696 -0.0386
12326TIP3    H158393   1.827   1.389   4.492 -0.5877  0.1062  0.9551
12326TIP3    H258394   1.739   1.309   4.398  0.0180  0.6938 -0.1307
12327TIP3   OH258395   5.348   3.416  13.585  0.0715  0.0897  0.2265
12327TIP3    H158396   5.415   3.415  13.653  3.1664 -1.3294 -2.5820
12327TIP3    H258397   5.316   3.326  13.581 -0.1916  0.1955 -0.0858
12328TIP3   OH258398   2.957   4.367  14.575  0.7486  0.2374 -0.4136
12328TIP3    H158399   2.865   4.390  14.586  0.0697 -2.2639 -0.3241
12328TIP3    H258400   2.990   4.358  14.665  0.7841  0.0953 -0.4403
12329TIP3   OH258401   6.534   4.435   3.149  0.5748 -0.2221  0.7326
12329TIP3    H158402   6.547   4.520   3.108  1.2436 -0.4023  0.5539
12329TIP3    H258403   6.465   4.393   3.097 -0.6687  0.6811  1.5800
12330TIP3   OH258404   3.233   0.562  15.463 -0.4413  0.5634 -0.4977
12330TIP3    H158405   3.307   0.611  15.497 -0.6881  0.0995  0.7535
12330TIP3    H258406   3.175   0.629  15.425  0.4437  0.9534 -1.1910
12331TIP3   OH258407   5.816   2.668   1.926 -0.5943 -0.2122 -0.1072
12331TIP3    H158408   5.751   2.664   1.856  0.3324 -0.2494 -0.9758
12331TIP3    H258409   5.860   2.583   1.923  0.1348  0.1646 -0.1440
12332TIP3   OH258410   4.813   4.734   2.992  0.3625 -0.5891  0.4688
12332TIP3    H158411   4.815   4.678   2.915  0.4911  1.8193 -1.3825
12332TIP3    H258412   4.720   4.741   3.014 -0.3073  2.4691 -2.5327
12333TIP3   OH258413   3.946   6.438   0.415 -0.7811  0.1485  0.0800
12333TIP3    H158414   3.967   6.348   0.440 -0.1279  0.2406 -0.1180
12333TIP3    H258415   3.932   6.434   0.320  3.9961  1.0120 -0.9232
12334TIP3   OH258416   5.019   1.251  16.260  0.9616  0.6372  0.4896
12334TIP3    H158417   4.936   1.295  16.243  0.3772 -0.1784  1.1319
12334TIP3    H258418   5.014   1.170  16.209  2.3496  1.6149 -1.3077
12335TIP3   OH258419   4.067   5.150   0.267  0.5241  0.6858 -1.1616
12335TIP3    H158420   4.010   5.227   0.263  1.2208  1.2727 -0.2811
12335TIP3    H258421   4.093   5.135   0.177 -1.9324 -0.3205 -1.7780
12336TIP3   OH258422   3.007   2.188  11.563 -0.4562 -0.2814  0.2031
12336TIP3    H158423   2.999   2.094  11.546  1.1906 -1.4717  4.5809
12336TIP3    H258424   3.094   2.211  11.530 -0.8610 -0.2079 -0.8724
12337TIP3   OH258425   1.501   5.280   3.950 -0.5605 -0.5360 -0.6473
12337TIP3    H158426   1.411   5.281   3.984 -0.4096 -0.8953 -0.2215
12337TIP3    H258427   1.555   5.268   4.028  0.2039  4.2014 -0.1687
12338TIP3   OH258428   5.253   4.061   4.597 -0.0514 -0.0893 -0.0985
12338TIP3    H158429   5.337   4.015   4.587 -0.9782 -1.8944 -0.1177
12338TIP3    H258430   5.189   4.000   4.560 -1.3404  1.4148 -0.4121
12339TIP3   OH258431   4.624   0.728  15.358 -0.4591 -0.1414  0.0997
12339TIP3    H158432   4.564   0.802  15.353 -0.6414 -0.2532  0.6497
12339TIP3    H258433   4.682   0.748  15.431 -0.8063 -0.7577  0.5488
12340TIP3   OH258434   2.088   2.156  14.659 -0.2768 -0.2232  0.6070
12340TIP3    H158435   2.001   2.130  14.689 -0.2063 -0.3639  0.6932
12340TIP3    H258436   2.138   2.074  14.658 -0.0126 -0.0744  1.0070
12341TIP3   OH258437   1.632   2.666  11.450 -0.0547 -0.4111 -0.1651
12341TIP3    H158438   1.565   2.675  11.382  0.2643  0.8524 -0.3319
12341TIP3    H258439   1.714   2.688  11.406  0.1704  0.3059  0.5885
12342TIP3   OH258440   4.286   4.634  15.352 -0.4662 -0.0641  0.2792
12342TIP3    H158441   4.301   4.548  15.312 -3.1858 -1.1633  1.3537
12342TIP3    H258442   4.371   4.660  15.386  0.6245 -1.8969 -0.9004
12343TIP3   OH258443   0.004   5.371  14.909 -0.1866  0.3030  0.2140
12343TIP3    H158444  -0.003   5.278  14.932 -0.8300  0.3530  0.2331
12343TIP3    H258445   0.039   5.371  14.820 -0.2448  0.0419  0.1903
12344TIP3   OH258446   5.397   1.086   5.010  0.2467  0.1249  0.0214
12344TIP3    H158447   5.343   1.013   4.977  0.8589 -0.4326  0.2277
12344TIP3    H258448   5.404   1.146   4.935  0.2096 -0.3021 -0.3311
12345TIP3   OH258449   2.030   5.162   5.430  0.5712 -0.0644  0.5401
12345TIP3    H158450   1.952   5.202   5.390  0.1496 -1.5375 -0.1945
12345TIP3    H258451   1.999   5.079   5.465  2.3590 -2.4351 -2.8662
12346TIP3   OH258452   5.686   2.014   1.166  0.7305  0.7247 -0.2398
12346TIP3    H158453   5.656   1.937   1.216  1.1373  1.2303  0.8096
12346TIP3    H258454   5.764   1.983   1.120  1.2203  0.6532  0.6246
12347TIP3   OH258455   4.103   1.439  13.164 -0.0952  0.5137  0.3624
12347TIP3    H158456   4.129   1.531  13.165 -1.1346  0.8423 -0.5325
12347TIP3    H258457   4.080   1.422  13.072 -1.5012 -0.1678  0.8128
12348TIP3   OH258458   4.935   0.340  11.208 -0.2211 -0.1780  0.3567
12348TIP3    H158459   4.969   0.279  11.142 -2.1544 -2.7656  1.5651
12348TIP3    H258460   4.844   0.357  11.180  0.1263  1.8810  0.3088
12349TIP3   OH258461   4.854   3.181  14.944  0.2193  0.5857 -0.0155
12349TIP3    H158462   4.855   3.087  14.960  1.0358  0.6308  0.2994
12349TIP3    H258463   4.942   3.210  14.971 -0.1617  1.4949  0.2815
12350TIP3   OH258464   0.170   3.079  13.628  0.0228 -0.1956 -0.7782
12350TIP3    H158465   0.146   3.025  13.553  2.4908 -3.2018  0.4090
12350TIP3    H258466   0.174   3.019  13.702 -0.5129  2.3150  1.4693
12351TIP3   OH258467   5.346   1.142  12.861  0.1128  0.2290 -0.4886
12351TIP3    H158468   5.266   1.151  12.810 -0.3995 -0.2619  0.2226
12351TIP3    H258469   5.402   1.085  12.809 -1.2235 -2.0420  0.4263
12352TIP3   OH258470   1.832   6.611   3.874 -0.1174 -0.0761  0.5621
12352TIP3    H158471   1.740   6.638   3.877 -0.0588  0.1690  0.2159
12352TIP3    H258472   1.868   6.657   3.798  0.1726 -0.5529  0.4097
12353TIP3   OH258473   3.062   2.877   4.555  0.4453  0.3810 -0.6212
12353TIP3    H158474   3.124   2.947   4.533  2.6433 -1.1687  0.3631
12353TIP3    H258475   3.095   2.800   4.510  0.0291 -0.8063  1.0378
12354TIP3   OH258476   4.768   0.842  14.692  0.2758 -0.2515 -0.3621
12354TIP3    H158477   4.697   0.865  14.632 -0.8148 -1.9662  0.2188
12354TIP3    H258478   4.846   0.878  14.650 -1.1301  4.0622  0.2726
12355TIP3   OH258479   1.608   0.508   1.129  0.2776  0.3579  0.2333
12355TIP3    H158480   1.525   0.544   1.098 -0.0178 -0.1820  0.3899
12355TIP3    H258481   1.640   0.572   1.193 -0.5188  0.0741  0.9276
12356TIP3   OH258482   1.692   2.430   1.066 -0.1253 -0.4570  0.7287
12356TIP3    H158483   1.633   2.460   1.135 -0.7784 -1.2052  0.5123
12356TIP3    H258484   1.690   2.335   1.073  0.7192 -0.5061  0.4274
12357TIP3   OH258485   2.831   3.930  14.657  0.6062 -0.4501  0.4395
12357TIP3    H158486   2.815   3.994  14.726  1.4501  0.4904 -0.1945
12357TIP3    H258487   2.893   3.868  14.696  0.4402 -0.4000  0.7887
12358TIP3   OH258488   1.430   3.040   1.271 -0.0131  0.7753 -0.4112
12358TIP3    H158489   1.405   3.129   1.293 -0.2603  1.1863 -2.1976
12358TIP3    H258490   1.524   3.044   1.254  0.3408  0.2925  1.2833
12359TIP3   OH258491   0.339   4.138   1.353 -0.8389 -0.2819 -0.4417
12359TIP3    H158492   0.369   4.196   1.284  2.4039 -1.4525 -0.2198
12359TIP3    H258493   0.273   4.188   1.400 -0.1310  2.1455 -1.8474
12360TIP3   OH258494   5.900   0.968   4.603  0.2902 -0.1276  0.1527
12360TIP3    H158495   5.808   0.995   4.609  0.8706  1.9334  0.3634
12360TIP3    H258496   5.904   0.917   4.522 -0.8306  0.6723 -0.4475
12361TIP3   OH258497   0.137   3.794  12.357 -0.1461  0.1418  0.4613
12361TIP3    H158498   0.186   3.712  12.355 -0.0489  0.1902  0.7740
12361TIP3    H258499   0.045   3.768  12.356 -0.1374  0.0642 -0.8858
12362TIP3   OH258500   4.893   3.817   6.068  0.6241 -0.1986  0.2975
12362TIP3    H158501   4.954   3.751   6.102  1.4324  0.7020  0.6506
12362TIP3    H258502   4.834   3.834   6.141 -0.5660 -1.6200 -0.2843
12363TIP3   OH258503   4.890   4.365   4.234  0.3975  0.4652 -0.1319
12363TIP3    H158504   4.900   4.296   4.168  1.4715 -0.7383  1.2260
12363TIP3    H258505   4.978   4.403   4.241  0.6296 -0.2800  1.4652
12364TIP3   OH258506   6.552   6.113   2.012  0.2700  0.1093 -0.1602
12364TIP3    H158507   6.568   6.028   2.051  1.7431  0.8578  0.9709
12364TIP3    H258508   6.629   6.165   2.034 -0.9809  2.0257  0.0130
12365TIP3   OH258509   3.049   2.939   0.864  0.1311 -0.3406  0.0804
12365TIP3    H158510   3.085   2.885   0.794  1.7649  0.2781  0.4006
12365TIP3    H258511   3.094   3.024   0.854 -0.7018  0.2234  0.9785
12366TIP3   OH258512   4.815   0.380   4.472  0.0352 -0.2751  0.0697
12366TIP3    H158513   4.845   0.361   4.561  0.6603 -0.1770 -0.1196
12366TIP3    H258514   4.887   0.353   4.415  0.2665  1.0762 -0.3094
12367TIP3   OH258515   4.588   5.763   1.814 -0.0679  0.5041 -0.1949
12367TIP3    H158516   4.670   5.766   1.864  0.5390  0.5358 -1.1600
12367TIP3    H258517   4.616   5.752   1.723 -1.1532  0.2346 -0.5129
12368TIP3   OH258518   2.875   6.112  12.373  0.2211  0.2623 -0.1567
12368TIP3    H158519   2.889   6.032  12.424 -0.6439  0.2331  0.0646
12368TIP3    H258520   2.833   6.081  12.292 -1.1806  0.5766  0.4189
12369TIP3   OH258521   2.640   2.869  10.776  0.5395  0.4115 -0.1472
12369TIP3    H158522   2.727   2.900  10.754  0.2231  1.0866 -0.4796
12369TIP3    H258523   2.611   2.925  10.847  0.0829  0.6977 -0.5478
12370TIP3   OH258524   0.981   3.518  11.085  0.4174  0.0758  0.0383
12370TIP3    H158525   0.910   3.550  11.029 -1.2487 -0.1229  1.9295
12370TIP3    H258526   1.061   3.546  11.040 -0.8683  2.4739 -0.9644
12371TIP3   OH258527   3.888   1.886   5.865  0.0095 -0.0544  0.7040
12371TIP3    H158528   3.847   1.887   5.779 -0.3482  2.4052  0.8084
12371TIP3    H258529   3.815   1.874   5.926 -0.1450  1.0249  0.7512
12372TIP3   OH258530   1.651   6.152   3.799 -0.2007 -0.7121 -0.2313
12372TIP3    H158531   1.644   6.180   3.890 -1.4257  0.3111 -0.5990
12372TIP3    H258532   1.683   6.230   3.753 -0.8777 -0.7905 -0.8579
12373TIP3   OH258533   5.654   3.905   5.651 -0.3300  0.0582 -0.1720
12373TIP3    H158534   5.675   3.818   5.619  0.2354  0.4187 -0.8084
12373TIP3    H258535   5.566   3.897   5.687 -0.0230 -0.9304  0.4000
12374TIP3   OH258536   0.817   0.969   2.912  0.5178 -0.1161  0.2019
12374TIP3    H158537   0.856   0.995   2.828 -0.7620 -0.1784 -0.4286
12374TIP3    H258538   0.865   0.890   2.937  0.4111 -0.5237 -0.8388
12375TIP3   OH258539   6.349   3.310   3.288 -0.4815  0.4663 -0.1692
12375TIP3    H158540   6.393   3.225   3.287 -0.2756  0.5799 -0.9791
12375TIP3    H258541   6.419   3.374   3.276 -0.8188  0.6587 -1.2117
12376TIP3   OH258542   2.362   1.996  13.072  0.4753  0.3853 -0.2978
12376TIP3    H158543   2.300   1.944  13.021  1.9013  0.2183 -1.9705
12376TIP3    H258544   2.345   2.086  13.044 -0.4182  0.5801  0.8374
12377TIP3   OH258545   2.317   1.311   0.682  0.5422 -0.2109  0.2255
12377TIP3    H158546   2.237   1.264   0.703 -0.4764  1.2882 -0.1808
12377TIP3    H258547   2.331   1.294   0.588  0.3217  0.0662  0.1409
12378TIP3   OH258548   5.141   5.864  14.081 -0.4176  0.1144 -0.1731
12378TIP3    H158549   5.226   5.890  14.116 -0.0926 -2.0415  0.7684
12378TIP3    H258550   5.078   5.893  14.147 -0.1593 -0.5034  0.3552
12379TIP3   OH258551   5.184   4.126  16.708 -0.3236  0.2619 -0.2795
12379TIP3    H158552   5.189   4.060  16.639  1.5189  0.7103 -0.6132
12379TIP3    H258553   5.193   4.209  16.662  0.6775  0.5814  0.4763
12380TIP3   OH258554   4.575   4.995   5.470  0.2321 -0.9338  0.1620
12380TIP3    H158555   4.652   4.954   5.432 -0.0265 -0.4519 -0.9383
12380TIP3    H258556   4.591   4.995   5.564  1.7626 -0.4762 -0.0667
12381TIP3   OH258557   0.098   4.558  14.094  0.1307  0.5832  0.0901
12381TIP3    H158558   0.030   4.563  14.161 -1.5213 -0.1786 -1.4590
12381TIP3    H258559   0.171   4.609  14.131 -1.2251  1.3904  1.8251
12382TIP3   OH258560   1.070   2.355  16.584  0.5952 -0.4467  0.2903
12382TIP3    H158561   1.123   2.430  16.612 -0.6747  0.8078 -0.5164
12382TIP3    H258562   1.073   2.358  16.488  0.1407 -1.1546  0.2485
12383TIP3   OH258563   2.372   5.091  12.613  0.8254  0.5200  0.2411
12383TIP3    H158564   2.361   5.151  12.686  1.5733  0.3939  0.4643
12383TIP3    H258565   2.452   5.120  12.569  0.2828  0.7188 -0.6492
12384TIP3   OH258566   6.054   4.091   5.253 -0.6043  0.2258  0.3854
12384TIP3    H158567   6.102   4.100   5.171  0.2344  0.4503  0.8836
12384TIP3    H258568   6.093   4.013   5.294  0.2632  1.1544  1.3856
12385TIP3   OH258569   6.462   0.817   1.676 -0.2721 -0.8617  0.0488
12385TIP3    H158570   6.543   0.861   1.653 -0.0183  0.7931  3.4862
12385TIP3    H258571   6.489   0.740   1.725 -0.8288 -1.8886 -1.1780
12386TIP3   OH258572   2.089   6.704  16.531  0.2949  0.2719  0.7050
12386TIP3    H158573   2.171   6.676  16.491  0.6387  1.1998  0.7242
12386TIP3    H258574   2.045   6.623  16.557  1.6757 -0.2183  1.6438
12387TIP3   OH258575   2.181   4.698  16.608  0.0276 -0.1208  0.0675
12387TIP3    H158576   2.131   4.684  16.527 -0.4501 -0.5227  0.4283
12387TIP3    H258577   2.116   4.725  16.672 -0.3029 -3.4120  1.3377
12388TIP3   OH258578   2.645   5.143  12.549 -0.4271  0.1138 -0.1178
12388TIP3    H158579   2.661   5.052  12.577 -1.7903 -0.5722 -1.4494
12388TIP3    H258580   2.689   5.150  12.465 -0.4442  0.6608 -0.0828
12389TIP3   OH258581   1.820   2.646  10.394 -0.2738  0.3637  0.4069
12389TIP3    H158582   1.806   2.603  10.478 -2.0874  1.5038  0.7653
12389TIP3    H258583   1.894   2.704  10.408  0.4280 -0.5948  0.7309
12390TIP3   OH258584   3.302   6.694   3.014 -0.1792  0.2518  0.5015
12390TIP3    H158585   3.387   6.694   2.971 -0.1421 -0.0411  0.5764
12390TIP3    H258586   3.257   6.617   2.979 -0.9301  1.1495 -0.5681
12391TIP3   OH258587   4.359   3.927  17.030 -0.1956  0.1481 -0.1938
12391TIP3    H158588   4.290   3.898  16.970  0.3613 -2.3461  0.2679
12391TIP3    H258589   4.439   3.887  16.996  0.1862 -1.0910  1.9777
12392TIP3   OH258590   1.528   6.127   4.115 -0.4178  0.5944  0.1539
12392TIP3    H158591   1.600   6.073   4.149 -0.6708 -0.2517 -0.6084
12392TIP3    H258592   1.449   6.078   4.138 -1.0524  2.7775  3.3955
12393TIP3   OH258593   5.826   1.896  12.678  0.0738 -0.2405 -0.6312
12393TIP3    H158594   5.920   1.883  12.666  0.4183  0.9950  0.5598
12393TIP3    H258595   5.801   1.832  12.745  0.1858 -0.1277 -0.4834
12394TIP3   OH258596   2.735   4.011   5.256  0.0333  0.0379  0.0148
12394TIP3    H158597   2.669   4.013   5.325 -0.8445 -1.5802 -0.7075
12394TIP3    H258598   2.695   4.057   5.183  0.1924  0.0948 -0.0364
12395TIP3   OH258599   4.928   6.324   3.120  0.4021  0.3666  0.5422
12395TIP3    H158600   4.924   6.410   3.161 -2.9251 -0.2023  1.6778
12395TIP3    H258601   4.928   6.262   3.193 -0.3162 -0.6100 -0.2474
12396TIP3   OH258602   2.285   4.023  16.193 -0.0119 -0.2045  0.6132
12396TIP3    H158603   2.292   4.077  16.272  0.8947  1.4798 -0.5601
12396TIP3    H258604   2.204   4.053  16.151 -0.2268 -0.7388  0.6442
12397TIP3   OH258605   4.133   1.400  14.198 -0.2581  0.5082 -0.0920
12397TIP3    H158606   4.046   1.369  14.174  0.1408  0.3777 -1.4538
12397TIP3    H258607   4.173   1.327  14.246 -1.5086  1.2157  2.1477
12398TIP3   OH258608   1.746   2.778   1.485 -0.6327  0.5449  0.3276
12398TIP3    H158609   1.766   2.857   1.435 -0.3093  1.1380  1.3826
12398TIP3    H258610   1.780   2.707   1.430 -0.0992  1.1937 -0.2084
12399TIP3   OH258611   0.210   1.875  14.232 -0.0162 -0.0036 -0.7445
12399TIP3    H158612   0.229   1.824  14.311 -0.2838 -0.5702 -1.0430
12399TIP3    H258613   0.123   1.911  14.248 -0.1597 -0.2942 -0.8735
12400TIP3   OH258614   4.151   6.316  12.011 -0.0423 -0.1103 -0.2022
12400TIP3    H158615   4.243   6.297  11.993  0.5812  1.8097  0.7467
12400TIP3    H258616   4.152   6.392  12.069 -2.2362  0.0019 -0.2077
12401TIP3   OH258617   2.366   0.001  13.493  0.1904  0.1242 -0.8624
12401TIP3    H158618   2.349  -0.029  13.404 -1.7443  0.3137 -0.6198
12401TIP3    H258619   2.334   0.092  13.493 -0.0587  0.0444  0.0739
12402TIP3   OH258620   4.390   4.426   0.599 -0.9046  0.0234 -0.2854
12402TIP3    H158621   4.457   4.362   0.623 -0.2023 -0.3643 -2.9005
12402TIP3    H258622   4.310   4.374   0.586 -1.6437  0.4051  2.2344
12403TIP3   OH258623   5.826   4.448  10.594  0.7059  0.2847 -0.1196
12403TIP3    H158624   5.910   4.429  10.552  0.5267 -0.9161  0.0326
12403TIP3    H258625   5.761   4.429  10.527  0.4054 -1.8274  0.6701
12404TIP3   OH258626   6.227   1.786  11.511 -0.4425  0.3940  0.0052
12404TIP3    H158627   6.310   1.740  11.500 -0.7304  0.0143 -0.5774
12404TIP3    H258628   6.160   1.718  11.509 -0.7054  0.5295  1.8242
12405TIP3   OH258629   2.928   3.900   4.882  0.8555  0.0276 -0.3402
12405TIP3    H158630   2.972   3.815   4.874  2.8302  0.8018  1.4315
12405TIP3    H258631   2.976   3.945   4.952 -1.9291  1.5270  0.7268
12406TIP3   OH258632   6.400   2.958   5.828  0.4608 -0.6013  0.1573
12406TIP3    H158633   6.413   3.014   5.905  0.9175 -2.2021  1.2962
12406TIP3    H258634   6.327   2.998   5.781  0.1460  0.3988  1.4500
12407TIP3   OH258635   6.748   6.070   1.770  0.5084 -0.4494 -0.1499
12407TIP3    H158636   6.685   6.002   1.792 -1.1207  1.4633  1.3851
12407TIP3    H258637   6.707   6.152   1.797  3.0294  1.0423 -0.4988
12408TIP3   OH258638   1.969   3.476   2.780 -0.6117 -0.3855 -0.3162
12408TIP3    H158639   2.010   3.433   2.855 -0.6860  0.1525  0.0396
12408TIP3    H258640   2.026   3.455   2.706  1.5316  2.0255  0.5055
12409TIP3   OH258641   0.450   1.785   2.588 -0.2408  0.2752  0.0583
12409TIP3    H158642   0.478   1.784   2.497  1.7772  2.6311  0.5571
12409TIP3    H258643   0.498   1.714   2.629  0.3486  0.4461 -0.3307
12410TIP3   OH258644   3.180   3.642   2.788  0.3506 -0.3331  0.0036
12410TIP3    H158645   3.228   3.678   2.863 -1.1817 -0.2182  0.9721
12410TIP3    H258646   3.166   3.550   2.810  0.6223 -0.5053 -0.5317
12411TIP3   OH258647   2.981   4.360  14.097 -0.3983 -0.8619 -0.3700
12411TIP3    H158648   2.999   4.388  14.008  2.0859 -1.8642 -0.2826
12411TIP3    H258649   2.964   4.441  14.145 -1.8239 -0.3160 -1.7159
12412TIP3   OH258650   1.410   6.161  16.970 -0.1048 -0.2493  0.3576
12412TIP3    H158651   1.352   6.147  17.046  0.2935  1.4755  1.0111
12412TIP3    H258652   1.352   6.153  16.895 -0.7386 -0.8078  0.8826
12413TIP3   OH258653   5.134   6.013  16.400  0.2655 -0.4908  0.7407
12413TIP3    H158654   5.071   5.980  16.464 -0.7052  0.2771  0.2008
12413TIP3    H258655   5.088   6.011  16.317  1.0916 -0.3008  0.2650
12414TIP3   OH258656   6.292   6.036  11.569  0.3953  0.0903 -0.5483
12414TIP3    H158657   6.221   6.008  11.511  0.9516 -1.7417 -0.3941
12414TIP3    H258658   6.251   6.043  11.655  0.5806 -2.0467 -0.2412
12415TIP3   OH258659   2.035   3.294  13.941 -0.0581 -0.1498  0.3425
12415TIP3    H158660   2.064   3.345  13.866 -0.6845 -0.3067 -0.0144
12415TIP3    H258661   1.951   3.333  13.966  0.2558  0.0523  1.1155
12416TIP3   OH258662   2.085   6.120   2.709 -0.6999 -0.0382  0.2423
12416TIP3    H158663   2.093   6.035   2.750 -0.3817  0.2247  0.7320
12416TIP3    H258664   2.141   6.114   2.631 -0.6750 -0.2755  0.2773
12417TIP3   OH258665   5.673   0.265  12.134 -0.1371 -0.5888  0.1588
12417TIP3    H158666   5.642   0.307  12.053 -0.2721 -0.9236  0.0365
12417TIP3    H258667   5.726   0.191  12.103 -0.5993 -1.0125  0.3827
12418TIP3   OH258668   5.133   4.094   3.740 -0.0098 -0.1068  0.4352
12418TIP3    H158669   5.109   4.060   3.826 -0.4131 -0.7688  0.0690
12418TIP3    H258670   5.163   4.184   3.757 -2.7946  0.8262  0.9435
12419TIP3   OH258671   1.180   2.016   0.417 -0.2385  0.3218 -0.4440
12419TIP3    H158672   1.094   2.033   0.457 -0.3432  0.1754 -0.6046
12419TIP3    H258673   1.186   1.921   0.414  0.3220  0.3296  0.4034
12420TIP3   OH258674   3.513   0.103   1.416  0.0969  0.4546  0.3639
12420TIP3    H158675   3.609   0.106   1.418  0.1519 -0.4197  2.5407
12420TIP3    H258676   3.493   0.021   1.371  0.5084 -0.6824  2.1265
12421TIP3   OH258677   3.245   2.615  14.486 -0.5872 -0.4370 -0.1605
12421TIP3    H158678   3.246   2.640  14.394 -1.1022 -1.2554 -0.3998
12421TIP3    H258679   3.229   2.696  14.533  1.1355  0.2665 -0.6798
12422TIP3   OH258680   3.244   0.101   0.607 -0.1088  0.1105 -0.8449
12422TIP3    H158681   3.254   0.058   0.692 -1.3344  1.6192  0.1260
12422TIP3    H258682   3.195   0.038   0.554 -1.2484 -0.0078  0.2982
12423TIP3   OH258683   0.343   3.970   3.160  0.3465 -0.0398  0.3057
12423TIP3    H158684   0.427   4.005   3.130 -0.0314 -0.4490 -1.3844
12423TIP3    H258685   0.323   4.018   3.240  1.8933  0.4853  0.4027
12424TIP3   OH258686   5.086   0.346  12.898  0.4781 -0.1980  0.1256
12424TIP3    H158687   5.178   0.339  12.926  0.2703 -0.5941  0.7341
12424TIP3    H258688   5.086   0.416  12.833  1.1252  0.1721  0.5113
12425TIP3   OH258689   6.068   5.979   3.746 -0.8995 -0.3259 -0.5304
12425TIP3    H158690   6.119   5.909   3.704 -1.1092 -0.3451 -0.7557
12425TIP3    H258691   6.088   5.970   3.839  0.6629  0.5859 -0.7467
12426TIP3   OH258692   0.079   5.719   2.163 -0.0467 -0.0229 -0.4599
12426TIP3    H158693   0.002   5.772   2.183 -1.0920 -0.1839 -3.5007
12426TIP3    H258694   0.150   5.760   2.211 -1.4542  2.1092 -0.0740
12427TIP3   OH258695   1.433   4.030  13.505 -0.0948  0.0509  0.2236
12427TIP3    H158696   1.458   3.996  13.418 -0.6802 -1.5847  0.6524
12427TIP3    H258697   1.348   4.071  13.491  0.7320  1.6367 -0.3581
12428TIP3   OH258698   0.855   2.821   5.573  0.3609 -0.3866 -0.3135
12428TIP3    H158699   0.793   2.751   5.556  0.2225 -0.6228  1.0225
12428TIP3    H258700   0.901   2.793   5.653  0.5045  0.8938  0.0738
12429TIP3   OH258701   1.971   6.369   2.595 -0.0283  0.7839  0.1123
12429TIP3    H158702   2.018   6.400   2.672 -1.1151 -0.6205  1.3915
12429TIP3    H258703   2.000   6.279   2.584 -2.2781 -0.0902  0.8778
12430TIP3   OH258704   1.725   2.859  16.940 -0.3141 -0.0603  0.2382
12430TIP3    H158705   1.781   2.899  17.006 -1.2867  0.0545  1.0302
12430TIP3    H258706   1.727   2.766  16.960 -0.9129  0.0153  0.6973
12431TIP3   OH258707   6.484   0.862  13.226 -0.5281 -0.2176 -0.5792
12431TIP3    H158708   6.436   0.898  13.300  0.1152  0.8276 -0.6513
12431TIP3    H258709   6.422   0.865  13.153 -0.2834  1.4133 -0.7489
12432TIP3   OH258710   2.518   4.310   5.210  0.3731 -0.1280  0.4066
12432TIP3    H158711   2.443   4.312   5.151 -0.2002  2.1688  1.1349
12432TIP3    H258712   2.490   4.253   5.282 -0.0414 -0.5555 -0.0803
12433TIP3   OH258713   6.019   2.934  12.712  0.3187 -0.0257  0.1134
12433TIP3    H158714   5.962   3.003  12.746  0.7656  0.4760 -0.1367
12433TIP3    H258715   6.049   2.887  12.790  1.0019  0.8533  0.3987
12434TIP3   OH258716   0.416   4.814  14.468 -0.6124  0.1754  0.3538
12434TIP3    H158717   0.395   4.735  14.517  0.2799 -0.0037  0.4697
12434TIP3    H258718   0.509   4.805  14.446 -0.2740  1.5578  1.0641
12435TIP3   OH258719   1.322   5.038   2.433 -0.6187  0.0931 -0.3359
12435TIP3    H158720   1.395   5.040   2.371 -0.8184  1.2759 -0.5642
12435TIP3    H258721   1.363   5.015   2.517  0.0849  1.0193 -0.4050
12436TIP3   OH258722   0.830   1.351  16.485 -0.1361 -0.4030  0.4669
12436TIP3    H158723   0.883   1.280  16.451  0.4327  0.9156 -1.5789
12436TIP3    H258724   0.746   1.342  16.441 -0.0851  0.1268  0.2494
12437TIP3   OH258725   6.099   0.233   3.572  0.1398  0.0224  0.0233
12437TIP3    H158726   6.092   0.301   3.506 -0.9844 -0.1403 -0.0452
12437TIP3    H258727   6.079   0.152   3.525  2.1010 -0.4673 -0.0444
12438TIP3   OH258728   5.050   1.232  12.153  0.1097 -0.0387 -0.2361
12438TIP3    H158729   4.998   1.311  12.144 -1.9526 -1.2373  0.4921
12438TIP3    H258730   5.099   1.226  12.071 -0.5127  1.4091 -0.7442
12439TIP3   OH258731   1.450   3.881  13.982 -0.1593 -0.5290 -0.1684
12439TIP3    H158732   1.466   3.938  13.907 -2.9663 -2.3665 -2.4107
12439TIP3    H258733   1.361   3.903  14.010  0.4935 -0.5459  2.0888
12440TIP3   OH258734   5.132   4.566  11.774  0.5141  0.5338  0.2071
12440TIP3    H158735   5.213   4.538  11.816  1.9656  1.8327 -1.5180
12440TIP3    H258736   5.139   4.534  11.684 -1.1149  0.2849  0.1365
12441TIP3   OH258737   1.412   1.449  12.802 -0.3129  0.4512 -0.0002
12441TIP3    H158738   1.417   1.538  12.766 -0.9124  0.7009  0.5253
12441TIP3    H258739   1.487   1.443  12.862 -1.7355  1.5498  2.0106
12442TIP3   OH258740   0.953   6.765   4.801  0.0241  0.1683 -0.1513
12442TIP3    H158741   0.924   6.687   4.849  1.3802  1.3498  2.8991
12442TIP3    H258742   0.874   6.797   4.758 -0.7538 -2.3664 -0.7885
12443TIP3   OH258743   3.106   3.264  13.996 -0.0622  0.6005  0.3047
12443TIP3    H158744   3.086   3.352  13.965  0.6752  0.8987  0.6519
12443TIP3    H258745   3.106   3.210  13.917  3.0833  1.5800 -0.4916
12444TIP3   OH258746   6.121   5.905  16.261  0.4885  0.8077  0.3012
12444TIP3    H158747   6.076   5.842  16.204  0.5776 -0.2032  1.3255
12444TIP3    H258748   6.129   5.984  16.207  2.3730 -0.7269 -1.8527
12445TIP3   OH258749   1.853   2.433   5.462  0.5061  0.1074  0.2480
12445TIP3    H158750   1.906   2.453   5.385 -0.4524  1.4793 -0.0913
12445TIP3    H258751   1.803   2.355   5.437 -0.8924  1.3786 -1.1230
12446TIP3   OH258752   1.364   6.593  16.302  0.0386  0.0502 -0.4174
12446TIP3    H158753   1.435   6.653  16.276  0.6543  0.4259  1.9175
12446TIP3    H258754   1.361   6.528  16.231  1.5572  0.9962 -1.4178
12447TIP3   OH258755   5.123   2.591  14.415  0.4044  0.6743  0.3445
12447TIP3    H158756   5.049   2.529  14.418  1.0441 -0.2808 -1.6016
12447TIP3    H258757   5.201   2.535  14.426  1.0348  0.9461 -2.1699
12448TIP3   OH258758   5.862   4.128   6.084  0.6319 -0.1472 -0.2453
12448TIP3    H158759   5.926   4.121   6.014  0.0495 -0.2805 -0.7642
12448TIP3    H258760   5.854   4.223   6.099  1.4578 -0.1529  0.3008
12449TIP3   OH258761   3.599   1.548  12.910 -0.0463  0.5147  0.5085
12449TIP3    H158762   3.618   1.564  13.003 -0.2243  1.1469  0.4411
12449TIP3    H258763   3.680   1.510  12.875 -0.8223 -2.2700  1.4990
12450TIP3   OH258764   3.879   5.688  14.135 -0.1282 -1.0164  0.4804
12450TIP3    H158765   3.956   5.633  14.146 -1.3796 -2.6969  1.2402
12450TIP3    H258766   3.826   5.642  14.070 -0.0528  0.6562 -0.8299
12451TIP3   OH258767   3.100   4.625   6.388 -0.2271  0.5016  0.3359
12451TIP3    H158768   3.186   4.633   6.427 -0.5199 -0.5140  1.2065
12451TIP3    H258769   3.098   4.539   6.347 -1.2533 -0.0164  1.4191
12452TIP3   OH258770   5.271   3.945  16.508  0.3583  0.5311 -0.2056
12452TIP3    H158771   5.216   3.889  16.454  0.4179 -1.2126  1.4438
12452TIP3    H258772   5.356   3.901  16.511 -0.1507 -0.4363  2.7071
12453TIP3   OH258773   5.739   6.588   0.537  0.2390 -0.0537  0.2324
12453TIP3    H158774   5.648   6.584   0.566  0.4560  1.2599  1.1714
12453TIP3    H258775   5.734   6.599   0.442 -0.5364 -1.1786  0.1167
12454TIP3   OH258776   1.521   5.026  16.663  0.4525 -0.1019  0.1425
12454TIP3    H158777   1.609   5.006  16.695 -0.0127  0.0475  1.5644
12454TIP3    H258778   1.520   4.991  16.574  1.8494 -0.3774  0.2101
12455TIP3   OH258779   0.092   1.340  13.549 -0.0389  0.1812 -0.6271
12455TIP3    H158780   0.084   1.246  13.532 -3.2888 -0.2085  2.0332
12455TIP3    H258781   0.017   1.380  13.506 -0.6167  1.0114  1.0413
12456TIP3   OH258782   0.078   6.673   5.129  0.1754  0.3016 -0.1642
12456TIP3    H158783   0.052   6.755   5.170  2.0914  0.8995 -0.0217
12456TIP3    H258784   0.080   6.693   5.035 -1.5509 -0.2749 -0.3561
12457TIP3   OH258785   3.769   5.169   1.190 -0.5946 -0.1584 -0.3995
12457TIP3    H158786   3.741   5.238   1.130  0.2859  1.1582  0.6412
12457TIP3    H258787   3.860   5.190   1.209 -1.4100  0.8497  3.1451
12458TIP3   OH258788   2.403   5.114   4.971  0.1415  0.2314 -0.2058
12458TIP3    H158789   2.491   5.138   4.940  0.1566  1.0712  0.4381
12458TIP3    H258790   2.344   5.162   4.913 -0.1122 -3.2442 -3.1825
12459TIP3   OH258791   4.272   0.077  11.904  0.4808  0.4981  0.2173
12459TIP3    H158792   4.265   0.097  11.997  1.6404  0.1645  0.3844
12459TIP3    H258793   4.188   0.105  11.867  0.0147  0.6355  1.3564
12460TIP3   OH258794   3.100   3.196   1.930  0.0198 -0.0631  0.3312
12460TIP3    H158795   3.022   3.243   1.957 -0.8489 -0.2387 -1.6760
12460TIP3    H258796   3.067   3.124   1.876  1.5203 -0.5580  0.0263
12461TIP3   OH258797   4.996   3.266   4.492  0.0931 -0.3107 -0.1797
12461TIP3    H158798   4.905   3.285   4.514  0.0234 -0.5080 -0.2911
12461TIP3    H258799   5.038   3.248   4.576 -0.1497 -0.9651 -0.1904
12462TIP3   OH258800   2.987   5.968   5.695  0.3345  0.2747 -0.0817
12462TIP3    H158801   2.935   6.017   5.631 -0.1704 -0.8502 -0.5409
12462TIP3    H258802   2.922   5.924   5.750  0.7850  0.3866  0.5588
12463TIP3   OH258803   3.787   4.593   5.692  0.1071 -0.0789 -0.0965
12463TIP3    H158804   3.697   4.627   5.687  0.7104  1.5050 -0.6994
12463TIP3    H258805   3.777   4.508   5.734 -1.4053  1.1557  2.2950
12464TIP3   OH258806   2.153   4.721  14.408  0.2217 -0.6141  0.0533
12464TIP3    H158807   2.165   4.656  14.339 -2.1190  1.4837 -2.6013
12464TIP3    H258808   2.167   4.805  14.364  1.8696  0.8077  3.0104
12465TIP3   OH258809   1.516   1.549  12.375  0.3836 -0.5443  0.3900
12465TIP3    H158810   1.559   1.625  12.413 -0.1756  0.0701 -0.1734
12465TIP3    H258811   1.588   1.491  12.348  0.7842 -0.9853  2.3110
12466TIP3   OH258812   5.025   0.515  12.103  0.4380 -0.3456 -0.6269
12466TIP3    H158813   5.012   0.420  12.108 -0.8930 -0.2746 -2.1325
12466TIP3    H258814   5.063   0.538  12.188 -2.1861 -1.7637  1.0765
12467TIP3   OH258815   4.439   4.346  14.159 -0.0481  0.0942 -0.7484
12467TIP3    H158816   4.506   4.346  14.092  2.6721  3.5924  1.5961
12467TIP3    H258817   4.453   4.264  14.208 -0.1633 -1.0591 -2.5675
12468TIP3   OH258818   5.006   3.245   5.080 -0.6545  0.0019  0.4128
12468TIP3    H158819   5.061   3.214   5.153 -0.5647  0.3290  0.4854
12468TIP3    H258820   4.929   3.189   5.083 -0.1228 -0.7796  0.0219
12469TIP3   OH258821   0.212   2.417  13.613 -0.4853  0.2379 -0.6928
12469TIP3    H158822   0.238   2.500  13.574  0.7272  0.1080 -0.2032
12469TIP3    H258823   0.183   2.364  13.538  0.3007  0.5400 -1.2301
12470TIP3   OH258824   4.891   2.351  13.036 -0.4030 -0.1412  0.0049
12470TIP3    H158825   4.938   2.414  13.091 -0.1947  0.3009 -0.6710
12470TIP3    H258826   4.920   2.370  12.947  0.5391 -1.9372 -0.1202
12471TIP3   OH258827   2.438   1.567   4.922 -0.4289  0.9378 -0.4315
12471TIP3    H158828   2.396   1.507   4.983  0.4637  0.9147  0.1738
12471TIP3    H258829   2.425   1.527   4.836 -2.3524  1.3349 -0.3871
12472TIP3   OH258830   1.520   5.770  12.317 -0.4623 -0.2298  0.6521
12472TIP3    H158831   1.441   5.823  12.315 -0.1401  0.2649  0.8140
12472TIP3    H258832   1.514   5.720  12.399 -1.4743 -1.5604 -0.2009
12473TIP3   OH258833   3.451   0.721  11.312 -0.4838 -0.3548  0.0651
12473TIP3    H158834   3.418   0.780  11.245 -0.5292  0.5475  0.8662
12473TIP3    H258835   3.446   0.634  11.272 -0.4385  0.1706 -1.1165
12474TIP3   OH258836   4.855   5.192   2.185  0.3427 -0.2395  0.3402
12474TIP3    H158837   4.855   5.202   2.090 -0.0617 -0.1302  0.3482
12474TIP3    H258838   4.809   5.110   2.201  0.9144 -0.5485  0.4174
12475TIP3   OH258839   6.148   3.831   0.316 -0.2904 -0.0624  0.5160
12475TIP3    H158840   6.120   3.907   0.264  2.7318  0.2977 -0.8154
12475TIP3    H258841   6.140   3.860   0.407  1.5514  2.2678  0.0423
12476TIP3   OH258842   4.719   1.314   3.491  0.0889 -0.1033  0.1350
12476TIP3    H158843   4.638   1.356   3.462  0.9273  1.9385  0.5514
12476TIP3    H258844   4.693   1.259   3.565 -0.9340  0.4393  0.1916
12477TIP3   OH258845   3.962   0.989  17.115  0.3737 -0.3758 -0.0110
12477TIP3    H158846   3.955   1.076  17.156 -2.0173 -0.5280  0.0012
12477TIP3    H258847   4.047   0.956  17.145  0.4958  1.1821  1.5285
12478TIP3   OH258848   5.088   2.180   4.797  0.1354  0.8406 -0.0583
12478TIP3    H158849   5.020   2.116   4.777 -0.0821  0.9764  0.2355
12478TIP3    H258850   5.050   2.235   4.866  0.2496  1.3916 -0.4276
12479TIP3   OH258851   2.197   6.528  17.257  0.2432 -0.1575  0.1194
12479TIP3    H158852   2.116   6.552  17.213  0.4598  1.7627  0.6729
12479TIP3    H258853   2.257   6.601  17.239  1.8687 -1.5333 -0.3014
12480TIP3   OH258854   0.790   3.830  12.713  0.2716 -0.2217  0.4107
12480TIP3    H158855   0.744   3.777  12.778  0.2538 -0.2764  0.3529
12480TIP3    H258856   0.794   3.775  12.635 -1.3300  0.5225 -0.2437
12481TIP3   OH258857   4.280   0.481   6.354  0.1723 -0.1836 -0.3055
12481TIP3    H158858   4.197   0.448   6.320 -0.6509  1.6990 -0.2524
12481TIP3    H258859   4.319   0.529   6.281 -0.3681  1.6592  0.5434
12482TIP3   OH258860   2.590   1.632  12.515  0.2297 -0.9624 -0.4313
12482TIP3    H158861   2.523   1.672  12.460 -0.4107 -0.7408  0.4833
12482TIP3    H258862   2.541   1.582  12.580  0.9208 -0.3654  0.5850
12483TIP3   OH258863   2.624   4.655   0.454 -0.5776  0.6142 -0.4727
12483TIP3    H158864   2.710   4.696   0.462 -0.7080  0.7148  0.5402
12483TIP3    H258865   2.562   4.723   0.480 -0.7931 -0.1680  1.2131
12484TIP3   OH258866   1.182   5.361   1.194 -0.3771  0.0997  0.0007
12484TIP3    H158867   1.264   5.314   1.183 -0.0829  0.6100  0.0023
12484TIP3    H258868   1.208   5.450   1.219 -0.9309 -0.4893  3.1763
12485TIP3   OH258869   4.149   0.965   1.839 -0.0229 -0.4123 -0.2410
12485TIP3    H158870   4.113   0.930   1.758 -0.5830  1.1576 -0.6961
12485TIP3    H258871   4.230   1.009   1.813 -0.6676  0.8812 -0.1237
12486TIP3   OH258872   5.202   6.139   3.861  0.5455 -0.5603  0.3812
12486TIP3    H158873   5.199   6.056   3.814  2.5260  0.9419 -2.7871
12486TIP3    H258874   5.126   6.187   3.828  0.5087 -0.4272  0.6613
12487TIP3   OH258875   6.139   1.494   0.958 -0.4181 -0.2830 -0.3015
12487TIP3    H158876   6.202   1.430   0.990 -0.9769 -0.3390  0.7394
12487TIP3    H258877   6.130   1.557   1.030 -0.5409  0.4666 -0.9605
12488TIP3   OH258878   3.255   0.399  12.689 -0.3989  0.2258 -0.0834
12488TIP3    H158879   3.256   0.358  12.603 -0.4565 -0.1819  0.1053
12488TIP3    H258880   3.185   0.463  12.685 -0.7721 -0.1833 -0.1660
12489TIP3   OH258881   0.314   1.890  15.272 -0.4261 -0.4706 -0.3658
12489TIP3    H158882   0.307   1.966  15.331 -3.9440 -0.9837  0.0799
12489TIP3    H258883   0.390   1.910  15.217 -0.3195  2.6565  0.7089
12490TIP3   OH258884   4.382   6.142  15.168  0.0120 -0.3141 -0.2003
12490TIP3    H158885   4.377   6.049  15.149  1.5290 -0.8994  1.8532
12490TIP3    H258886   4.324   6.154  15.244  0.3249  0.2909 -0.0475
12491TIP3   OH258887   2.258   5.388   0.366 -0.1796  0.1964 -0.1947
12491TIP3    H158888   2.332   5.421   0.418  0.0631 -1.9180  0.9542
12491TIP3    H258889   2.227   5.463   0.317  1.2735  1.6988  1.0649
12492TIP3   OH258890   1.357   0.887   0.524  0.2016 -0.1139 -0.3249
12492TIP3    H158891   1.310   0.837   0.591 -0.3256  0.8896  0.0828
12492TIP3    H258892   1.408   0.822   0.476 -1.1215 -1.1505 -0.3737
12493TIP3   OH258893   4.486   2.639  13.347  0.2137  0.0090  0.3281
12493TIP3    H158894   4.401   2.674  13.373 -0.3736  0.5795 -2.0913
12493TIP3    H258895   4.540   2.717  13.333  0.7636 -0.3073  0.6691
12494TIP3   OH258896   5.306   6.333   0.356 -0.0244  0.6667  0.2725
12494TIP3    H158897   5.386   6.292   0.324 -2.0007 -0.2691 -4.1336
12494TIP3    H258898   5.246   6.260   0.370 -0.9258  1.5370  1.0691
12495TIP3   OH258899   6.258   1.076   1.413  0.4650  0.0886 -0.5070
12495TIP3    H158900   6.287   1.112   1.497  1.2148 -0.6978 -0.4137
12495TIP3    H258901   6.164   1.092   1.412 -0.0352 -1.9852  1.6031
12496TIP3   OH258902   4.644   6.006  15.338 -0.5476  0.2497 -0.0915
12496TIP3    H158903   4.607   6.038  15.420  0.7729  1.3898  0.0957
12496TIP3    H258904   4.602   5.921  15.324 -0.1079 -0.4342  2.2850
12497TIP3   OH258905   2.362   4.116   2.013 -0.0690 -0.6748  0.2326
12497TIP3    H158906   2.275   4.086   1.988 -0.5240  1.6124 -1.2205
12497TIP3    H258907   2.365   4.105   2.108 -1.1364 -2.6645  0.0849
12498TIP3   OH258908   1.769   1.177  15.355 -0.2778  0.3470  0.3615
12498TIP3    H158909   1.838   1.197  15.292  0.2728  0.0406  0.8563
12498TIP3    H258910   1.734   1.263  15.380 -0.5386  0.4678 -0.3925
12499TIP3   OH258911   6.563   2.443  15.961  0.5337  0.2392  0.3512
12499TIP3    H158912   6.513   2.404  15.889  0.2481  1.7324 -0.3057
12499TIP3    H258913   6.654   2.420  15.941  0.2559 -1.4905  0.9158
12500TIP3   OH258914   0.746   1.561   2.020 -0.3941  0.2650  0.1857
12500TIP3    H158915   0.697   1.570   1.938 -0.2472  0.1446  0.0850
12500TIP3    H258916   0.786   1.647   2.032 -0.7099  0.3946  0.3203
12501TIP3   OH258917   0.063   2.076  12.784 -0.2672 -0.1288 -0.4762
12501TIP3    H158918   0.016   2.128  12.719  0.6554  1.5967  0.1901
12501TIP3    H258919   0.096   2.001  12.735 -2.2387 -0.5023 -1.3051
12502TIP3   OH258920   4.102   2.417   5.529 -0.3189  1.2219  0.0502
12502TIP3    H158921   4.155   2.477   5.582 -0.5654  2.0249 -0.5935
12502TIP3    H258922   4.128   2.330   5.559  0.9836  1.6137  0.1265
12503TIP3   OH258923   2.145   1.234   4.661 -0.2199  0.4755  0.2495
12503TIP3    H158924   2.108   1.229   4.573  0.3061  0.7027  0.0141
12503TIP3    H258925   2.120   1.320   4.693 -1.1844  0.0516  0.6769
12504TIP3   OH258926   1.408   4.881   0.252  0.0512 -0.1179 -0.1173
12504TIP3    H158927   1.424   4.927   0.170  3.3507 -1.4715 -0.4050
12504TIP3    H258928   1.453   4.933   0.318 -0.2789 -0.4413  0.3672
12505TIP3   OH258929   0.457   4.472  12.779 -0.2523 -0.0428  0.1261
12505TIP3    H158930   0.372   4.427  12.781 -0.5836  0.5996  0.9837
12505TIP3    H258931   0.437   4.560  12.748 -0.0734  0.4378  1.3038
12506TIP3   OH258932   4.140   2.360  11.852 -0.0384  0.1005  0.4324
12506TIP3    H158933   4.224   2.339  11.892  0.3377 -0.2070 -0.5023
12506TIP3    H258934   4.101   2.275  11.832 -0.2739  0.2505  0.2480
12507TIP3   OH258935   5.197   0.795   0.725 -0.2561 -0.3048  0.6852
12507TIP3    H158936   5.141   0.750   0.788  0.6716 -0.8737  1.1181
12507TIP3    H258937   5.201   0.885   0.757 -1.3981 -0.1058  0.3116
12508TIP3   OH258938   5.147   6.238   2.956  0.2652 -0.4666 -0.5737
12508TIP3    H158939   5.074   6.263   3.012  0.2738  0.0425 -0.7864
12508TIP3    H258940   5.159   6.312   2.897  1.2176 -0.3715 -0.2788
12509TIP3   OH258941   6.562   4.243  17.014  0.1267 -0.2964  0.0292
12509TIP3    H158942   6.575   4.288  17.097  0.1512 -2.2198  1.1113
12509TIP3    H258943   6.629   4.174  17.013 -0.6379 -1.0522 -1.0450
12510TIP3   OH258944   3.144   0.786   1.178 -0.1371 -0.4319  0.4178
12510TIP3    H158945   3.079   0.848   1.213 -0.7624 -1.1091  0.4882
12510TIP3    H258946   3.096   0.703   1.170  0.3833 -0.6444 -0.6956
12511TIP3   OH258947   4.071   4.219  12.964  0.0952  0.3316  0.0997
12511TIP3    H158948   4.007   4.202  12.894 -0.2950 -0.6443  0.6805
12511TIP3    H258949   4.045   4.304  12.999 -1.2718 -0.2973  0.7013
12512TIP3   OH258950   4.108   5.019   2.284  0.1435 -0.8873  0.0704
12512TIP3    H158951   4.195   5.052   2.309  1.1167 -3.4584  0.3457
12512TIP3    H258952   4.112   5.015   2.189  0.2094 -0.7455  0.0652
12513TIP3   OH258953   2.093   2.908  16.796 -0.4434 -0.3277  0.4576
12513TIP3    H158954   2.093   2.859  16.879  2.7097  0.5432  1.1267
12513TIP3    H258955   2.161   2.865  16.744  1.4955  2.3898  0.5644
12514TIP3   OH258956   1.568   3.409  14.114  0.1133  0.7319  0.9636
12514TIP3    H158957   1.491   3.353  14.117 -0.3147  1.3271  1.2029
12514TIP3    H258958   1.534   3.498  14.121  0.7191  1.0724 -0.1164
12515TIP3   OH258959   5.416   2.673   5.433 -0.0229  0.0704  0.3794
12515TIP3    H158960   5.331   2.681   5.390  0.0574  1.2409  0.4047
12515TIP3    H258961   5.396   2.639   5.520 -0.3923 -0.3041  0.1531
12516TIP3   OH258962   4.511   2.055  13.983 -0.5492  0.5416 -0.5698
12516TIP3    H158963   4.499   2.036  14.076 -1.3330  0.2565 -0.7193
12516TIP3    H258964   4.548   2.143  13.981  2.1393 -0.4928  0.1019
12517TIP3   OH258965   6.193   4.712   4.644 -0.1504 -0.0495  0.4494
12517TIP3    H158966   6.113   4.684   4.689 -0.2566  1.3753  1.1978
12517TIP3    H258967   6.264   4.676   4.697 -0.2864  0.3191  0.8813
12518TIP3   OH258968   6.684   4.011   5.759 -0.4935  0.2458 -0.3323
12518TIP3    H158969   6.591   3.997   5.776 -0.8641  2.6346 -0.1258
12518TIP3    H258970   6.690   4.101   5.729  1.6742 -0.1265 -1.2143
12519TIP3   OH258971   6.422   3.222   3.650  0.2488 -0.0334  0.5538
12519TIP3    H158972   6.342   3.175   3.670 -0.3423  1.3611  1.5931
12519TIP3    H258973   6.396   3.288   3.586  1.1429 -1.2678 -1.1785
12520TIP3   OH258974   5.763   5.933   5.521  0.2502 -0.3654  0.6438
12520TIP3    H158975   5.708   5.877   5.576  0.0211 -2.3356 -1.3993
12520TIP3    H258976   5.849   5.929   5.562 -0.4410  0.2606  2.2027
12521TIP3   OH258977   5.746   5.488   0.040 -0.2217 -0.2126 -0.0218
12521TIP3    H158978   5.714   5.425  -0.024 -0.5923  0.3545 -0.4075
12521TIP3    H258979   5.829   5.519   0.004 -0.4127  0.0801 -0.2176
12522TIP3   OH258980   3.205   4.155   4.132 -0.2213  0.0722 -0.0603
12522TIP3    H158981   3.269   4.121   4.193 -2.4431 -1.6973  1.4570
12522TIP3    H258982   3.206   4.250   4.147 -0.3577 -0.2582  2.4422
12523TIP3   OH258983   2.926   0.748   5.688 -0.1807 -0.0038  0.6297
12523TIP3    H158984   2.882   0.814   5.741 -1.3197 -0.1987 -0.0437
12523TIP3    H258985   2.884   0.753   5.602 -0.1796 -1.4709  0.5063
12524TIP3   OH258986   5.096   2.302   4.543 -0.0512  0.0622  0.1164
12524TIP3    H158987   5.057   2.389   4.542  0.1135  0.1551 -1.6145
12524TIP3    H258988   5.094   2.276   4.635  0.1021  1.9685  0.7118
12525TIP3   OH258989   1.688   3.695  11.187 -0.0351 -0.3681  0.5301
12525TIP3    H158990   1.760   3.652  11.233 -1.5718 -0.5076  2.9499
12525TIP3    H258991   1.731   3.750  11.121  2.5336  1.7772  3.7070
12526TIP3   OH258992   2.534   4.940  15.771 -0.2105 -0.1859  0.1346
12526TIP3    H158993   2.562   4.873  15.833 -1.0681  0.4377  1.2229
12526TIP3    H258994   2.470   4.992  15.819 -0.2381  0.8557 -0.9899
12527TIP3   OH258995   0.351   1.827  12.554  0.0934  0.2104 -0.2231
12527TIP3    H158996   0.263   1.821  12.592  0.5231 -0.3120  0.7215
12527TIP3    H258997   0.394   1.895  12.605  1.4280 -2.0416  1.8724
12528TIP3   OH258998   0.039   2.199  13.951  0.0762 -0.0367  0.1367
12528TIP3    H158999   0.064   2.291  13.945 -0.7662  0.1702 -0.2592
12528TIP3    H259000   0.123   2.153  13.959  0.5694  0.6711 -0.7439
12529TIP3   OH259001   3.061   5.668  10.594  0.0069  0.5233  0.7046
12529TIP3    H159002   3.132   5.731  10.588 -0.6140  1.2159  0.5673
12529TIP3    H259003   2.981   5.721  10.596 -0.5837 -0.2861 -0.4679
12530TIP3   OH259004   1.100   0.723  11.745 -0.0115 -0.1705  0.3672
12530TIP3    H159005   1.195   0.716  11.755 -0.0919  1.2817  2.9613
12530TIP3    H259006   1.084   0.701  11.653  2.7957 -0.5638 -0.1202
12531TIP3   OH259007   4.255   5.329   4.461 -0.4561 -0.2117  0.1985
12531TIP3    H159008   4.275   5.343   4.554  0.8784 -0.7647  0.0194
12531TIP3    H259009   4.222   5.239   4.457 -0.8285 -0.0761  0.1760
12532TIP3   OH259010   1.420   4.045  12.511 -0.0560 -0.0600  0.2210
12532TIP3    H159011   1.494   4.106  12.507  0.1195 -0.2131  0.9042
12532TIP3    H259012   1.403   4.021  12.420 -1.0092  2.0463 -0.2063
12533TIP3   OH259013   4.384   6.580  13.764 -0.1401 -0.4353 -0.8732
12533TIP3    H159014   4.344   6.647  13.820 -2.1553 -0.9112 -1.6365
12533TIP3    H259015   4.478   6.592  13.776 -0.4699  1.0618  0.7121
12534TIP3   OH259016   2.261   0.945  11.822 -0.2675  0.5853 -0.3074
12534TIP3    H159017   2.228   0.990  11.900  1.2364 -0.3441  0.9310
12534TIP3    H259018   2.238   0.853  11.835  2.3538 -0.0533  0.4792
12535TIP3   OH259019   1.577   5.661  11.354 -0.5190 -0.3594  0.1165
12535TIP3    H159020   1.578   5.756  11.360  0.3878 -0.4202  2.0006
12535TIP3    H259021   1.487   5.639  11.330 -1.7721  0.8995  3.0871
12536TIP3   OH259022   5.452   5.477  16.908 -0.0568  0.1342  0.3709
12536TIP3    H159023   5.425   5.520  16.989 -2.1208 -1.4979  0.6485
12536TIP3    H259024   5.373   5.435  16.876  1.0041 -0.2876 -1.8667
12537TIP3   OH259025   5.052   0.243  16.699  0.0773  0.0676 -0.1299
12537TIP3    H159026   4.984   0.272  16.638 -0.8100  0.7892  1.1400
12537TIP3    H259027   5.047   0.148  16.698 -1.3146  0.1099  0.2925
12538TIP3   OH259028   1.183   3.750   1.934 -0.2604  0.5421  0.2700
12538TIP3    H159029   1.211   3.814   2.000  2.0883  1.0617 -1.1260
12538TIP3    H259030   1.087   3.754   1.937 -0.2247  1.3068  2.8802
12539TIP3   OH259031   5.506   3.297   6.328 -0.1937 -0.5968  0.3175
12539TIP3    H159032   5.531   3.208   6.306  2.4614  0.0428  0.4138
12539TIP3    H259033   5.564   3.353   6.276  2.0761  0.9765  4.0379
12540TIP3   OH259034   5.948   0.857  15.826  0.1617  0.5968  0.3611
12540TIP3    H159035   5.934   0.809  15.745 -0.2575  1.6427 -0.1998
12540TIP3    H259036   5.871   0.839  15.879 -1.1079  2.3978 -0.7490
12541TIP3   OH259037   5.353   2.164   4.083 -0.2849  0.2303 -0.3567
12541TIP3    H159038   5.398   2.146   4.001  0.1639  0.9765 -0.2840
12541TIP3    H259039   5.315   2.251   4.071  0.0163  0.4641  0.3146
12542TIP3   OH259040   6.722   6.416  14.700 -0.0823  0.3642  0.0507
12542TIP3    H159041   6.686   6.335  14.664  1.4900  0.0329 -0.8683
12542TIP3    H259042   6.718   6.479  14.627  0.5763  0.5113  0.1383
12543TIP3   OH259043   6.738   4.117   0.803 -0.6003 -0.4732 -0.6550
12543TIP3    H159044   6.686   4.085   0.729 -1.8377 -1.5805  0.6079
12543TIP3    H259045   6.741   4.042   0.863  1.3731  0.0161 -0.0986
12544TIP3   OH259046   4.499   2.228   4.869 -0.3108  0.0651 -0.4797
12544TIP3    H159047   4.576   2.265   4.826  0.3556 -1.5903 -0.7892
12544TIP3    H259048   4.431   2.295   4.859  0.6049  0.8526 -1.6872
12545TIP3   OH259049   5.696   2.248   4.638 -0.6954  0.2180  0.5618
12545TIP3    H159050   5.785   2.217   4.626 -0.1408  2.0438 -0.2413
12545TIP3    H259051   5.642   2.186   4.588  0.0888 -0.9100  1.0827
12546TIP3   OH259052   1.662   5.914   5.166 -0.1757  0.2334  0.3596
12546TIP3    H159053   1.567   5.923   5.153  0.1635  1.3203 -1.9601
12546TIP3    H259054   1.694   6.004   5.173  0.6473 -0.1435  1.7746
12547TIP3   OH259055   6.660   0.243  15.272 -0.2823 -0.2194 -0.5538
12547TIP3    H159056   6.581   0.200  15.304 -1.7500  1.2062 -2.0673
12547TIP3    H259057   6.691   0.186  15.201  0.2673 -0.9375  0.2399
12548TIP3   OH259058   5.626   5.003  17.120 -0.1711 -0.2466 -0.1075
12548TIP3    H159059   5.594   4.961  17.040 -2.2326  0.5272  0.2460
12548TIP3    H259060   5.708   5.045  17.094 -0.5924 -0.3352 -1.7150
12549TIP3   OH259061   1.656   2.400  13.629  0.8877 -0.2565 -0.0179
12549TIP3    H159062   1.724   2.339  13.599  0.0897 -1.8359  1.2222
12549TIP3    H259063   1.603   2.348  13.689 -1.2721  1.0066 -0.7408
12550TIP3   OH259064   3.875   0.044  10.426 -0.3018 -0.2079 -0.2354
12550TIP3    H159065   3.931   0.120  10.412 -0.6508 -0.2139 -1.8859
12550TIP3    H259066   3.801   0.078  10.475 -0.6938  0.6517 -1.3757
12551TIP3   OH259067   2.124   6.102   1.035 -0.0334 -0.8120  0.0892
12551TIP3    H159068   2.051   6.139   0.985 -0.9107  0.1074  1.9415
12551TIP3    H259069   2.083   6.064   1.112  1.5117  1.0166  1.9295
12552TIP3   OH259070   1.338   0.391  16.584 -0.4671 -0.3572  0.4285
12552TIP3    H159071   1.295   0.471  16.555  1.4284  0.6047  0.1034
12552TIP3    H259072   1.267   0.336  16.616 -1.9603  0.9632 -0.4483
12553TIP3   OH259073   2.838   0.682   6.085  0.0607  0.0696  0.2365
12553TIP3    H159074   2.873   0.618   6.147  0.1977  1.3132  1.4827
12553TIP3    H259075   2.774   0.633   6.034 -2.1700 -0.4204  3.2079
12554TIP3   OH259076   2.205   5.406   2.348  0.1144  0.2288  0.2973
12554TIP3    H159077   2.216   5.436   2.258 -0.4826  0.9626  0.4596
12554TIP3    H259078   2.113   5.420   2.367  0.2311  0.0560  1.0218
12555TIP3   OH259079   2.853   5.133  14.830 -0.3284  0.4285  0.0878
12555TIP3    H159080   2.777   5.188  14.807 -0.0460  0.7968  0.0350
12555TIP3    H259081   2.816   5.065  14.886 -0.6263  0.8550  0.4188
12556TIP3   OH259082   0.218   3.836   2.746  0.2159 -0.2213 -0.5757
12556TIP3    H159083   0.186   3.816   2.834  0.0260 -3.7980 -1.3156
12556TIP3    H259084   0.277   3.910   2.758  1.5361 -1.6213  2.8935
12557TIP3   OH259085   4.702   3.722  17.214  0.4175 -0.5805  0.2241
12557TIP3    H159086   4.737   3.805  17.181 -0.3497 -0.4451 -0.2591
12557TIP3    H259087   4.770   3.690  17.274  0.4008  0.7452  0.9806
12558TIP3   OH259088   4.175   0.507   5.143  0.2901 -0.0025 -0.6786
12558TIP3    H159089   4.088   0.474   5.120  0.0688 -0.4089  0.6446
12558TIP3    H259090   4.177   0.596   5.107 -0.7139  0.0476 -0.6564
12559TIP3   OH259091   6.141   4.024  12.727 -0.1743  0.3160  0.0624
12559TIP3    H159092   6.197   4.079  12.673  1.9926 -3.2034 -1.6337
12559TIP3    H259093   6.071   3.995  12.667  1.0034 -1.8470 -0.3782
12560TIP3   OH259094   0.422   4.550  15.090 -0.0891  0.0387 -0.3319
12560TIP3    H159095   0.439   4.521  15.179 -1.3236  0.4511  0.0522
12560TIP3    H259096   0.327   4.549  15.082  0.0266 -1.6293 -2.2015
12561TIP3   OH259097   6.674   6.023   4.204 -0.4619 -0.3456  0.3049
12561TIP3    H159098   6.669   6.026   4.109 -2.8644  0.3325  0.3892
12561TIP3    H259099   6.696   5.932   4.224  2.0600 -0.0794 -0.8904
12562TIP3   OH259100   5.762   5.088  12.471 -0.0252  0.1351  0.2240
12562TIP3    H159101   5.851   5.112  12.495  0.2980 -0.5198 -0.2910
12562TIP3    H259102   5.714   5.088  12.554  1.1382 -2.3643  1.0215
12563TIP3   OH259103   4.786   5.331  17.052 -0.0340  0.1218 -0.1825
12563TIP3    H159104   4.879   5.334  17.028  0.0442  1.7598  0.1964
12563TIP3    H259105   4.781   5.263  17.119  1.2722  1.3603  1.2404
12564TIP3   OH259106   5.387   5.952   0.957  0.7399  0.0141 -0.5052
12564TIP3    H159107   5.359   5.861   0.973 -0.3604  0.4114 -0.0905
12564TIP3    H259108   5.430   5.949   0.871  0.5205 -0.8567 -0.5948
12565TIP3   OH259109   5.893   0.113   3.326 -0.8809  0.5372  0.3173
12565TIP3    H159110   5.865   0.173   3.257 -1.0485 -0.5224 -0.5508
12565TIP3    H259111   5.892   0.027   3.285 -0.3638 -0.0319  1.4666
12566TIP3   OH259112   4.547   3.085  16.357  0.8653 -0.1209 -0.4801
12566TIP3    H159113   4.578   2.995  16.353  3.1494  0.6227 -1.2908
12566TIP3    H259114   4.598   3.126  16.427 -1.3935  0.1726  1.1048
12567TIP3   OH259115   2.406   3.314  16.337 -0.1325 -0.0429 -0.0260
12567TIP3    H159116   2.436   3.261  16.410 -0.1834  0.7616  0.5913
12567TIP3    H259117   2.376   3.395  16.377  0.9134  0.8743 -1.0428
12568TIP3   OH259118   6.072   0.480  17.176  0.1773 -0.1796  0.6456
12568TIP3    H159119   6.058   0.464  17.269 -1.6499  0.0490  0.4604
12568TIP3    H259120   6.115   0.565  17.172  0.9521 -0.5249  1.2810
12569TIP3   OH259121   3.991   0.618  11.984  0.1534  0.3908 -0.4482
12569TIP3    H159122   3.971   0.711  11.981  1.2533  0.7814  1.7058
12569TIP3    H259123   4.078   0.614  12.025 -0.5722 -1.6095  1.1032
12570TIP3   OH259124   5.354   3.254   1.706 -0.3624 -0.3305  0.0766
12570TIP3    H159125   5.296   3.179   1.717  3.0768 -3.8130 -2.8424
12570TIP3    H259126   5.328   3.292   1.622  1.0133 -1.5046 -0.9241
12571TIP3   OH259127   3.401   3.720  12.921 -0.0350  0.0100 -0.1093
12571TIP3    H159128   3.338   3.721  12.993  1.0449 -0.7213  0.8892
12571TIP3    H259129   3.406   3.811  12.892 -1.2047  0.1495  0.0822
12572TIP3   OH259130   0.477   5.792   3.047 -0.1183  0.2461  0.0103
12572TIP3    H159131   0.448   5.815   3.135  0.9247 -0.3285  0.5228
12572TIP3    H259132   0.409   5.734   3.014 -0.3648  0.2116  0.5598
12573TIP3   OH259133   2.000   5.782  10.486 -0.4671  0.4572 -0.2988
12573TIP3    H159134   2.020   5.876  10.479  0.5056  0.2180 -0.9225
12573TIP3    H259135   2.078   5.739  10.452 -0.2445 -0.6316  1.4976
12574TIP3   OH259136   1.724   3.529   4.239  0.2930 -0.4889  0.0098
12574TIP3    H159137   1.652   3.575   4.195  0.6397  1.6202  1.4848
12574TIP3    H259138   1.691   3.514   4.328  1.9603  1.4375  1.0255
12575TIP3   OH259139   2.471   4.564   5.291  0.0709 -0.2456 -0.0789
12575TIP3    H159140   2.509   4.496   5.235  1.3903  0.1754  0.2524
12575TIP3    H259141   2.529   4.568   5.367 -1.1862 -0.1847  0.9020
12576TIP3   OH259142   3.471   2.951  17.025  0.0427  0.1101  0.0481
12576TIP3    H159143   3.472   2.950  17.120 -0.2302 -1.1376  0.0478
12576TIP3    H259144   3.493   2.862  16.999 -1.0517  0.1330 -1.0396
12577TIP3   OH259145   4.058   4.712  15.833 -0.6221 -0.9737 -0.0569
12577TIP3    H159146   4.091   4.702  15.923  0.9340  1.8032 -0.1879
12577TIP3    H259147   4.133   4.688  15.778 -0.6390  0.0273 -0.5260
12578TIP3   OH259148   0.619   0.775   3.090  0.3256 -0.7186  0.2127
12578TIP3    H159149   0.619   0.858   3.043 -0.0674 -0.9663 -0.2308
12578TIP3    H259150   0.607   0.799   3.182  1.5890 -0.1967  0.2704
12579TIP3   OH259151   2.685   0.721  15.050 -0.0726  0.4339 -0.0484
12579TIP3    H159152   2.665   0.644  15.104 -0.8903  1.3840  1.0579
12579TIP3    H259153   2.706   0.789  15.114  0.7121  1.1197 -1.0160
12580TIP3   OH259154   2.770   1.447   5.443 -0.2372 -0.4921  0.0607
12580TIP3    H159155   2.778   1.526   5.389  0.6686 -0.2231  0.5732
12580TIP3    H259156   2.675   1.440   5.459 -0.3804  0.2206 -0.3824
12581TIP3   OH259157   4.620   1.297  12.768  0.4234  0.0306 -0.0678
12581TIP3    H159158   4.613   1.275  12.861 -0.2027  1.0360  0.1328
12581TIP3    H259159   4.655   1.217  12.728  1.6576 -0.1002  1.1603
12582TIP3   OH259160   6.097   0.687   3.639 -0.2783 -0.3828  0.0511
12582TIP3    H159161   6.049   0.605   3.627  1.8718 -1.6817 -0.2313
12582TIP3    H259162   6.068   0.743   3.566 -1.3516 -1.1032 -0.0942
12583TIP3   OH259163   2.293   6.095   3.072  0.2917  0.2276  0.1762
12583TIP3    H159164   2.364   6.093   3.008 -1.3102 -0.2496 -1.6695
12583TIP3    H259165   2.265   6.004   3.081 -2.5413  0.7208 -2.1216
12584TIP3   OH259166   1.142   2.988  15.169  0.0555 -0.0274  0.5146
12584TIP3    H159167   1.157   2.898  15.141  0.0904 -0.9015  3.0138
12584TIP3    H259168   1.048   3.002  15.155  0.2370 -0.0808 -0.8079
12585TIP3   OH259169   1.741   6.185   4.578 -0.0177 -0.4563  0.1247
12585TIP3    H159170   1.751   6.267   4.531 -2.9219 -0.6422 -1.0419
12585TIP3    H259171   1.646   6.177   4.594  0.0960 -3.6393  0.0068
12586TIP3   OH259172   1.921   6.245   0.881  0.1436  0.0372 -0.0652
12586TIP3    H159173   1.901   6.336   0.858 -0.4913 -0.0640  0.0602
12586TIP3    H259174   1.836   6.201   0.879  0.4216 -0.5127  0.0658
12587TIP3   OH259175   0.489   4.406  14.870 -0.6366  0.1681  0.4985
12587TIP3    H159176   0.523   4.486  14.830 -1.3385  1.0969  1.6836
12587TIP3    H259177   0.480   4.428  14.963  0.7681 -1.8523  1.1754
12588TIP3   OH259178   2.391   0.118   2.360 -0.3998 -0.2584 -0.5271
12588TIP3    H159179   2.323   0.070   2.313 -2.3373  0.4098  1.3497
12588TIP3    H259180   2.460   0.054   2.377 -1.1363 -1.3196 -1.4289
12589TIP3   OH259181   2.743   3.930   1.078 -0.2601 -0.5916 -1.2048
12589TIP3    H159182   2.786   3.911   1.162 -3.1617  2.5744  1.3260
12589TIP3    H259183   2.810   3.974   1.027  1.6647 -2.7717 -0.7394
12590TIP3   OH259184   4.050   4.870  13.038  0.2726 -0.4781 -0.6436
12590TIP3    H159185   4.118   4.936  13.038  0.0600 -0.2456 -1.2971
12590TIP3    H259186   4.006   4.879  13.122  0.0150  0.4509 -0.8755
12591TIP3   OH259187   4.046   6.105  12.996  0.0722 -0.2366  0.2403
12591TIP3    H159188   4.000   6.187  13.016 -0.1601  0.5641 -3.0190
12591TIP3    H259189   4.106   6.128  12.925 -0.0712 -2.8871 -0.8499
12592TIP3   OH259190   4.095   2.758  11.368  0.0698 -0.0294 -0.1739
12592TIP3    H159191   4.127   2.832  11.421  2.6211 -0.6490 -0.7274
12592TIP3    H259192   4.078   2.796  11.282 -1.9549  0.5263  0.4012
12593TIP3   OH259193   4.001   4.712  16.738  0.7377 -0.5886 -0.1678
12593TIP3    H159194   4.018   4.659  16.816  0.7136 -0.9483 -0.4039
12593TIP3    H259195   3.931   4.665  16.692  0.5712 -0.2408 -0.2741
12594TIP3   OH259196   3.631   0.726  13.232 -0.0907 -0.0682  0.2847
12594TIP3    H159197   3.713   0.677  13.231  2.2875  3.4711  0.2205
12594TIP3    H259198   3.569   0.670  13.278  2.0351 -3.3487 -0.5141
12595TIP3   OH259199   0.583   1.359   2.177  0.1509 -0.0904 -0.2327
12595TIP3    H159200   0.620   1.444   2.152  0.8826  0.2296  1.7895
12595TIP3    H259201   0.506   1.380   2.229  1.1919 -0.5655  1.5959
12596TIP3   OH259202   0.453   6.031   4.496  0.4903  0.6317  0.4841
12596TIP3    H159203   0.478   6.059   4.408  1.8611 -0.1767  0.5866
12596TIP3    H259204   0.530   6.047   4.549  0.6062 -1.3065  0.9847
12597TIP3   OH259205   0.369   3.214  15.535 -0.6745 -0.7540 -0.0216
12597TIP3    H159206   0.293   3.237  15.480  1.0147  0.8562 -1.8814
12597TIP3    H259207   0.434   3.183  15.472  0.3324 -1.7797  1.4886
12598TIP3   OH259208   4.693   4.014   4.808  0.2201  1.0237 -0.0149
12598TIP3    H159209   4.679   4.089   4.866  1.9031  0.6192  0.9659
12598TIP3    H259210   4.787   4.013   4.793  0.0413 -0.0663 -1.1825
12599TIP3   OH259211   4.336   6.530  12.659  0.1606 -0.1672  0.2614
12599TIP3    H159212   4.274   6.525  12.585 -1.1130 -1.1431  1.3409
12599TIP3    H259213   4.344   6.624  12.677  1.1340  0.1626 -1.5976
12600TIP3   OH259214   3.304   4.089   1.599 -0.4378 -0.1995 -0.0373
12600TIP3    H159215   3.392   4.068   1.629 -1.5396 -1.2173  2.7364
12600TIP3    H259216   3.316   4.118   1.508  2.6047 -1.1971 -0.0490
12601TIP3   OH259217   1.341   2.721   0.162  0.2188  0.1057  0.1119
12601TIP3    H159218   1.248   2.701   0.150  0.7695 -3.3611  0.5562
12601TIP3    H259219   1.385   2.674   0.092  1.8206 -1.4332  2.0150
12602TIP3   OH259220   2.628   3.553   1.814 -0.5994 -0.0771  0.1664
12602TIP3    H159221   2.656   3.551   1.723  0.8644  0.5699  0.5836
12602TIP3    H259222   2.607   3.645   1.830  2.8399  0.6179  1.4976
12603TIP3   OH259223   0.653   5.691  16.540  0.8668  0.0111 -0.0534
12603TIP3    H159224   0.629   5.775  16.579 -2.7591  0.9387 -3.5878
12603TIP3    H259225   0.586   5.630  16.571 -0.5451  0.1759 -2.4822
12604TIP3   OH259226   4.043   0.234   2.200  0.1301  0.6717 -0.0275
12604TIP3    H159227   4.026   0.256   2.108  1.4596 -1.0381 -0.7238
12604TIP3    H259228   3.978   0.167   2.221  0.7020  0.0637 -0.1657
12605TIP3   OH259229   3.907   0.056   1.144 -0.5281  0.1622  0.0117
12605TIP3    H159230   3.857   0.127   1.105  0.1316  0.1352 -0.8990
12605TIP3    H259231   3.990   0.055   1.097  0.4867  0.4003  1.6850
12606TIP3   OH259232   0.891   2.389   4.450  0.5922  0.5211 -0.6930
12606TIP3    H159233   0.950   2.432   4.512 -0.5270  0.1367  0.6886
12606TIP3    H259234   0.807   2.432   4.463 -0.1633 -0.9846 -0.4292
12607TIP3   OH259235   5.728   3.032  13.014  0.0588 -0.0734 -0.2489
12607TIP3    H159236   5.635   3.052  13.026 -0.1061 -0.3562 -1.0269
12607TIP3    H259237   5.728   2.943  12.979  0.5858  0.2483 -1.0843
12608TIP3   OH259238   1.546   3.758  11.401  0.4705 -0.0645  0.1957
12608TIP3    H159239   1.539   3.673  11.444  0.1297 -0.6254 -0.9403
12608TIP3    H259240   1.578   3.738  11.313 -0.5579  0.8734 -0.4211
12609TIP3   OH259241   3.225   5.079  13.369 -0.1196  0.5225 -0.6305
12609TIP3    H159242   3.317   5.063  13.348  0.2288  0.9605  0.4796
12609TIP3    H259243   3.220   5.173  13.387 -0.9318  0.6286 -1.3527
12610TIP3   OH259244   2.820   0.349  12.920  0.3433  0.1267 -1.0508
12610TIP3    H159245   2.766   0.393  12.985  1.1658  0.1858 -0.3966
12610TIP3    H259246   2.773   0.362  12.837 -0.0806  1.1105 -0.6674
12611TIP3   OH259247   5.842   2.993  12.316  0.0126 -0.0509  0.0482
12611TIP3    H159248   5.796   3.069  12.351 -1.1719 -0.7953  0.1414
12611TIP3    H259249   5.794   2.969  12.237  0.6717 -0.4147 -0.2520
12612TIP3   OH259250   5.152   6.664  13.456 -0.4937  0.1278 -0.7362
12612TIP3    H159251   5.183   6.574  13.453 -1.1384 -0.1175 -0.1745
12612TIP3    H259252   5.181   6.697  13.541  0.9060  0.8944 -1.4628
12613TIP3   OH259253   0.464   6.370  13.008  0.1133  0.0347  0.6188
12613TIP3    H159254   0.398   6.306  13.034  1.3309 -0.4797  2.6263
12613TIP3    H259255   0.464   6.434  13.079  1.7726  0.0108  0.6833
12614TIP3   OH259256   6.752   4.974  16.632  0.2516 -0.1333  0.5909
12614TIP3    H159257   6.772   5.037  16.701  1.3363  0.1802  0.0143
12614TIP3    H259258   6.826   4.980  16.571 -0.2653 -1.0142 -0.1613
12615TIP3   OH259259   4.824   0.592   5.029  0.5573  0.7527 -0.4871
12615TIP3    H159260   4.850   0.651   5.100  0.9539  0.3252 -0.2677
12615TIP3    H259261   4.905   0.578   4.979  0.9563 -1.1013  0.5662
12616TIP3   OH259262   0.646   3.500   5.666 -0.2575  0.5034  0.3376
12616TIP3    H159263   0.630   3.582   5.619  0.9897  1.1081  0.9318
12616TIP3    H259264   0.739   3.503   5.689 -0.0574 -1.3018 -0.0556
12617TIP3   OH259265   4.352   6.293  10.856 -0.3000 -0.5995 -0.0214
12617TIP3    H159266   4.326   6.385  10.857  0.7564 -0.2853  1.1269
12617TIP3    H259267   4.364   6.272  10.764  1.0300  0.9000 -0.2257
12618TIP3   OH259268   0.780   0.671  11.852 -0.0498 -0.6314  0.0735
12618TIP3    H159269   0.792   0.765  11.864  1.8972 -1.0718  2.3590
12618TIP3    H259270   0.781   0.658  11.757  0.8002  1.5116 -0.2633
12619TIP3   OH259271   2.913   1.551  14.107 -0.6515  0.9677  0.2404
12619TIP3    H159272   2.840   1.498  14.140 -1.4197 -0.4576 -3.2853
12619TIP3    H259273   2.887   1.575  14.018  2.4623  1.9073 -0.5396
12620TIP3   OH259274   0.406   1.421   2.993  0.1412  0.2167  0.0820
12620TIP3    H159275   0.424   1.400   3.084  0.6519 -0.7410 -0.2279
12620TIP3    H259276   0.342   1.356   2.965  0.4315  0.1300 -0.4017
12621TIP3   OH259277   1.691   0.517  11.482  0.2735 -0.2677  0.2555
12621TIP3    H159278   1.646   0.433  11.482  0.7589 -0.5458  1.6029
12621TIP3    H259279   1.782   0.495  11.460  0.3077 -0.0373  0.1668
12622TIP3   OH259280   3.406   5.136  11.064 -0.1847 -0.4580 -0.1618
12622TIP3    H159281   3.493   5.170  11.086 -0.6898  1.2465 -0.6577
12622TIP3    H259282   3.374   5.195  10.997 -2.6083  0.2414  1.5068
12623TIP3   OH259283   1.299   1.116   5.669  0.3825 -0.4388  0.0538
12623TIP3    H159284   1.270   1.026   5.650  0.8827 -0.4061 -0.9181
12623TIP3    H259285   1.220   1.169   5.663  0.2710 -0.6607 -0.4305
12624TIP3   OH259286   6.256   5.806  13.320 -0.1187  0.0389  0.3025
12624TIP3    H159287   6.293   5.846  13.242 -0.2859 -0.7072 -0.1686
12624TIP3    H259288   6.305   5.724  13.331 -1.6888 -1.0397 -0.4191
12625TIP3   OH259289   1.599   0.068   1.294  0.2120 -0.3237  0.2102
12625TIP3    H159290   1.598   0.155   1.333  0.2235 -0.2214 -0.0146
12625TIP3    H259291   1.577   0.083   1.202 -1.4919 -0.7217  0.5115
12626TIP3   OH259292   1.734   0.689  15.373 -0.2331  0.2034  0.3041
12626TIP3    H159293   1.687   0.656  15.296  0.1843 -0.1621  0.2048
12626TIP3    H259294   1.741   0.783  15.358 -1.2970  0.3328  0.5155
12627TIP3   OH259295   0.090   0.643   2.913  0.6092 -0.2243 -0.2678
12627TIP3    H159296   0.094   0.600   2.999 -0.5734 -0.8856 -0.5093
12627TIP3    H259297   0.005   0.688   2.914  0.7062 -0.0241 -0.9902
12628TIP3   OH259298   0.748   6.041   0.426 -0.2815 -0.5073  0.1512
12628TIP3    H159299   0.718   5.972   0.485 -0.5021  0.2025  0.8841
12628TIP3    H259300   0.745   6.121   0.479  1.2017 -0.1285 -0.2826
12629TIP3   OH259301   5.605   4.206   5.202  0.1697 -0.0151  0.5617
12629TIP3    H159302   5.651   4.122   5.198 -0.1104 -0.1178 -2.1074
12629TIP3    H259303   5.621   4.247   5.117 -1.8494  1.4902  0.8238
12630TIP3   OH259304   2.497   1.226  13.942  1.1407  0.2424 -0.1331
12630TIP3    H159305   2.458   1.298  13.991 -0.1134  0.4545 -1.3914
12630TIP3    H259306   2.431   1.157  13.943  1.4088 -0.0387 -0.8544
12631TIP3   OH259307   4.001   5.435   0.446 -0.2795 -0.6321  0.1448
12631TIP3    H159308   4.048   5.357   0.417 -0.2263 -0.6765  0.3431
12631TIP3    H259309   4.063   5.507   0.435 -0.9092 -0.3172 -1.7158
12632TIP3   OH259310   3.874   5.340   6.497  0.3630 -0.0723 -0.1547
12632TIP3    H159311   3.918   5.270   6.545  0.0837 -0.1655 -0.0377
12632TIP3    H259312   3.804   5.370   6.555  0.8203  0.6743  0.0313
12633TIP3   OH259313   1.715   1.065  10.655  0.1302 -0.2318  0.4679
12633TIP3    H159314   1.626   1.055  10.691 -0.8978 -2.6155 -2.3246
12633TIP3    H259315   1.706   1.131  10.587  0.1676 -1.3186 -0.6173
12634TIP3   OH259316   6.576   6.021   5.096  0.6423 -0.0598  0.6022
12634TIP3    H159317   6.658   5.972   5.104  0.5767  0.1188  3.8551
12634TIP3    H259318   6.508   5.953   5.092  0.8375 -0.1971 -0.9851
12635TIP3   OH259319   1.441   1.970  17.196  0.3856  0.1835 -0.2093
12635TIP3    H159320   1.397   2.021  17.264  2.4518  0.3239  1.1297
12635TIP3    H259321   1.438   1.880  17.228  1.6069  0.2867  0.2908
12636TIP3   OH259322   3.558   5.711  12.803  0.7217  0.0407 -0.2455
12636TIP3    H159323   3.579   5.791  12.851 -0.0395 -0.2696  0.6153
12636TIP3    H259324   3.504   5.660  12.863 -1.6290  0.3321 -1.9657
12637TIP3   OH259325   3.179   5.331   4.250  0.0305 -0.2328  0.1136
12637TIP3    H159326   3.153   5.417   4.218  3.3527  1.5819  1.8318
12637TIP3    H259327   3.098   5.294   4.286 -1.6457  1.8208 -1.2801
12638TIP3   OH259328   6.046   5.296   2.024 -0.0788  0.4059 -0.5083
12638TIP3    H159329   6.128   5.284   1.977  0.0523  1.1916 -0.4987
12638TIP3    H259330   5.994   5.353   1.967  0.0732  1.3493  0.2692
12639TIP3   OH259331   0.568   2.418   0.210 -0.2354  0.0734  0.6348
12639TIP3    H159332   0.596   2.509   0.204 -0.5178  0.1188 -0.1102
12639TIP3    H259333   0.605   2.376   0.133  0.8232 -0.7188  1.5323
12640TIP3   OH259334   2.786   0.905   5.859 -0.0663 -0.1289 -0.2845
12640TIP3    H159335   2.758   0.945   5.942 -1.3572  0.1170 -0.8206
12640TIP3    H259336   2.821   0.978   5.808  0.4505 -0.2291 -0.0786
12641TIP3   OH259337   1.872   2.592  13.482 -0.1834 -0.0535 -0.3760
12641TIP3    H159338   1.965   2.579  13.463  0.3501  1.5965  0.9145
12641TIP3    H259339   1.846   2.510  13.524  0.2016 -1.2181 -2.2654
12642TIP3   OH259340   6.641   0.714  15.366  0.3290  0.3990  0.1911
12642TIP3    H159341   6.709   0.779  15.387 -0.8287  1.6652  0.1400
12642TIP3    H259342   6.620   0.731  15.274  0.3849 -0.4239  0.0169
12643TIP3   OH259343   2.121   1.901   1.361 -0.3386  0.1158  0.5207
12643TIP3    H159344   2.155   1.953   1.434  1.0434 -1.6020  1.1718
12643TIP3    H259345   2.078   1.826   1.403 -3.1064  1.0968 -0.3640
12644TIP3   OH259346   1.651   3.288   0.282  0.1876  0.4226  0.2575
12644TIP3    H159347   1.723   3.235   0.316 -0.3339  0.9822  2.4136
12644TIP3    H259348   1.572   3.245   0.313 -0.3021  1.3370  0.3303
12645TIP3   OH259349   5.213   4.526  13.397  0.0328  0.1848 -0.0827
12645TIP3    H159350   5.304   4.511  13.425  0.2804 -1.9905 -1.7702
12645TIP3    H259351   5.163   4.523  13.479  1.3022 -0.2727  0.7185
12646TIP3   OH259352   3.718   3.605   3.458 -0.0586  0.3487  0.5192
12646TIP3    H159353   3.724   3.697   3.432 -0.1867 -0.0609 -1.0872
12646TIP3    H259354   3.681   3.561   3.381  1.2178 -1.2394  0.7608
12647TIP3   OH259355   4.184   2.708   3.892 -0.1030 -0.1795 -0.9635
12647TIP3    H159356   4.132   2.681   3.968  0.9506  1.0154  0.2227
12647TIP3    H259357   4.120   2.744   3.830 -0.8301  0.1737 -0.0257
12648TIP3   OH259358   2.990   2.591  11.345  0.5325  0.2356  0.6117
12648TIP3    H159359   2.942   2.510  11.327 -1.6107  1.5866 -0.0736
12648TIP3    H259360   3.059   2.564  11.405  0.3544 -2.2244 -0.1637
12649TIP3   OH259361   5.300   5.034   0.716 -0.2367 -0.2627 -0.3250
12649TIP3    H159362   5.349   5.033   0.798  2.3420  1.2653 -1.7299
12649TIP3    H259363   5.340   4.965   0.663 -0.9599 -0.3178 -0.8184
12650TIP3   OH259364   1.854   5.878  15.699  0.0252 -0.1966 -0.0436
12650TIP3    H159365   1.860   5.785  15.720  1.2315 -0.6972 -2.3423
12650TIP3    H259366   1.922   5.919  15.753 -0.6293 -0.5714  1.1126
12651TIP3   OH259367   2.620   5.146  16.450 -0.1784  0.6643 -0.3974
12651TIP3    H159368   2.589   5.080  16.511 -1.0658  0.5606 -0.9446
12651TIP3    H259369   2.604   5.229  16.495 -0.0830  0.5571 -0.1639
12652TIP3   OH259370   0.288   2.274   1.426  0.3373  0.0413  0.0563
12652TIP3    H159371   0.383   2.284   1.424  0.2828  1.0563 -2.8053
12652TIP3    H259372   0.265   2.244   1.338 -2.0215  0.3088  0.5063
12653TIP3   OH259373   2.562   6.746   2.973 -0.4137  0.0407  0.3050
12653TIP3    H159374   2.530   6.819   3.026 -1.4608 -0.7919  0.8719
12653TIP3    H259375   2.487   6.722   2.917  0.8868  1.3689 -2.1590
12654TIP3   OH259376   4.044   6.757  10.924  0.0735 -0.1419 -0.1537
12654TIP3    H159377   4.118   6.781  10.868 -0.7329 -0.7068 -1.5055
12654TIP3    H259378   4.084   6.714  11.000  1.2810  1.9015  0.4458
12655TIP3   OH259379   0.581   6.645  15.971  0.2152  0.3970  0.0096
12655TIP3    H159380   0.664   6.607  16.000  0.0644  0.3769  0.4270
12655TIP3    H259381   0.544   6.685  16.050 -0.8846 -0.9065  0.1888
12656TIP3   OH259382   6.696   0.353  15.823 -0.2009 -0.4946  0.2774
12656TIP3    H159383   6.620   0.394  15.782 -0.1048  1.1100  1.6064
12656TIP3    H259384   6.747   0.427  15.857 -0.7981 -1.6891  4.1793
12657TIP3   OH259385   4.228   5.720   2.793 -0.3130 -0.2651  0.0116
12657TIP3    H159386   4.313   5.720   2.750 -0.3865  2.6209 -0.3486
12657TIP3    H259387   4.228   5.799   2.847 -2.4935 -0.5761  0.5889
12658TIP3   OH259388   4.888   0.734   2.706  0.3879 -0.6216  0.2821
12658TIP3    H159389   4.889   0.769   2.617  1.4229 -0.8999  0.1753
12658TIP3    H259390   4.906   0.641   2.696 -0.1294 -0.7807  0.7439
12659TIP3   OH259391   5.995   1.637  12.339 -0.2684  0.8977 -0.6482
12659TIP3    H159392   5.959   1.603  12.421 -2.0559  1.2098 -1.2714
12659TIP3    H259393   6.044   1.564  12.302 -0.2069  0.4697  0.2363
12660TIP3   OH259394   1.735   3.075   6.564 -0.3664 -0.2212  0.1043
12660TIP3    H159395   1.733   3.146   6.629 -0.2596 -0.4015  0.3052
12660TIP3    H259396   1.824   3.078   6.529  0.4367 -1.7727  1.8124
12661TIP3   OH259397   2.511   4.822  13.494  0.2231 -0.2155  0.4137
12661TIP3    H159398   2.538   4.779  13.575 -2.1593 -1.2517  0.7674
12661TIP3    H259399   2.538   4.763  13.425 -1.4508 -1.4853  0.7873
12662TIP3   OH259400   2.793   6.080  14.204  0.0106  0.4467 -0.3311
12662TIP3    H159401   2.774   6.146  14.271  0.2527  0.2774 -0.0953
12662TIP3    H259402   2.880   6.046  14.226 -0.9981 -1.5639  0.9132
12663TIP3   OH259403   3.678   2.054   0.963 -0.0348 -0.0654  0.9551
12663TIP3    H159404   3.605   2.006   0.924  2.0276 -0.7793 -2.4139
12663TIP3    H259405   3.741   1.986   0.988  1.7309  0.6178 -1.3056
12664TIP3   OH259406   3.555   4.035  15.799  0.7926 -0.1768 -0.0411
12664TIP3    H159407   3.510   3.984  15.732  2.3095 -0.2353 -1.0922
12664TIP3    H259408   3.488   4.058  15.862 -0.1529 -2.6017 -0.0487
12665TIP3   OH259409   5.907   4.276  10.952 -0.5680  0.1890 -0.0307
12665TIP3    H159410   5.957   4.216  10.898 -2.3956 -0.9286 -0.5703
12665TIP3    H259411   5.867   4.337  10.890 -1.0364  0.1633  0.2334
12666TIP3   OH259412   6.258   1.415   5.381 -0.0046  0.5087 -0.5484
12666TIP3    H159413   6.252   1.489   5.442 -0.6264  0.8182 -0.9805
12666TIP3    H259414   6.349   1.417   5.349  0.1427  0.7278 -0.1200
12667TIP3   OH259415   4.291   1.614  10.675 -0.2643 -0.3952  0.0040
12667TIP3    H159416   4.385   1.596  10.684 -0.7425 -2.6124  1.4226
12667TIP3    H259417   4.280   1.702  10.711  1.3152  0.0808 -0.5783
12668TIP3   OH259418   5.751   6.426  10.400 -0.1275  0.4175  0.5055
12668TIP3    H159419   5.718   6.337  10.406  0.8039 -0.0887 -1.2081
12668TIP3    H259420   5.714   6.460  10.319  2.7279  0.1142 -1.0514
12669TIP3   OH259421   5.285   3.785  15.982 -0.2867  0.0658 -0.3443
12669TIP3    H159422   5.298   3.711  16.040 -0.2322  0.2772 -0.0830
12669TIP3    H259423   5.328   3.760  15.900  0.3037  0.0763 -0.0403
12670TIP3   OH259424   2.966   6.384  15.645 -0.4103 -0.4074  0.6587
12670TIP3    H159425   2.886   6.413  15.690  0.2512  2.9834 -0.0706
12670TIP3    H259426   3.037   6.414  15.702  0.3711  1.6946 -1.2723
12671TIP3   OH259427   2.112   5.091  11.857 -0.2291 -0.7086 -0.2521
12671TIP3    H159428   2.080   5.174  11.820  0.7746  0.0094  0.4516
12671TIP3    H259429   2.142   5.114  11.945 -0.9482 -2.0465  0.3746
12672TIP3   OH259430   6.030   0.465   4.772  0.1970 -0.6130  0.4626
12672TIP3    H159431   6.018   0.542   4.717  0.6903 -0.7719  0.1208
12672TIP3    H259432   5.972   0.478   4.846 -0.0517 -0.1245  0.1817
12673TIP3   OH259433   2.632   6.052  15.611 -0.0828  0.3006  0.6940
12673TIP3    H159434   2.552   6.006  15.586  0.4191  0.7191 -2.0247
12673TIP3    H259435   2.639   6.039  15.705 -3.2150  0.0815  0.9960
12674TIP3   OH259436   3.403   1.629   4.235 -0.1095  0.5557 -0.3725
12674TIP3    H159437   3.384   1.686   4.160  0.1014  0.2728 -0.6409
12674TIP3    H259438   3.397   1.540   4.200  1.2111  0.4415 -0.3523
12675TIP3   OH259439   3.144   0.632   2.165 -0.1063 -0.1443  0.2576
12675TIP3    H159440   3.166   0.572   2.236  0.7762  1.3490  1.3042
12675TIP3    H259441   3.199   0.604   2.092 -0.4526 -1.2122  0.3890
12676TIP3   OH259442   1.991   2.265  15.787 -0.3584 -0.3010  0.6237
12676TIP3    H159443   2.037   2.339  15.828  2.1336 -1.7677  0.6943
12676TIP3    H259444   2.036   2.187  15.820 -1.3484 -1.7512 -1.2397
12677TIP3   OH259445   5.366   4.285   0.718  0.0145 -0.4169 -0.2103
12677TIP3    H159446   5.424   4.246   0.783  1.5277 -0.9175 -1.7779
12677TIP3    H259447   5.409   4.369   0.696 -0.5798 -0.1639 -0.4217
12678TIP3   OH259448   3.009   2.977   4.236 -0.2102 -0.5541 -0.0032
12678TIP3    H159449   2.921   2.938   4.237  0.2370 -1.6132  0.1537
12678TIP3    H259450   3.057   2.922   4.174  0.5077 -0.3816  0.4012
12679TIP3   OH259451   2.681   3.595   4.815  0.0922  0.2285  0.4214
12679TIP3    H159452   2.616   3.545   4.766  0.6354  0.1216 -0.1969
12679TIP3    H259453   2.683   3.681   4.772  1.4841 -0.2690 -0.5881
12680TIP3   OH259454   4.619   5.066  12.605 -0.0345  0.1969 -0.2030
12680TIP3    H159455   4.589   4.986  12.648  0.4722  0.0118 -0.1839
12680TIP3    H259456   4.714   5.054  12.597  0.3041  1.5266  1.3317
12681TIP3   OH259457   3.204   4.354  14.911  0.7017  0.0026  0.0957
12681TIP3    H159458   3.120   4.385  14.944 -0.1241 -1.0459 -0.9517
12681TIP3    H259459   3.216   4.269  14.952  1.4662  0.3285  0.5630
12682TIP3   OH259460   6.382   2.877  11.338  0.1550 -0.5400  0.3241
12682TIP3    H159461   6.304   2.932  11.334  1.6853  1.7261 -1.2534
12682TIP3    H259462   6.383   2.830  11.255  1.0174  0.3408 -0.1865
12683TIP3   OH259463   1.383   5.735   0.763  0.4223 -0.3106  0.2067
12683TIP3    H159464   1.445   5.799   0.798  0.5846 -0.1161 -0.4265
12683TIP3    H259465   1.301   5.783   0.756  0.4569 -0.2715  0.0660
12684TIP3   OH259466   6.258   6.521   0.583  0.4134  0.0031 -0.0671
12684TIP3    H159467   6.321   6.477   0.525 -0.2024 -0.5800 -0.3231
12684TIP3    H259468   6.264   6.474   0.666  0.1278 -0.2335 -0.1774
12685TIP3   OH259469   5.370   2.462  13.303 -0.1663 -0.9399  0.1066
12685TIP3    H159470   5.416   2.406  13.240  1.2326 -0.7474  0.9169
12685TIP3    H259471   5.310   2.402  13.348 -1.7390 -0.9424 -1.8561
12686TIP3   OH259472   1.700   1.343  13.424  0.6322  0.5974 -0.1340
12686TIP3    H159473   1.726   1.373  13.511 -1.5382  0.3834  0.6304
12686TIP3    H259474   1.779   1.301  13.389  1.2944 -0.1204  2.0812
12687TIP3   OH259475   2.687   1.827   5.507  0.1514 -0.2809  0.2538
12687TIP3    H159476   2.659   1.766   5.439  1.2420 -0.5702  0.0375
12687TIP3    H259477   2.689   1.774   5.587  0.8478 -0.4727  0.1150
12688TIP3   OH259478   3.672   0.713  16.851  0.8202 -0.8032  0.0879
12688TIP3    H159479   3.726   0.792  16.852  1.9648 -1.5728  0.8654
12688TIP3    H259480   3.714   0.654  16.914 -0.7379 -1.5593  0.4665
12689TIP3   OH259481   6.056   2.674  11.916  0.5519 -0.3281  0.1180
12689TIP3    H159482   6.071   2.729  11.839  2.1962 -0.7520  0.0883
12689TIP3    H259483   6.044   2.736  11.988 -0.4367  0.0676 -0.3744
12690TIP3   OH259484   5.334   2.351   0.179  0.1375 -0.2421 -0.0751
12690TIP3    H159485   5.317   2.286   0.248  0.0837 -0.8977 -0.6945
12690TIP3    H259486   5.426   2.376   0.192 -0.3665  1.0212  1.3644
12691TIP3   OH259487   2.802   5.403   2.847 -0.6214  0.0201 -0.4395
12691TIP3    H159488   2.831   5.457   2.774 -3.5463 -0.5852 -2.2017
12691TIP3    H259489   2.801   5.314   2.813 -0.5234 -0.5050  0.8686
12692TIP3   OH259490   4.122   3.819  12.018 -0.5107  0.3414 -0.1569
12692TIP3    H159491   4.075   3.833  11.936 -0.6607  1.3112  0.0901
12692TIP3    H259492   4.209   3.855  12.002 -0.6590  0.8786  0.2291
12693TIP3   OH259493   0.504   3.053  13.725 -0.4176 -0.7987  0.6049
12693TIP3    H159494   0.529   3.087  13.639 -1.0998 -0.8172  0.3975
12693TIP3    H259495   0.515   2.959  13.718 -0.4564 -0.7989  0.5483
12694TIP3   OH259496   1.505   4.342   3.497  0.1639  0.2903 -0.1162
12694TIP3    H159497   1.450   4.341   3.575  0.6295 -0.1874  0.2067
12694TIP3    H259498   1.494   4.431   3.461 -0.0067  0.5265  0.5148
12695TIP3   OH259499   3.567   0.672  12.621  0.3573 -0.3028 -0.2536
12695TIP3    H159500   3.577   0.718  12.537  0.4428  0.7772  0.3338
12695TIP3    H259501   3.649   0.689  12.667  0.3683 -1.0151 -0.0055
12696TIP3   OH259502   5.666   4.618   1.469  0.0330  0.4996  0.2793
12696TIP3    H159503   5.672   4.536   1.518  1.8525  0.2129 -0.3178
12696TIP3    H259504   5.573   4.638   1.465 -0.5087 -1.8497 -0.0543
12697TIP3   OH259505   5.481   5.683  10.435  0.1777 -0.0215  0.2743
12697TIP3    H159506   5.463   5.686  10.529 -1.4827  0.0240 -0.0206
12697TIP3    H259507   5.419   5.745  10.397  1.5363  0.7420 -0.7693
12698TIP3   OH259508   1.881   5.478  16.888  0.0897  0.6336 -0.0597
12698TIP3    H159509   1.931   5.416  16.940  0.3108 -1.3695 -2.4822
12698TIP3    H259510   1.945   5.542  16.858  0.7388 -0.4497 -1.0402
12699TIP3   OH259511   0.602   4.087  11.160 -0.0988  0.4426 -0.3231
12699TIP3    H159512   0.542   4.066  11.089 -0.2826 -1.4506  0.3310
12699TIP3    H259513   0.671   4.140  11.120  0.4809 -1.6139 -2.2187
12700TIP3   OH259514   4.580   6.404  12.737  0.1864  0.6574  0.1944
12700TIP3    H159515   4.611   6.442  12.655  0.3894  0.5729  0.2319
12700TIP3    H259516   4.489   6.434  12.744  0.6052  1.8459  0.6567
12701TIP3   OH259517   3.809   3.274   4.695 -0.1131 -0.2024 -0.2374
12701TIP3    H159518   3.861   3.354   4.708 -0.0655 -0.3755  0.6554
12701TIP3    H259519   3.731   3.305   4.649  0.5237  0.1416 -1.1182
12702TIP3   OH259520   6.094   0.815   3.403  0.4268 -0.1440  0.7756
12702TIP3    H159521   6.090   0.731   3.356  0.5561  0.4345 -0.3079
12702TIP3    H259522   6.175   0.855   3.373  0.9630 -0.1259  2.1870
12703TIP3   OH259523   1.887   0.022   3.144 -0.5054  0.6027  0.1412
12703TIP3    H159524   1.887  -0.018   3.057  1.3866 -1.3412  0.9391
12703TIP3    H259525   1.801   0.063   3.152 -0.5513  1.2899 -2.8060
12704TIP3   OH259526   4.226   2.791   0.340 -0.2754 -0.3917 -0.0079
12704TIP3    H159527   4.307   2.829   0.375 -0.4999 -0.8730  1.0662
12704TIP3    H259528   4.156   2.829   0.393 -0.5476 -1.8482  0.7250
12705TIP3   OH259529   5.860   1.113  16.675 -0.1503  0.3735 -0.3131
12705TIP3    H159530   5.792   1.055  16.707 -2.1989  1.2231 -2.7593
12705TIP3    H259531   5.919   1.057  16.625 -0.7747  0.0387 -0.6824
12706TIP3   OH259532   6.268   3.640   0.559  0.1554  0.0205 -0.0308
12706TIP3    H159533   6.310   3.591   0.489  2.2700 -1.0750  1.8581
12706TIP3    H259534   6.262   3.730   0.526  0.9088 -0.4881 -1.6596
12707TIP3   OH259535   3.664   6.053  15.119  0.1748  1.1421 -0.2006
12707TIP3    H159536   3.691   6.145  15.117  2.4076  0.5990  1.0454
12707TIP3    H259537   3.709   6.013  15.045 -0.2398  0.9187 -0.3353
12708TIP3   OH259538   4.653   6.172  16.978 -0.4769  0.4167 -0.0434
12708TIP3    H159539   4.566   6.164  17.018  0.5276  0.0938  2.1908
12708TIP3    H259540   4.713   6.178  17.052  1.3195  1.9593 -1.5295
12709TIP3   OH259541   6.413   1.162   1.931  0.0339 -0.8169 -0.1748
12709TIP3    H159542   6.387   1.115   2.010 -0.0798 -1.3484 -0.5262
12709TIP3    H259543   6.392   1.253   1.950  1.3365 -0.7257  0.9683
12710TIP3   OH259544   1.214   5.493  14.590 -0.0867 -0.2622 -0.1111
12710TIP3    H159545   1.190   5.465  14.502 -2.2156 -3.2858  1.2685
12710TIP3    H259546   1.297   5.449  14.606  0.1318  0.0144 -0.4524
12711TIP3   OH259547   3.067   6.647   0.724 -0.0680 -0.3789  0.4752
12711TIP3    H159548   2.993   6.599   0.764 -0.8325 -1.4464 -2.0326
12711TIP3    H259549   3.136   6.582   0.717  0.5233  0.1539  1.1866
12712TIP3   OH259550   1.399   3.368  15.034 -0.6422  0.0283 -0.2626
12712TIP3    H159551   1.443   3.323  15.106  2.1807 -0.3495 -2.0795
12712TIP3    H259552   1.454   3.444  15.015 -0.2071 -0.8593 -3.1244
12713TIP3   OH259553   6.087   1.059  15.099  0.0511  0.1534 -0.4404
12713TIP3    H159554   5.998   1.024  15.109 -0.5397  1.5042 -0.8162
12713TIP3    H259555   6.116   1.026  15.014 -0.5404  0.6426 -0.8406
12714TIP3   OH259556   2.019   5.173  15.393 -0.0612 -0.2278 -0.0635
12714TIP3    H159557   1.968   5.120  15.331 -1.7790 -0.9409  1.8356
12714TIP3    H259558   2.087   5.114  15.426  0.2995 -0.1179 -0.6036
12715TIP3   OH259559   3.628   5.959   0.852 -0.9344  0.0195  0.1409
12715TIP3    H159560   3.627   5.941   0.758  0.9808 -0.8290  0.2454
12715TIP3    H259561   3.691   5.896   0.888 -0.7265  1.1278  1.8251
12716TIP3   OH259562   1.859   3.205  13.677  0.3501  0.2500  0.1324
12716TIP3    H159563   1.827   3.168  13.759 -0.3305 -2.4557 -1.2370
12716TIP3    H259564   1.954   3.207  13.688  0.2940 -0.4408  0.8533
12717TIP3   OH259565   5.718   3.869   4.118 -0.5610  0.3219  0.1415
12717TIP3    H159566   5.782   3.863   4.189 -0.1305  0.2333 -0.2482
12717TIP3    H259567   5.634   3.881   4.162  0.0413  3.5475  0.6614
12718TIP3   OH259568   2.341   5.817   6.290 -0.0854 -0.1823 -0.0111
12718TIP3    H159569   2.399   5.774   6.227  0.0036  0.5059 -0.4048
12718TIP3    H259570   2.259   5.767   6.285  0.2407 -0.7259  0.0362
12719TIP3   OH259571   4.392   1.269  10.532  0.4349  0.8282 -0.2409
12719TIP3    H159572   4.334   1.271  10.608  1.5092 -0.0988  0.6402
12719TIP3    H259573   4.352   1.330  10.469 -0.4904  1.5897  1.0459
12720TIP3   OH259574   6.556   1.883   3.149  0.1528 -0.1698  0.2755
12720TIP3    H159575   6.470   1.897   3.109  0.6289  1.7036 -0.2087
12720TIP3    H259576   6.542   1.813   3.213 -1.3557 -1.0086 -0.9081
12721TIP3   OH259577   1.958   4.737   1.031  0.7898  0.5772  0.0806
12721TIP3    H159578   1.923   4.824   1.049  0.1521  0.0815  1.3582
12721TIP3    H259579   1.913   4.680   1.094  0.7492 -0.7695 -1.1264
12722TIP3   OH259580   6.427   1.961  16.381 -0.0911  0.1203  0.1316
12722TIP3    H159581   6.472   1.948  16.297  1.4302  0.3431  0.8778
12722TIP3    H259582   6.368   2.035  16.364  0.6734  0.5973 -0.5874
12723TIP3   OH259583   6.412   1.025   4.447 -0.4806 -0.5232  0.7266
12723TIP3    H159584   6.342   1.028   4.513 -0.0626 -0.8415  1.1917
12723TIP3    H259585   6.391   0.948   4.394  0.1025 -1.2597  1.5395
12724TIP3   OH259586   3.774   2.205   1.864  0.1088  0.0500  0.3598
12724TIP3    H159587   3.718   2.128   1.880 -0.6469  0.8092  1.5466
12724TIP3    H259588   3.718   2.266   1.817  0.7626 -0.1502 -0.7327
12725TIP3   OH259589   5.784   5.272   4.561  0.1542 -0.2937  0.0468
12725TIP3    H159590   5.726   5.212   4.514 -2.3047  1.5323  0.5599
12725TIP3    H259591   5.763   5.259   4.653 -0.0383  0.9569  0.1966
12726TIP3   OH259592   4.904   0.194  11.932 -0.1802 -0.1984  0.3071
12726TIP3    H159593   4.915   0.258  11.862 -2.1012  0.7825  0.8291
12726TIP3    H259594   4.934   0.111  11.893  2.0028  0.9003 -0.4926
12727TIP3   OH259595   5.225   4.984  13.081  0.4033 -0.0655  0.2108
12727TIP3    H159596   5.200   4.917  13.144  1.6139 -2.1012 -1.3370
12727TIP3    H259597   5.313   5.011  13.107  0.5310 -0.2220 -0.0524
12728TIP3   OH259598   1.593   1.100   3.396  0.4512 -0.3039  0.1414
12728TIP3    H159599   1.570   1.007   3.396 -1.1098  0.0226  1.7939
12728TIP3    H259600   1.629   1.117   3.483  1.7535  0.4350 -0.5110
12729TIP3   OH259601   4.880   1.130  14.920  0.6295  0.1354 -0.3469
12729TIP3    H159602   4.965   1.153  14.959 -0.1522  2.7752  0.0566
12729TIP3    H259603   4.897   1.121  14.827  1.0244  3.2390 -0.6725
12730TIP3   OH259604   4.142   1.772   5.908 -0.5625  0.2531  0.7800
12730TIP3    H159605   4.048   1.781   5.923 -0.8819 -2.0228  0.4912
12730TIP3    H259606   4.174   1.720   5.982  0.0995 -0.5346 -0.0191
12731TIP3   OH259607   5.083   6.042   4.104 -0.1487 -0.5521 -0.4070
12731TIP3    H159608   5.167   6.060   4.062 -0.8695  1.8713 -0.9272
12731TIP3    H259609   5.026   6.013   4.033 -0.0273 -1.2780 -0.2145
12732TIP3   OH259610   0.125   1.353   2.974 -0.0062  0.0869  0.4391
12732TIP3    H159611   0.133   1.448   2.973  0.8831  0.0213  0.2636
12732TIP3    H259612   0.075   1.334   3.053  0.6691  0.6538  1.0217
12733TIP3   OH259613   6.655   0.438  16.823  0.0289  0.0027  0.2266
12733TIP3    H159614   6.615   0.523  16.841  2.2064  1.3047 -0.6935
12733TIP3    H259615   6.675   0.440  16.729  0.5185 -1.3324  0.2812
12734TIP3   OH259616   5.111   5.831   1.898  0.0765  0.6763  0.4038
12734TIP3    H159617   5.169   5.759   1.924 -1.4986 -0.3244  1.3037
12734TIP3    H259618   5.121   5.837   1.803 -0.2978 -1.2458  0.1979
12735TIP3   OH259619   2.417   2.297   0.450 -0.9608 -1.0849 -0.1989
12735TIP3    H159620   2.417   2.201   0.454 -0.6302 -1.0643  0.5563
12735TIP3    H259621   2.489   2.318   0.390 -0.7098 -1.3062  0.0166
12736TIP3   OH259622   2.712   0.298  17.025 -0.1453  0.4820  0.2976
12736TIP3    H159623   2.801   0.287  16.994  0.3832  0.0694  1.8854
12736TIP3    H259624   2.721   0.325  17.116 -1.6371  1.3497  0.2314
12737TIP3   OH259625   5.274   1.492   4.525 -0.1343  0.4408 -0.2720
12737TIP3    H159626   5.325   1.516   4.448  0.0608  0.7793 -0.0406
12737TIP3    H259627   5.261   1.397   4.517 -1.1303  0.6482 -1.3236
12738TIP3   OH259628   4.540   3.532   1.686 -0.7160 -0.0388  0.3633
12738TIP3    H159629   4.624   3.488   1.695 -1.2850 -1.1593  0.4252
12738TIP3    H259630   4.475   3.463   1.701 -1.6500  0.9680  1.1170
12739TIP3   OH259631   6.561   0.559  16.140  1.1166 -0.2236  0.1916
12739TIP3    H159632   6.597   0.615  16.072 -0.3020  2.0477  1.1808
12739TIP3    H259633   6.603   0.589  16.221  1.4029 -1.6097  0.5747
12740TIP3   OH259634   2.242   3.479  11.653 -0.7001  0.6209  0.0159
12740TIP3    H159635   2.167   3.456  11.597 -0.8836  1.4702 -0.1036
12740TIP3    H259636   2.309   3.510  11.591 -0.1484 -0.3589  0.0991
12741TIP3   OH259637   0.139   2.370  12.620 -0.5244  0.4129  0.3164
12741TIP3    H159638   0.143   2.435  12.690 -0.5037  0.4495  0.2813
12741TIP3    H259639   0.048   2.342  12.618 -0.4623  0.2030  0.5478
12742TIP3   OH259640   4.667   0.141   4.481  0.5746 -0.1616 -0.0033
12742TIP3    H159641   4.612   0.109   4.409  1.2536 -0.4141 -0.4270
12742TIP3    H259642   4.635   0.230   4.498 -0.3975 -0.5396  0.2216
12743TIP3   OH259643   1.006   3.288  16.058 -0.2118 -0.7630 -0.1685
12743TIP3    H159644   0.954   3.351  16.108  0.4106 -0.7148  0.4269
12743TIP3    H259645   0.993   3.315  15.966 -2.5807 -1.7746 -0.2156
12744TIP3   OH259646   3.835   2.402  14.321 -0.8023 -0.2217  0.7075
12744TIP3    H159647   3.797   2.386  14.407  1.8489 -4.2415  1.3945
12744TIP3    H259648   3.779   2.354  14.260 -1.2980  0.5823  0.5194
12745TIP3   OH259649   6.314   3.588   4.400 -0.5504 -0.0912 -0.1287
12745TIP3    H159650   6.236   3.563   4.450 -1.0032  2.0392  0.3216
12745TIP3    H259651   6.379   3.520   4.421 -1.5637 -0.6767  1.2815
12746TIP3   OH259652   5.938   6.437   4.444 -0.3441 -0.4641 -0.1302
12746TIP3    H159653   5.966   6.391   4.523 -0.7472  2.0092  1.5284
12746TIP3    H259654   6.005   6.503   4.429 -1.3788  0.5113 -0.5945
12747TIP3   OH259655   4.772   3.228  13.128 -0.2119  0.2191  0.5274
12747TIP3    H159656   4.687   3.193  13.099 -0.0983 -0.9029  1.4719
12747TIP3    H259657   4.822   3.150  13.153  1.9817  0.6255 -2.2019
12748TIP3   OH259658   0.097   1.026  13.894  0.6008 -0.0996  0.5833
12748TIP3    H159659   0.143   1.104  13.862  0.2760  0.3825  1.2707
12748TIP3    H259660   0.089   1.039  13.988 -1.1854 -0.0389  0.4550
12749TIP3   OH259661   0.794   3.422   6.085  0.2068  0.1508  0.0180
12749TIP3    H159662   0.790   3.373   6.003 -1.5223 -0.3018  0.3391
12749TIP3    H259663   0.703   3.440   6.107  0.6671  0.8083  1.5341
12750TIP3   OH259664   4.503   1.145  11.539  0.0788 -0.0343  0.5066
12750TIP3    H159665   4.472   1.055  11.550 -1.7806  0.6786  1.4018
12750TIP3    H259666   4.595   1.141  11.565 -0.0008 -1.6484  0.6600
12751TIP3   OH259667   2.827   6.028   3.447 -0.1608 -0.6666 -0.3459
12751TIP3    H159668   2.904   6.085   3.439  0.1960 -1.0715  0.1435
12751TIP3    H259669   2.863   5.945   3.477 -0.6956 -1.1078 -0.9078
12752TIP3   OH259670   0.267   5.333   5.864 -0.0848  0.5938 -0.0459
12752TIP3    H159671   0.269   5.389   5.787  1.5511  0.7277  0.0568
12752TIP3    H259672   0.214   5.381   5.927  0.5514  1.6188 -0.2712
12753TIP3   OH259673   5.430   4.824   0.561  0.0410 -0.1468  0.2706
12753TIP3    H159674   5.522   4.828   0.536  0.6095 -1.7378  1.8869
12753TIP3    H259675   5.398   4.743   0.521 -0.9379  0.8016 -0.9768
12754TIP3   OH259676   5.761   6.000   0.594  0.1602 -0.2296  0.2880
12754TIP3    H159677   5.750   6.095   0.584 -2.2098 -0.3338  1.2400
12754TIP3    H259678   5.759   5.966   0.505  0.7019  0.5668 -0.0420
12755TIP3   OH259679   4.533   0.733   0.154 -0.8562  0.2295 -0.1206
12755TIP3    H159680   4.600   0.771   0.097 -1.5500  0.8254 -0.5703
12755TIP3    H259681   4.580   0.670   0.209 -0.0322  0.2387 -0.7952
12756TIP3   OH259682   5.711   6.637  11.166 -0.2342  0.0799 -0.1766
12756TIP3    H159683   5.703   6.687  11.248  0.7226  1.4342 -0.8496
12756TIP3    H259684   5.645   6.569  11.172 -1.3264  1.1820  1.0004
12757TIP3   OH259685   4.731   4.884   4.255  0.0811 -0.4693 -0.2640
12757TIP3    H159686   4.715   4.876   4.349  0.1124  1.0238 -0.1025
12757TIP3    H259687   4.660   4.833   4.215  0.9607 -2.4325  0.5511
12758TIP3   OH259688   2.583   5.997   6.452 -0.0726  0.0442  0.7055
12758TIP3    H159689   2.531   5.992   6.372 -0.0649  0.7145  0.6571
12758TIP3    H259690   2.662   5.948   6.432 -0.4283 -0.4879  0.5827
12759TIP3   OH259691   4.250   4.956   2.014 -0.0465  0.5678  0.0814
12759TIP3    H159692   4.268   4.918   2.100 -0.9762  1.4837  0.6946
12759TIP3    H259693   4.333   4.947   1.967  0.9301  1.3034  1.5606
12760TIP3   OH259694   4.782   2.660  15.348 -0.2041  0.5011 -0.4480
12760TIP3    H159695   4.841   2.653  15.424  1.6819  0.4001 -1.8546
12760TIP3    H259696   4.694   2.664  15.387  0.6895  0.5900  1.7437
12761TIP3   OH259697   5.662   2.231  15.305 -0.4742  0.1736 -0.1056
12761TIP3    H159698   5.671   2.185  15.388  1.9338 -1.1803 -1.0171
12761TIP3    H259699   5.569   2.222  15.283 -0.7172 -1.3623  1.3682
12762TIP3   OH259700   4.836   2.286  14.025  0.2429 -0.6899  0.1590
12762TIP3    H159701   4.785   2.299  14.104  0.6629 -0.9126  0.4689
12762TIP3    H259702   4.778   2.313  13.954  0.3402  0.8310  0.6222
12763TIP3   OH259703   3.446   1.190   0.373 -0.6682 -0.5579  0.3434
12763TIP3    H159704   3.357   1.166   0.347 -0.5757 -0.3959 -0.1365
12763TIP3    H259705   3.447   1.178   0.468 -1.5840  0.6420  0.5377
12764TIP3   OH259706   0.882   2.008   3.696 -0.7813  0.4798 -0.0242
12764TIP3    H159707   0.971   2.008   3.660 -0.7591 -0.1864  0.0164
12764TIP3    H259708   0.876   2.091   3.745 -0.8179  1.4003 -1.5290
12765TIP3   OH259709   1.357   3.262   5.125  0.2865  0.5155  0.4839
12765TIP3    H159710   1.430   3.215   5.084  0.2351  1.8494 -1.2369
12765TIP3    H259711   1.390   3.284   5.212  1.3262 -0.3016  0.3334
12766TIP3   OH259712   0.932   5.776   0.192 -0.0166  0.0174 -0.2360
12766TIP3    H159713   0.889   5.850   0.149  0.5807 -1.0642 -2.8693
12766TIP3    H259714   0.999   5.817   0.247  0.2853  1.4795 -1.5841
12767TIP3   OH259715   5.129   3.485   5.028  0.2435 -0.4301  0.1547
12767TIP3    H159716   5.053   3.536   4.999  1.8006  2.7804  1.3097
12767TIP3    H259717   5.091   3.408   5.072 -2.3383  0.9766  0.5647
12768TIP3   OH259718   4.932   3.662  12.238  0.0270 -0.5412  0.0684
12768TIP3    H159719   4.892   3.747  12.217  1.5489  0.0071 -0.7561
12768TIP3    H259720   5.020   3.668  12.202  1.0525 -1.5310  2.2514
12769TIP3   OH259721   2.876   4.593   5.998 -0.3406 -0.1401  0.4064
12769TIP3    H159722   2.860   4.621   5.907  1.2709  2.5950  0.8437
12769TIP3    H259723   2.970   4.573   6.000 -0.4839 -0.7488  1.3630
12770TIP3   OH259724   1.612   4.482   1.005  0.4645 -0.3669 -0.3097
12770TIP3    H159725   1.683   4.544   0.987  0.0587  0.0775 -0.4362
12770TIP3    H259726   1.639   4.436   1.084  1.1281 -0.5677 -0.6515
12771TIP3   OH259727   4.112   2.026   4.756 -0.3756 -0.1530  0.3196
12771TIP3    H159728   4.107   2.104   4.700  0.8410  0.1342  0.5920
12771TIP3    H259729   4.187   1.976   4.722  1.4075  0.7828  2.5816
12772TIP3   OH259730   2.658   2.004   4.158 -1.2995 -0.1903  0.0973
12772TIP3    H159731   2.626   2.033   4.072 -1.0586  0.0356  0.0834
12772TIP3    H259732   2.639   2.078   4.217  1.2701  0.9612 -0.3546
12773TIP3   OH259733   4.740   6.588  12.901  0.4945  0.2981  0.0258
12773TIP3    H159734   4.700   6.584  12.988 -3.8299  2.4058 -1.5661
12773TIP3    H259735   4.680   6.539  12.845  2.7804 -0.3854 -1.9602
12774TIP3   OH259736   1.504   0.602  13.802 -0.0653  0.0580  0.0263
12774TIP3    H159737   1.510   0.662  13.877 -1.3416  1.0474 -0.6245
12774TIP3    H259738   1.415   0.568  13.805 -0.2190  0.3023 -1.1634
12775TIP3   OH259739   6.535   0.538  13.680 -0.8301  0.0936  0.1702
12775TIP3    H159740   6.479   0.533  13.602  0.2800  0.4751 -0.6852
12775TIP3    H259741   6.577   0.624  13.674  0.2146 -0.3722  0.5130
12776TIP3   OH259742   3.802   4.236  16.074  0.0656 -0.1044 -0.1404
12776TIP3    H159743   3.839   4.324  16.085  0.4946 -0.3752  0.6722
12776TIP3    H259744   3.862   4.178  16.120  0.6287 -1.0586 -1.9873
12777TIP3   OH259745   1.764   1.091   3.789  0.4610  0.2506 -0.1485
12777TIP3    H159746   1.735   1.001   3.803 -2.5781  1.3900  2.0919
12777TIP3    H259747   1.707   1.123   3.718 -0.3855  1.1163  0.8908
12778TIP3   OH259748   1.759   0.057  13.643 -0.3839 -0.3662  0.0497
12778TIP3    H159749   1.711   0.014  13.572  0.1173  1.2087 -1.2997
12778TIP3    H259750   1.712   0.138  13.659  0.6585  0.2453  0.1161
12779TIP3   OH259751   3.035   1.822  10.874 -0.0371  0.0514  0.4062
12779TIP3    H159752   3.023   1.895  10.814 -0.6546 -0.0381  0.4144
12779TIP3    H259753   2.990   1.848  10.954  1.0240  0.2901  0.9460
12780TIP3   OH259754   1.464   2.803  12.641  0.1101 -0.2841  0.2762
12780TIP3    H159755   1.430   2.737  12.581 -1.0993  2.2696 -2.1315
12780TIP3    H259756   1.398   2.811  12.709  0.2798 -1.4878  0.6024
12781TIP3   OH259757   0.781   5.777  14.229 -0.6173 -0.3171 -0.2849
12781TIP3    H159758   0.711   5.744  14.173 -1.6590 -1.2646  1.4856
12781TIP3    H259759   0.764   5.871  14.237 -0.4748 -0.1748 -1.4721
12782TIP3   OH259760   1.297   4.006  14.485  0.0885  0.2216  0.6280
12782TIP3    H159761   1.375   4.059  14.504  0.3647 -0.1220  0.4630
12782TIP3    H259762   1.255   4.051  14.412  0.6148 -0.0754  0.1279
12783TIP3   OH259763   4.659   4.520   1.127  0.1132 -0.2455 -0.4175
12783TIP3    H159764   4.648   4.449   1.062 -2.3573  1.0349 -1.5365
12783TIP3    H259765   4.595   4.499   1.195 -1.5917  1.4611 -1.3878
12784TIP3   OH259766   5.593   4.010  13.414 -0.4659 -0.0174 -0.6572
12784TIP3    H159767   5.585   4.105  13.406 -0.6256  0.0285  0.0719
12784TIP3    H259768   5.528   3.976  13.353 -0.3523  0.3302 -0.9853
12785TIP3   OH259769   1.450   3.683  14.171 -0.3757  0.4874  0.0450
12785TIP3    H159770   1.439   3.717  14.260 -0.2349  0.4379  0.0816
12785TIP3    H259771   1.447   3.761  14.115  0.0650  0.5788  0.1382
12786TIP3   OH259772   1.578   5.368  15.423  0.1871 -0.3475  0.4548
12786TIP3    H159773   1.611   5.408  15.342 -1.4616 -0.0412 -0.0989
12786TIP3    H259774   1.615   5.421  15.493 -0.1540  0.7766 -0.1902
12787TIP3   OH259775   5.454   6.580   5.894  0.1450 -0.4784 -0.1515
12787TIP3    H159776   5.448   6.616   5.806  0.9677  0.6634  0.2360
12787TIP3    H259777   5.515   6.507   5.887  0.1425 -0.4422 -0.5438
12788TIP3   OH259778   2.035   1.505   2.125  0.9026  0.4779  0.0859
12788TIP3    H159779   1.990   1.575   2.172 -1.3975 -0.3796 -0.7021
12788TIP3    H259780   2.016   1.426   2.175  1.5950  0.0877 -0.2553
12789TIP3   OH259781   3.549   3.681  14.911  0.0191 -0.2341 -0.0351
12789TIP3    H159782   3.463   3.642  14.927 -0.1455 -0.0775 -0.5322
12789TIP3    H259783   3.559   3.680  14.816  1.6963 -2.7303  0.0531
12790TIP3   OH259784   1.879   2.139   2.493 -0.3810  0.6418 -0.0875
12790TIP3    H159785   1.861   2.169   2.404 -1.8693  3.3833  0.9926
12790TIP3    H259786   1.796   2.101   2.523 -1.1897  3.1372  1.2242
12791TIP3   OH259787   5.016   5.229  10.658 -0.0264  0.0587  0.2591
12791TIP3    H159788   5.025   5.248  10.565  0.7848 -0.3806  0.2369
12791TIP3    H259789   4.922   5.220  10.672 -0.1831  0.5965 -0.4175
12792TIP3   OH259790   0.365   3.259  14.575 -0.2369  0.4902 -0.3874
12792TIP3    H159791   0.285   3.311  14.571 -0.5898 -0.1235 -1.6769
12792TIP3    H259792   0.430   3.312  14.529 -0.6286 -0.2264 -1.8145
12793TIP3   OH259793   2.027   6.146  14.979  0.2017 -0.1051  0.2149
12793TIP3    H159794   1.968   6.174  14.909  0.1773  1.6776  0.9014
12793TIP3    H259795   2.029   6.220  15.040  1.2913 -1.0718  1.4128
12794TIP3   OH259796   0.836   5.853   4.492  0.1101  0.0878  0.2044
12794TIP3    H159797   0.909   5.902   4.456  0.6789  0.1170  1.3487
12794TIP3    H259798   0.792   5.815   4.416  1.4416 -0.1217 -0.4809
12795TIP3   OH259799   2.070   6.504   6.143  0.4128  0.8126  0.0588
12795TIP3    H159800   2.031   6.435   6.196  1.1034  0.5027  0.1762
12795TIP3    H259801   2.136   6.544   6.200  0.6579  0.9561 -0.3171
12796TIP3   OH259802   5.549   2.623  14.817 -0.3761  0.4615 -0.2463
12796TIP3    H159803   5.564   2.577  14.899  1.9890 -0.9124 -1.3446
12796TIP3    H259804   5.635   2.658  14.793 -0.7149 -0.1534 -2.6567
12797TIP3   OH259805   3.270   4.391   2.017  0.0751  0.0954  0.1484
12797TIP3    H159806   3.192   4.336   2.011 -0.5844  0.9498  0.5811
12797TIP3    H259807   3.236   4.480   2.010  0.9742  0.4916  0.7129
12798TIP3   OH259808   4.816   6.443  16.128 -0.1988  0.0967 -0.5579
12798TIP3    H159809   4.866   6.472  16.204  0.5795 -0.6389 -0.7712
12798TIP3    H259810   4.730   6.419  16.163  0.7582 -2.0821  0.4438
12799TIP3   OH259811   5.255   5.325  16.802  0.2631 -0.0308  0.1961
12799TIP3    H159812   5.205   5.393  16.756 -1.2695 -1.2938 -0.0971
12799TIP3    H259813   5.247   5.248  16.747  2.1487 -0.4439  0.4231
12800TIP3   OH259814   1.136   5.231   1.499  0.3819 -0.1345  0.1539
12800TIP3    H159815   1.095   5.316   1.517  1.1227 -0.1307  2.1155
12800TIP3    H259816   1.084   5.194   1.428 -0.6196  1.5009 -0.0217
12801TIP3   OH259817   0.095   3.043   0.970 -0.3777 -0.4101  0.6790
12801TIP3    H159818   0.050   3.051   0.886 -1.2865 -1.7516  1.0130
12801TIP3    H259819   0.132   3.130   0.985  1.3626 -0.5705 -1.9516
12802TIP3   OH259820   5.762   1.980   1.631  0.1374 -0.0962 -0.1937
12802TIP3    H159821   5.806   2.060   1.602  1.7964 -0.3817  1.3495
12802TIP3    H259822   5.816   1.909   1.598 -1.0167 -0.6007 -1.0698
12803TIP3   OH259823   5.449   3.604   0.616  0.3253  0.2279  0.6722
12803TIP3    H159824   5.380   3.666   0.594  0.8166  0.5845  0.1098
12803TIP3    H259825   5.420   3.522   0.577 -0.4450  0.0200  1.6263
12804TIP3   OH259826   0.776   1.939   4.459 -0.5043  0.1340  0.5075
12804TIP3    H159827   0.718   1.916   4.387  1.0242 -1.0825 -0.3937
12804TIP3    H259828   0.828   2.012   4.426  0.3719 -0.5869  0.2328
12805TIP3   OH259829   0.975   5.096  11.766  0.1241  0.0130 -0.1562
12805TIP3    H159830   0.940   5.011  11.791 -1.2020  0.7480  0.5730
12805TIP3    H259831   0.931   5.117  11.684 -1.9734  1.3345  1.1987
12806TIP3   OH259832   5.733   3.095   0.446 -0.4419 -0.3421 -0.2355
12806TIP3    H159833   5.736   3.107   0.541 -0.3182 -1.1601 -0.1274
12806TIP3    H259834   5.674   3.020   0.434 -0.0518 -0.5662 -0.7725
12807TIP3   OH259835   5.403   5.187   5.867 -0.2343  0.0778 -0.3006
12807TIP3    H159836   5.371   5.097   5.873  2.1523 -0.9384 -1.3480
12807TIP3    H259837   5.326   5.239   5.845 -1.9639 -1.4503  1.6996
12808TIP3   OH259838   1.340   6.445   6.946  0.0999  0.3917 -0.2293
12808TIP3    H159839   1.388   6.452   7.029 -0.0834 -1.4111  0.0684
12808TIP3    H259840   1.274   6.377   6.962  0.0318  0.0349 -1.8397
12809TIP3   OH259841   5.296   1.826   2.470 -0.0652  0.2521 -0.1458
12809TIP3    H159842   5.256   1.857   2.389 -1.2664  0.1143  0.3801
12809TIP3    H259843   5.246   1.748   2.494 -0.8781  1.2568  1.6276
12810TIP3   OH259844   0.862   5.316  14.395  0.3395  0.1434 -0.5046
12810TIP3    H159845   0.904   5.347  14.315  1.4650  1.0241  0.3958
12810TIP3    H259846   0.934   5.281  14.448 -0.1612  0.9155  0.7235
12811TIP3   OH259847   3.174   5.596  15.948 -0.3210  0.5615  0.4227
12811TIP3    H159848   3.231   5.520  15.941 -0.6324  0.1971  1.6066
12811TIP3    H259849   3.233   5.668  15.971 -0.1787  0.4419  0.4357
12812TIP3   OH259850   2.623   1.588   6.645 -0.4347  0.2604 -0.3249
12812TIP3    H159851   2.634   1.589   6.550  0.2646  0.0697 -0.2562
12812TIP3    H259852   2.596   1.499   6.666 -0.4191  0.2546 -0.3294
12813TIP3   OH259853   6.456   1.298  15.905  0.3459  0.1092 -0.4368
12813TIP3    H159854   6.391   1.313  15.974  0.4874  0.2884 -0.3410
12813TIP3    H259855   6.510   1.377  15.906 -0.9018  1.0566 -2.1335
12814TIP3   OH259856   2.113   1.114   2.555 -0.3386 -0.4671 -0.3446
12814TIP3    H159857   2.078   1.179   2.616 -0.4311 -0.7719 -0.0727
12814TIP3    H259858   2.193   1.154   2.521 -0.1028 -0.4374  0.2314
12815TIP3   OH259859   0.209   1.979   3.777 -0.0628  0.5779  0.5330
12815TIP3    H159860   0.178   1.924   3.849  1.0487 -1.2159 -0.2984
12815TIP3    H259861   0.177   1.935   3.698  2.5333 -0.0649 -0.2482
12816TIP3   OH259862   6.418   4.986  11.030 -0.3973 -0.2563 -0.1433
12816TIP3    H159863   6.462   5.070  11.023  0.6704 -0.8564 -0.9842
12816TIP3    H259864   6.441   4.939  10.950 -0.8753 -1.3920  0.3490
12817TIP3   OH259865   5.925   5.167  12.112 -0.1538 -0.0253 -0.3210
12817TIP3    H159866   5.997   5.220  12.146  0.0878 -0.7545  0.3148
12817TIP3    H259867   5.961   5.080  12.101 -1.0729 -0.5338  0.5321
12818TIP3   OH259868   3.782   3.338  14.188  0.5757 -0.2385 -0.5321
12818TIP3    H159869   3.702   3.305  14.231  1.7109 -2.8148 -0.1722
12818TIP3    H259870   3.758   3.345  14.096  0.3455 -2.8430 -0.7592
12819TIP3   OH259871   0.368   3.854   1.765  0.0569  0.5156  0.2700
12819TIP3    H159872   0.341   3.930   1.714  0.2611  0.0248 -0.5862
12819TIP3    H259873   0.300   3.844   1.832 -1.3490 -0.0670 -1.1883
12820TIP3   OH259874   2.946   1.320   0.717  0.7041 -0.7320  0.6231
12820TIP3    H159875   2.857   1.327   0.750  1.0811 -1.0501  1.7875
12820TIP3    H259876   2.937   1.300   0.624 -0.4274  1.9302  0.0649
12821TIP3   OH259877   0.562   5.197   0.024  0.0969  0.4541 -0.1582
12821TIP3    H159878   0.627   5.127   0.031  1.0186  1.3454  0.3238
12821TIP3    H259879   0.596   5.255  -0.045 -0.5164  0.5857 -0.3562
12822TIP3   OH259880   0.745   2.026   0.949 -0.8484 -0.2139  0.5471
12822TIP3    H159881   0.726   1.932   0.960  1.4279 -0.9047 -0.7357
12822TIP3    H259882   0.709   2.067   1.027 -1.4354 -2.2266  1.4100
12823TIP3   OH259883   5.810   0.078  15.442 -1.1439  0.0491  0.0789
12823TIP3    H159884   5.884   0.135  15.465 -1.6485  0.7775 -0.0763
12823TIP3    H259885   5.776   0.049  15.527 -0.1950 -0.9479  0.1438
12824TIP3   OH259886   2.187   3.364   2.990 -0.3126 -0.5141  0.2109
12824TIP3    H159887   2.160   3.298   3.053  1.4308 -1.3142  0.1686
12824TIP3    H259888   2.229   3.315   2.919 -0.8642  0.4869 -0.8478
12825TIP3   OH259889   4.163   0.752   3.543 -0.2622  0.1887 -0.3454
12825TIP3    H159890   4.213   0.802   3.478 -0.2309 -0.4889 -0.8497
12825TIP3    H259891   4.100   0.815   3.578  0.8203  1.0230  0.1868
12826TIP3   OH259892   2.677   0.941   1.484 -0.0802 -0.5610  0.3095
12826TIP3    H159893   2.624   0.896   1.551 -3.3025  2.2504 -0.0642
12826TIP3    H259894   2.635   0.918   1.401 -0.8142  1.7059 -0.0121
12827TIP3   OH259895   1.953   6.693   4.803  0.3731 -0.2066  0.1215
12827TIP3    H159896   2.039   6.725   4.776  1.3180 -1.7162  1.1444
12827TIP3    H259897   1.964   6.671   4.896 -1.2778  0.0718  0.4076
12828TIP3   OH259898   6.348   5.473  17.026  0.0948  0.3401  0.0311
12828TIP3    H159899   6.430   5.518  17.006 -0.8924  1.1395 -2.7989
12828TIP3    H259900   6.284   5.543  17.040  0.0990 -0.2299  4.0252
12829TIP3   OH259901   5.069   5.580  12.762  0.4062 -0.0392  0.7122
12829TIP3    H159902   5.047   5.491  12.791  1.3520 -0.2597  0.7842
12829TIP3    H259903   4.984   5.621  12.745 -0.0397 -1.4824 -0.8885
12830TIP3   OH259904   5.094   4.052  10.773  0.5585 -0.3621  0.7862
12830TIP3    H159905   5.025   4.113  10.748 -0.0935 -1.0675  0.8280
12830TIP3    H259906   5.060   3.966  10.750  1.7130 -0.6743  0.1598
12831TIP3   OH259907   0.586   1.330  12.290 -0.0903  0.4883  0.4800
12831TIP3    H159908   0.503   1.283  12.277  0.5697 -0.5652 -0.0395
12831TIP3    H259909   0.633   1.278  12.355  1.1758 -0.3340 -1.0035
12832TIP3   OH259910   4.986   0.770  17.259  0.3108  0.3115  1.2317
12832TIP3    H159911   5.033   0.699  17.216 -0.1608  0.7302 -0.0240
12832TIP3    H259912   5.054   0.834  17.281  0.3385  1.3240 -1.3787
12833TIP3   OH259913   0.011   4.395   2.796  0.0706 -0.5039 -0.0580
12833TIP3    H159914   0.104   4.376   2.783  0.3654  0.2705  0.8157
12833TIP3    H259915  -0.028   4.311   2.818  0.4666 -0.9265 -0.9280
12834TIP3   OH259916   0.968   6.156   5.273  0.3195  0.5656  0.2913
12834TIP3    H159917   1.048   6.143   5.222  1.3961  1.3451  1.6842
12834TIP3    H259918   0.907   6.196   5.212  0.9512 -0.1543 -0.8466
12835TIP3   OH259919   5.822   4.003  11.992 -0.3430 -0.0084  0.3841
12835TIP3    H159920   5.732   4.021  12.017  0.0462 -0.1468  1.9803
12835TIP3    H259921   5.832   4.046  11.907 -1.4883  1.2366  0.8406
12836TIP3   OH259922   4.469   0.180   6.094  0.1869  0.2841  0.4135
12836TIP3    H159923   4.429   0.097   6.118 -0.8146  0.7836  0.5372
12836TIP3    H259924   4.520   0.205   6.171  0.3065 -0.1074  0.4603
12837TIP3   OH259925   4.061   2.683   2.734 -0.3680  0.5902  0.1799
12837TIP3    H159926   3.987   2.737   2.762 -1.0261 -0.2934  0.1845
12837TIP3    H259927   4.051   2.677   2.639  0.3236  1.3560  0.0488
12838TIP3   OH259928   2.490   6.156   1.659 -0.3488 -0.0873 -0.1050
12838TIP3    H159929   2.419   6.092   1.660 -1.6759  1.3153 -0.8215
12838TIP3    H259930   2.464   6.220   1.593  0.4029  1.8008  1.3383
12839TIP3   OH259931   4.713   2.342  16.215 -0.7734  0.2869 -0.4900
12839TIP3    H159932   4.666   2.260  16.224  0.1086 -0.0098  2.1489
12839TIP3    H259933   4.650   2.410  16.239 -0.8509  0.1952 -0.4398
12840TIP3   OH259934   2.820   3.609   3.163 -0.3685 -0.2102 -0.4461
12840TIP3    H159935   2.880   3.552   3.115  0.2193 -0.4842  0.5789
12840TIP3    H259936   2.745   3.552   3.184  0.7491 -1.0438  1.6472
12841TIP3   OH259937   0.172   2.460  13.870 -0.1015 -0.3384 -0.0054
12841TIP3    H159938   0.101   2.524  13.871 -2.1432 -2.4427  0.3148
12841TIP3    H259939   0.179   2.433  13.778 -0.7374 -1.1232  0.1595
12842TIP3   OH259940   3.038   6.741  12.751  0.0830  0.0269  0.3569
12842TIP3    H159941   3.109   6.771  12.808 -1.7314  0.6854  2.4148
12842TIP3    H259942   3.016   6.817  12.698 -0.1566  0.3236  0.8778
12843TIP3   OH259943   0.417   4.666  13.490 -0.4330 -0.7566  0.0467
12843TIP3    H159944   0.369   4.636  13.412 -1.8258  0.6219  0.3093
12843TIP3    H259945   0.487   4.602  13.502 -1.2465 -1.9594 -1.3238
12844TIP3   OH259946   5.066   2.318   1.926  0.3283 -0.5615 -0.1640
12844TIP3    H159947   4.973   2.338   1.940  0.5686  0.3843  0.1476
12844TIP3    H259948   5.110   2.403   1.931  1.5694 -1.2418  2.4909
12845TIP3   OH259949   4.570   0.868   5.589 -0.2762 -0.2319  0.0589
12845TIP3    H159950   4.618   0.912   5.659 -0.6495 -1.2770  1.0028
12845TIP3    H259951   4.501   0.930   5.565 -0.0691  0.1947  0.5374
12846TIP3   OH259952   2.624   4.397   0.804 -0.5263 -0.2883 -0.4032
12846TIP3    H159953   2.599   4.391   0.711 -0.0956 -1.6908 -0.4516
12846TIP3    H259954   2.688   4.326   0.816  1.1946  1.3255  0.4205
12847TIP3   OH259955   6.766   5.647  15.327 -0.2109 -0.1486 -0.7096
12847TIP3    H159956   6.706   5.680  15.260 -0.7403 -0.2895 -0.3080
12847TIP3    H259957   6.818   5.581  15.282  0.1327  0.4755 -1.2449
12848TIP3   OH259958   3.455   0.794   5.284 -0.1477 -0.3010 -0.5093
12848TIP3    H159959   3.489   0.881   5.303 -3.1342  0.9652 -0.4341
12848TIP3    H259960   3.437   0.756   5.370  0.7025 -0.8263 -0.5538
12849TIP3   OH259961   0.082   0.701   2.184  0.3788  0.1615  0.1155
12849TIP3    H159962   0.041   0.716   2.270  0.2002  2.1653 -0.2798
12849TIP3    H259963   0.164   0.749   2.188 -0.1008  1.1484 -1.1657
12850TIP3   OH259964   1.575   6.022  13.922  0.6429 -0.1287 -0.0338
12850TIP3    H159965   1.603   6.080  13.993  0.3506 -0.9429  0.7626
12850TIP3    H259966   1.656   6.004  13.873  1.1001 -0.5948  0.8663
12851TIP3   OH259967   2.370   0.507  14.516 -0.5975  0.6228  0.2163
12851TIP3    H159968   2.285   0.536  14.546  0.1737  1.8296  1.3264
12851TIP3    H259969   2.429   0.520  14.590  0.3681 -1.1978 -0.1586
12852TIP3   OH259970   6.147   0.609  14.515 -0.0101 -0.2968 -0.2489
12852TIP3    H159971   6.234   0.578  14.489 -0.0142 -0.4558 -0.0780
12852TIP3    H259972   6.116   0.543  14.577 -1.1436 -1.3764 -1.8961
12853TIP3   OH259973   3.445   3.952  16.988 -0.4888 -0.0384 -0.5830
12853TIP3    H159974   3.401   3.977  17.069 -2.2605 -1.1006 -1.1707
12853TIP3    H259975   3.486   3.868  17.008  0.6277  0.5520 -0.2897
12854TIP3   OH259976   0.575   1.303  16.375  0.3696 -0.8592  0.1064
12854TIP3    H159977   0.530   1.385  16.359 -1.1531 -1.3018  1.8385
12854TIP3    H259978   0.529   1.239  16.322  1.3538 -0.6989 -0.9918
12855TIP3   OH259979   5.114   4.241  12.900  0.5386  0.2453  0.0813
12855TIP3    H159980   5.127   4.224  12.806 -0.0127 -2.1902  0.3619
12855TIP3    H259981   5.021   4.263  12.907  0.3774 -0.4322  0.1373
12856TIP3   OH259982   5.869   2.119   3.663 -0.9473 -0.3269  0.4534
12856TIP3    H159983   5.896   2.087   3.577 -0.8088 -0.1392  0.4272
12856TIP3    H259984   5.834   2.206   3.646 -1.7966 -0.6632  0.4543
12857TIP3   OH259985   1.754   1.786   4.992  0.0179  0.3393 -0.1974
12857TIP3    H159986   1.758   1.873   4.951 -1.9360  0.6120  0.0885
12857TIP3    H259987   1.679   1.744   4.951  1.1407 -1.3987 -0.5899
12858TIP3   OH259988   6.415   1.330  12.936 -0.7214 -0.4663  0.6360
12858TIP3    H159989   6.358   1.307  13.010 -0.5711 -0.8349  0.6399
12858TIP3    H259990   6.451   1.246  12.907  0.7664 -0.1421  1.4084
12859TIP3   OH259991   6.148   4.846  15.067  0.3071 -0.0011 -0.5472
12859TIP3    H159992   6.209   4.837  14.994 -1.1577  1.3642 -2.0351
12859TIP3    H259993   6.179   4.923  15.115  0.1742  0.2803 -0.9030
12860TIP3   OH259994   2.301   5.704   4.894  0.3741  0.2310  0.4439
12860TIP3    H159995   2.330   5.634   4.835  0.4626 -0.1228  0.9067
12860TIP3    H259996   2.360   5.698   4.969  0.7331  1.1524  0.2524
12861TIP3   OH259997   4.931   3.735  11.616  0.6759  0.2874  0.4696
12861TIP3    H159998   4.979   3.667  11.569  2.4635  1.8710 -0.1084
12861TIP3    H259999   4.998   3.795  11.647 -0.8539  1.9929  0.6515
12862TIP3   OH260000   4.319   6.267   2.274 -0.2360 -0.0183  0.4535
12862TIP3    H160001   4.380   6.267   2.348 -0.1052  0.7233  0.3476
12862TIP3    H260002   4.312   6.359   2.248 -1.9682  0.0179  0.9442
12863TIP3   OH260003   4.179   6.520   1.866  0.0755 -0.8163  0.3997
12863TIP3    H160004   4.219   6.556   1.787 -0.0247 -0.9878  0.2699
12863TIP3    H260005   4.215   6.431   1.872  0.1069 -0.7933  0.5650
12864TIP3   OH260006   4.610   0.745   5.344 -0.7731  0.4224 -0.1398
12864TIP3    H160007   4.627   0.775   5.434 -1.2296  0.2538  0.0040
12864TIP3    H260008   4.521   0.774   5.326 -1.2368 -0.8605  0.0055
12865TIP3   OH260009   1.767   6.152  15.320  0.0350 -0.0170  0.0474
12865TIP3    H160010   1.853   6.117  15.299  0.6739  1.4934  0.0493
12865TIP3    H260011   1.769   6.164  15.415 -0.7921 -1.4723  0.2928
12866TIP3   OH260012   2.764   6.162   5.952 -0.4864 -0.1414  0.2637
12866TIP3    H160013   2.722   6.206   5.878 -1.6606 -1.2465  0.2364
12866TIP3    H260014   2.824   6.099   5.912 -1.2345 -0.8470  0.2266
12867TIP3   OH260015   3.182   0.136  11.447  0.1460  0.3127 -0.1487
12867TIP3    H160016   3.175   0.042  11.461  0.8714  0.5694  2.3691
12867TIP3    H260017   3.135   0.151  11.365 -2.3116 -1.8960  0.7050
12868TIP3   OH260018   6.671   4.228   5.206  0.0297 -0.3416  0.1463
12868TIP3    H160019   6.625   4.180   5.137 -0.5316  0.2373  0.1064
12868TIP3    H260020   6.712   4.301   5.160  2.3329 -1.6904 -0.0832
12869TIP3   OH260021   6.290   5.709   2.635 -0.0048  0.6765  0.3702
12869TIP3    H160022   6.353   5.700   2.563 -0.2151  0.5918  0.1947
12869TIP3    H260023   6.310   5.794   2.674  0.4074  0.5219  0.4964
12870TIP3   OH260024   2.520   2.163   4.729 -0.3123  0.4845  0.3126
12870TIP3    H160025   2.508   2.174   4.823 -0.2826  0.0867  0.3671
12870TIP3    H260026   2.578   2.235   4.704  0.7957 -0.1794  0.8498
12871TIP3   OH260027   1.673   3.175   6.276 -0.8120  0.5518  0.1069
12871TIP3    H160028   1.761   3.138   6.271 -1.9688 -2.3263 -2.2484
12871TIP3    H260029   1.680   3.259   6.230  0.8876  1.0025  1.0875
12872TIP3   OH260030   1.360   4.765   4.262 -0.3251  0.4839 -0.2047
12872TIP3    H160031   1.307   4.686   4.249  0.8249 -0.3558  0.0904
12872TIP3    H260032   1.334   4.823   4.191 -2.3914  0.5334  0.4927
12873TIP3   OH260033   2.670   4.489  14.121 -0.5147 -0.2329  0.5499
12873TIP3    H160034   2.659   4.445  14.206 -0.5079  0.2947  0.8276
12873TIP3    H260035   2.762   4.513  14.118 -0.4474 -0.5195  0.2567
12874TIP3   OH260036   1.714   3.102  11.705  0.0197  0.9297 -0.2124
12874TIP3    H160037   1.675   3.053  11.633 -0.6053  0.4052  0.4682
12874TIP3    H260038   1.805   3.112  11.680 -0.0851  0.3554 -0.8700
12875TIP3   OH260039   0.685   5.360   5.577 -0.1536  0.2324  0.1125
12875TIP3    H160040   0.764   5.308   5.561 -0.9575 -1.3610  1.0013
12875TIP3    H260041   0.663   5.342   5.668 -0.0060  2.8892  0.7516
12876TIP3   OH260042   3.404   3.153   3.105  0.1980  0.0477 -0.1772
12876TIP3    H160043   3.429   3.117   3.020 -0.1033  1.2529 -0.7972
12876TIP3    H260044   3.309   3.144   3.108  0.1871  0.2121 -0.0495
12877TIP3   OH260045   6.579   5.311  10.722 -0.0207  0.5765 -0.4119
12877TIP3    H160046   6.673   5.292  10.715 -0.1527  0.3037 -1.9973
12877TIP3    H260047   6.570   5.399  10.686 -0.2268  1.1006  0.9048
12878TIP3   OH260048   0.701   2.342  14.878  0.1504  0.3107 -0.2066
12878TIP3    H160049   0.719   2.271  14.817 -0.5305 -1.5458  1.6186
12878TIP3    H260050   0.771   2.337  14.943  0.5420  1.8522 -0.4891
12879TIP3   OH260051   3.298   6.755   1.889 -0.7380 -0.5210 -0.2613
12879TIP3    H160052   3.282   6.761   1.795 -1.9088  1.5386  0.0132
12879TIP3    H260053   3.230   6.809   1.929 -0.8108 -2.0251  1.8472
12880TIP3   OH260054   3.363   5.798  11.789  0.0250 -0.3143  0.1567
12880TIP3    H160055   3.356   5.861  11.860 -1.2767  0.1734 -0.3671
12880TIP3    H260056   3.455   5.801  11.762  0.2268  0.4999  0.9024
12881TIP3   OH260057   1.271   2.835   0.977  0.1889 -0.2635 -0.2256
12881TIP3    H160058   1.292   2.769   0.911 -1.6976 -0.3930 -0.7377
12881TIP3    H260059   1.313   2.803   1.057 -1.1425 -2.4255 -0.3099
12882TIP3   OH260060   2.077   6.389  10.947  0.0584 -0.2396  0.2313
12882TIP3    H160061   2.156   6.436  10.972 -0.1468  0.8896 -1.1118
12882TIP3    H260062   2.038   6.443  10.878 -1.3364 -1.3009  0.1444
12883TIP3   OH260063   0.257   4.551   6.361  0.1150 -0.5662 -0.2920
12883TIP3    H160064   0.181   4.550   6.418  1.5793  1.7750  1.9394
12883TIP3    H260065   0.318   4.490   6.402  1.0164  0.8185  0.5376
12884TIP3   OH260066   3.292   2.608  12.253  0.1349  0.1006  0.1997
12884TIP3    H160067   3.314   2.666  12.326 -0.7481  0.9356 -0.1750
12884TIP3    H260068   3.291   2.520  12.292  1.2823  0.3376  0.8215
12885TIP3   OH260069   3.182   4.660   0.913 -0.3402  0.6514  0.1977
12885TIP3    H160070   3.166   4.733   0.853 -0.3057  0.3081 -0.2343
12885TIP3    H260071   3.152   4.582   0.865 -0.1115  0.3484  0.5396
12886TIP3   OH260072   6.292   0.657   3.817 -0.2979 -0.1281  0.1965
12886TIP3    H160073   6.264   0.581   3.869 -0.2483  0.2784  0.8220
12886TIP3    H260074   6.229   0.661   3.745  0.5584 -1.6542 -0.7030
12887TIP3   OH260075   1.401   1.977  13.993  0.0100 -0.2940 -0.0119
12887TIP3    H160076   1.414   2.003  14.084 -0.8975 -1.5589  0.5097
12887TIP3    H260077   1.347   2.046  13.955 -0.2588 -0.1459  0.6321
12888TIP3   OH260078   0.229   4.840  14.038 -0.0400  0.6547  0.0016
12888TIP3    H160079   0.280   4.921  14.042 -0.9857  1.3932 -1.6246
12888TIP3    H260080   0.247   4.804  13.951 -0.2246 -0.4789  0.4151
12889TIP3   OH260081   3.942   1.081   1.976  0.3899 -0.1356 -0.0527
12889TIP3    H160082   3.995   1.134   2.036  1.4070 -0.2642 -0.8149
12889TIP3    H260083   4.004   1.048   1.911 -0.2651 -1.9496  0.1563
12890TIP3   OH260084   5.002   2.663  14.667  0.4047  0.3362 -0.5653
12890TIP3    H160085   5.003   2.729  14.736  1.7468 -0.8070  0.5686
12890TIP3    H260086   5.067   2.694  14.603  2.2919 -0.6437  0.7844
12891TIP3   OH260087   2.264   0.871  15.856  0.5066 -0.0485 -0.0751
12891TIP3    H160088   2.214   0.928  15.797 -0.8749  0.2426  1.3083
12891TIP3    H260089   2.232   0.783  15.838  0.0800  0.0410  0.2333
12892TIP3   OH260090   0.554   0.488   0.605 -0.7214 -0.2184  0.0756
12892TIP3    H160091   0.569   0.476   0.512  1.5709  0.0138  0.3690
12892TIP3    H260092   0.469   0.533   0.610  0.3536  2.2573 -2.0638
12893TIP3   OH260093   3.399   3.629   6.748  0.1014  0.0743  0.1505
12893TIP3    H160094   3.309   3.650   6.771  0.0476  0.6316 -0.5418
12893TIP3    H260095   3.397   3.608   6.655  0.9527  1.8390 -0.3090
12894TIP3   OH260096   4.868   6.707   2.886  0.2471  0.0084 -0.1959
12894TIP3    H160097   4.963   6.713   2.892  0.1458 -0.1052  2.2679
12894TIP3    H260098   4.838   6.702   2.976 -2.0877 -0.4683 -0.9315
12895TIP3   OH260099   0.749   4.101  11.879 -0.3450 -0.4106  0.0809
12895TIP3    H160100   0.772   4.183  11.836 -0.0920 -1.5037 -1.9728
12895TIP3    H260101   0.827   4.046  11.872 -1.2206 -1.6306 -0.6432
12896TIP3   OH260102   3.762   4.754  17.047 -0.3300 -0.3497  0.4060
12896TIP3    H160103   3.853   4.757  17.075 -0.1484 -2.2603  0.2061
12896TIP3    H260104   3.711   4.758  17.128 -0.0790  0.7325  0.5159
12897TIP3   OH260105   1.274   6.052   0.402 -0.1426  0.0699 -0.0327
12897TIP3    H160106   1.179   6.040   0.393 -0.5140  0.0809  2.7441
12897TIP3    H260107   1.295   6.125   0.345 -2.0403  0.7701  0.0995
12898TIP3   OH260108   4.487   3.885   5.341 -0.4526 -0.0338  0.0404
12898TIP3    H160109   4.479   3.936   5.422  0.1897  0.1494 -0.0075
12898TIP3    H260110   4.483   3.951   5.271 -0.4144 -0.1316 -0.0538
12899TIP3   OH260111   1.865   0.155  15.701 -0.4290 -0.8699  0.0314
12899TIP3    H160112   1.946   0.133  15.655 -0.3311 -2.5262  0.9001
12899TIP3    H260113   1.891   0.223  15.764  0.1702 -1.0008 -0.0648
12900TIP3   OH260114   3.282   1.574  15.276 -0.1691 -0.1134  0.2052
12900TIP3    H160115   3.241   1.660  15.264  0.3625  0.1616  0.3439
12900TIP3    H260116   3.298   1.568  15.370  2.7361  1.0218 -0.1258
12901TIP3   OH260117   1.460   1.006  14.862  0.4522 -0.0573  0.1585
12901TIP3    H160118   1.476   0.915  14.840  0.1422 -0.1103  0.1412
12901TIP3    H260119   1.519   1.056  14.805  0.0482 -0.2155 -0.4100
12902TIP3   OH260120   1.803   4.982  13.908  0.3987  0.2742  0.0704
12902TIP3    H160121   1.886   4.979  13.955 -0.1505 -0.3554  1.0233
12902TIP3    H260122   1.762   4.898  13.925 -0.3297  0.4735 -0.6102
12903TIP3   OH260123   6.732   1.597   6.402  0.3677 -0.3929  0.3597
12903TIP3    H160124   6.713   1.621   6.312 -0.3141  0.5184  0.7432
12903TIP3    H260125   6.720   1.677   6.453  0.6208 -0.9190  1.2882
12904TIP3   OH260126   0.778   4.877   0.413  0.0751 -0.3940  0.4620
12904TIP3    H160127   0.811   4.880   0.323  0.1737 -4.0829  0.2488
12904TIP3    H260128   0.801   4.790   0.445 -0.3009  0.6148  3.9852
12905TIP3   OH260129   5.086   4.716  16.631 -0.2442  0.3416  0.1836
12905TIP3    H160130   5.120   4.769  16.703 -0.2713  1.1174 -0.3705
12905TIP3    H260131   5.055   4.635  16.673 -0.5342  0.9119  1.0819
12906TIP3   OH260132   6.653   6.336   5.020  0.1827 -0.0244  0.2860
12906TIP3    H160133   6.590   6.307   5.086 -1.0578 -2.6237 -1.8345
12906TIP3    H260134   6.617   6.418   4.986 -1.9901 -1.2742 -0.6399
12907TIP3   OH260135   0.363   3.314   1.300  0.1056 -0.6646 -0.7587
12907TIP3    H160136   0.347   3.286   1.390  0.7923  1.2900  0.0244
12907TIP3    H260137   0.442   3.267   1.273  0.8814 -0.0161  0.2955
12908TIP3   OH260138   2.594   1.389   3.914  0.4837 -0.0917 -0.1527
12908TIP3    H160139   2.556   1.303   3.925  0.6503 -0.1481 -0.0011
12908TIP3    H260140   2.686   1.378   3.940 -0.1287  0.7456  2.6582
12909TIP3   OH260141   1.381   5.706   5.567  0.5712 -0.2971  0.0321
12909TIP3    H160142   1.372   5.613   5.546 -0.2106 -0.7132  1.9991
12909TIP3    H260143   1.474   5.725   5.552  0.9395 -1.6345  0.4475
12910TIP3   OH260144   0.312   4.612   3.343  0.1307 -0.1977 -0.2180
12910TIP3    H160145   0.343   4.666   3.416 -0.8260 -0.3310  0.3069
12910TIP3    H260146   0.376   4.626   3.274  1.4318 -0.5646  0.8540
12911TIP3   OH260147   1.263   1.362   4.922  0.1226 -0.4018 -0.7724
12911TIP3    H160148   1.358   1.357   4.937 -0.0363 -1.3518  0.0231
12911TIP3    H260149   1.224   1.322   5.000 -1.0033  1.4214 -0.3393
12912TIP3   OH260150   1.708   0.739  15.648 -0.0895 -0.3117  0.4443
12912TIP3    H160151   1.671   0.705  15.567 -0.4307  0.9932  0.0230
12912TIP3    H260152   1.766   0.810  15.620  1.1988 -0.9949  1.2303
12913TIP3   OH260153   6.106   5.202  16.350 -0.2211 -0.1038  0.0079
12913TIP3    H160154   6.078   5.288  16.383 -0.1471 -0.2445  0.4345
12913TIP3    H260155   6.190   5.186  16.393 -0.8714 -1.0047  0.9617
12914TIP3   OH260156   5.374   6.016  11.254 -0.2011  0.1260  0.6488
12914TIP3    H160157   5.327   5.934  11.234 -0.6579  0.2075  1.3289
12914TIP3    H260158   5.464   5.999  11.229 -0.7814  0.3941 -1.9178
12915TIP3   OH260159   2.476   5.723  14.408  0.4907  0.3919  0.2019
12915TIP3    H160160   2.519   5.673  14.478  0.2800 -0.3378 -0.1759
12915TIP3    H260161   2.486   5.815  14.434  1.3972  0.1878  0.6255
12916TIP3   OH260162   4.783   5.922  14.155 -0.3336  0.4533 -0.6899
12916TIP3    H160163   4.695   5.914  14.191 -0.1665 -0.0165 -0.3637
12916TIP3    H260164   4.826   5.840  14.180 -0.4851 -0.2987 -2.7253
12917TIP3   OH260165   0.480   4.666   5.581 -0.1650 -0.1685  0.4854
12917TIP3    H160166   0.500   4.739   5.522  0.9137 -0.5748  0.3194
12917TIP3    H260167   0.431   4.705   5.653 -1.2027  0.3998 -0.4976
12918TIP3   OH260168   3.679   4.868  11.970  0.3900 -0.8238  0.0643
12918TIP3    H160169   3.689   4.813  11.893  0.7029 -0.1684 -0.3717
12918TIP3    H260170   3.613   4.932  11.946  2.1750  0.9004 -0.5763
12919TIP3   OH260171   0.969   1.301  16.739 -0.8063 -0.0383  0.2234
12919TIP3    H160172   0.885   1.257  16.752 -0.3558 -1.1628 -0.6095
12919TIP3    H260173   0.952   1.368  16.673 -1.5819  1.3522  1.7675
12920TIP3   OH260174   4.546   5.309  13.847 -0.1568  0.5425 -0.8220
12920TIP3    H160175   4.600   5.361  13.907  1.0884 -1.3444 -0.2363
12920TIP3    H260176   4.463   5.357  13.843  1.1529  3.0032 -0.9714
12921TIP3   OH260177   2.023   4.006  11.269 -0.0170  0.3390  0.0607
12921TIP3    H160178   2.037   4.099  11.287 -0.6261  0.7981 -1.6248
12921TIP3    H260179   1.973   3.975  11.345  0.5649  1.2750  0.8582
12922TIP3   OH260180   0.670   1.511  12.137 -0.0954  0.1360 -0.0955
12922TIP3    H160181   0.647   1.438  12.194  0.0888 -0.2436 -0.5074
12922TIP3    H260182   0.608   1.505  12.065 -0.8158  1.0561  0.4159
12923TIP3   OH260183   4.869   6.459   5.702  0.2736 -0.3428  0.2843
12923TIP3    H160184   4.807   6.455   5.629 -1.5902 -0.1467  1.7883
12923TIP3    H260185   4.897   6.551   5.704  0.4654 -0.3841 -0.2619
12924TIP3   OH260186   4.892   5.020   4.089 -0.4808 -0.1106  0.4761
12924TIP3    H160187   4.842   4.958   4.143 -0.8370  1.0965  1.5777
12924TIP3    H260188   4.977   5.027   4.133 -0.8373  1.0213  1.0334
12925TIP3   OH260189   5.259   0.570  15.038  0.6289  0.0107 -0.1439
12925TIP3    H160190   5.203   0.492  15.037 -1.5579  1.4387  0.8155
12925TIP3    H260191   5.292   0.576  15.127  2.6498 -0.9735 -0.7745
12926TIP3   OH260192   5.089   4.644   2.273 -0.8093  0.7456  0.1817
12926TIP3    H160193   5.118   4.727   2.237 -0.0565  0.5116  0.2421
12926TIP3    H260194   5.066   4.591   2.197  0.9910  0.1720 -0.0105
12927TIP3   OH260195   6.752   2.742   2.017 -0.1167  0.6386  0.0606
12927TIP3    H160196   6.836   2.728   1.973  0.3360  0.1302  1.0423
12927TIP3    H260197   6.724   2.654   2.041 -0.7460  0.8445  0.0738
12928TIP3   OH260198   3.094   1.947  15.006  0.4779  0.5348  0.2723
12928TIP3    H160199   3.186   1.942  15.031  0.5875 -0.0775 -0.2203
12928TIP3    H260200   3.046   1.923  15.085  0.8250 -1.9313 -0.1848
12929TIP3   OH260201   1.442   1.511  14.062  0.3114 -0.6568 -0.2339
12929TIP3    H160202   1.433   1.420  14.093 -1.0499 -0.5317 -0.1891
12929TIP3    H260203   1.352   1.538  14.044  0.8137  0.3047 -1.3682
12930TIP3   OH260204   2.028   2.522  15.261 -0.0427  0.0203 -0.0398
12930TIP3    H160205   2.039   2.454  15.194 -0.6624  1.0823 -1.2565
12930TIP3    H260206   1.936   2.514  15.289 -0.0912  0.2951 -0.1190
12931TIP3   OH260207   0.346   2.724  11.518 -0.0906  0.1524  0.2024
12931TIP3    H160208   0.312   2.802  11.474 -0.0627 -0.5433 -1.1177
12931TIP3    H260209   0.272   2.690  11.568 -1.5038 -1.3901 -2.6962
12932TIP3   OH260210   5.490   6.739   4.823 -0.1657  0.1481  0.7273
12932TIP3    H160211   5.483   6.741   4.728 -0.3904 -1.4079  0.6838
12932TIP3    H260212   5.538   6.819   4.846  1.3134 -0.2636 -0.8139
12933TIP3   OH260213   2.033   4.286   3.514 -0.3361 -0.5342  0.0475
12933TIP3    H160214   2.076   4.372   3.509 -0.7419 -0.3332 -0.0747
12933TIP3    H260215   1.963   4.291   3.449 -1.6535 -0.1977  1.4198
12934TIP3   OH260216   4.360   2.197   0.843  0.1390  0.3563 -0.3003
12934TIP3    H160217   4.432   2.174   0.784  0.2512 -0.6350  0.2120
12934TIP3    H260218   4.340   2.288   0.821  0.1207  0.0012 -1.9356
12935TIP3   OH260219   1.857   2.369  14.052 -0.3184  0.2840  0.3554
12935TIP3    H160220   1.946   2.343  14.078 -0.5962 -0.1232  0.9287
12935TIP3    H260221   1.868   2.407  13.965  0.4762  0.6197  0.5895
12936TIP3   OH260222   1.688   6.472   2.536  0.0633  0.4766  0.6558
12936TIP3    H160223   1.769   6.430   2.567 -0.9359 -2.1900 -0.0729
12936TIP3    H260224   1.622   6.447   2.601 -0.9221 -0.6862 -0.7105
12937TIP3   OH260225   3.949   1.504  13.601 -0.1950 -0.5001  0.3078
12937TIP3    H160226   4.002   1.480  13.676  3.0617  1.6239 -1.1141
12937TIP3    H260227   3.891   1.573  13.633 -0.2460 -0.9720  1.2702
12938TIP3   OH260228   4.969   3.746  13.234 -0.9213 -0.5284 -0.9556
12938TIP3    H160229   4.877   3.720  13.230 -0.8889 -0.5185 -2.0977
12938TIP3    H260230   4.995   3.759  13.142 -0.0434  0.3908 -0.6083
12939TIP3   OH260231   2.442   6.520   0.811 -0.3739  0.2439 -0.7547
12939TIP3    H160232   2.424   6.442   0.758  0.6082 -0.8160  0.3940
12939TIP3    H260233   2.382   6.513   0.885  0.5912 -0.1401  0.0152
12940TIP3   OH260234   0.079   5.313  15.926 -0.0050  0.6783  0.7128
12940TIP3    H160235   0.113   5.388  15.876 -1.3812  0.7057 -0.2376
12940TIP3    H260236  -0.002   5.346  15.965 -1.2773 -0.6334 -0.7126
12941TIP3   OH260237   2.661   2.577  14.158  0.3256 -0.3296  1.1099
12941TIP3    H160238   2.656   2.672  14.166 -0.2595 -0.2800  0.2567
12941TIP3    H260239   2.733   2.561  14.096 -1.1286 -0.3128 -0.6818
12942TIP3   OH260240   4.837   4.302   3.403  0.0073  0.1320  0.1489
12942TIP3    H160241   4.926   4.312   3.437  0.1897  2.0822 -0.7698
12942TIP3    H260242   4.781   4.344   3.468  0.1398  1.9183 -0.8332
12943TIP3   OH260243   3.733   3.535  15.885 -0.1458 -0.3529 -0.0140
12943TIP3    H160244   3.745   3.441  15.873  0.3435 -0.3592  0.4752
12943TIP3    H260245   3.744   3.549  15.979 -0.4687  0.1595 -0.0446
12944TIP3   OH260246   5.584   1.388  16.345 -0.2376 -0.9602 -0.2289
12944TIP3    H160247   5.665   1.337  16.346  0.5517  0.2576 -0.5487
12944TIP3    H260248   5.583   1.430  16.259 -0.7824 -0.3022  0.0913
12945TIP3   OH260249   4.278   4.175  15.272 -0.4301  0.4533 -0.2764
12945TIP3    H160250   4.225   4.198  15.348  0.3192 -1.6392  0.9646
12945TIP3    H260251   4.234   4.099  15.234  0.3100  0.2299 -0.7158
12946TIP3   OH260252   3.941   1.546   0.240 -0.4110 -0.6087 -0.7955
12946TIP3    H160253   3.926   1.476   0.304 -0.0210  0.7706  0.8935
12946TIP3    H260254   3.954   1.624   0.294 -0.3979  0.6861 -2.6048
12947TIP3   OH260255   1.648   5.189  15.098  0.0773 -0.6921  0.1664
12947TIP3    H160256   1.688   5.117  15.049  0.3230  0.3380 -1.1891
12947TIP3    H260257   1.554   5.168  15.098 -0.0426 -0.2750 -1.5390
12948TIP3   OH260258   1.760   6.486  12.007  0.3179 -0.5304  0.9439
12948TIP3    H160259   1.708   6.562  11.983 -1.3782 -1.2188  2.2587
12948TIP3    H260260   1.812   6.515  12.082  0.1283 -0.5014  1.0636
12949TIP3   OH260261   2.852   2.384  11.018  0.0950 -0.3094 -0.0950
12949TIP3    H160262   2.785   2.446  10.991  1.0519  0.9230  0.2692
12949TIP3    H260263   2.869   2.331  10.939 -0.7474 -0.1428 -0.4003
12950TIP3   OH260264   6.389   5.152   4.635  0.3930  0.6882 -0.2261
12950TIP3    H160265   6.410   5.243   4.613  1.7840  1.1320  2.4599
12950TIP3    H260266   6.340   5.119   4.560  1.4223  3.0939 -2.0718
12951TIP3   OH260267   5.227   0.721   2.149  0.2978  0.0346 -0.0364
12951TIP3    H160268   5.150   0.668   2.169 -0.0192  0.0530 -1.1228
12951TIP3    H260269   5.227   0.790   2.215 -0.9282  0.3364 -0.3320
12952TIP3   OH260270   2.495   0.398   2.462 -0.7878 -0.0350  0.3670
12952TIP3    H160271   2.448   0.361   2.387 -2.2349 -1.6928  1.9671
12952TIP3    H260272   2.435   0.464   2.497 -0.2067  0.6001  0.1588
12953TIP3   OH260273   3.287   2.565  11.469 -0.2167 -0.2075 -0.2343
12953TIP3    H160274   3.350   2.633  11.446  0.5466 -0.5767  0.6983
12953TIP3    H260275   3.294   2.501  11.398 -0.2577  0.2273 -0.6358
12954TIP3   OH260276   4.376   6.562  17.231  0.2520 -0.2446  0.3071
12954TIP3    H160277   4.354   6.652  17.255  0.2993  0.4531 -1.9827
12954TIP3    H260278   4.292   6.516  17.229 -0.3595  0.7879 -2.1830
12955TIP3   OH260279   3.562   1.864  15.204 -0.1312 -0.2623 -0.1833
12955TIP3    H160280   3.620   1.872  15.279 -0.4255 -0.8514  0.1152
12955TIP3    H260281   3.603   1.916  15.136  1.7143 -2.1119 -0.5650
12956TIP3   OH260282   5.197   3.386   2.088  0.5840  0.0283 -0.0092
12956TIP3    H160283   5.123   3.327   2.105  0.0001  0.4128 -1.1311
12956TIP3    H260284   5.170   3.469   2.126  0.6278  0.0557 -0.0389
12957TIP3   OH260285   2.939   5.888  15.991  0.4226  0.1996  0.5326
12957TIP3    H160286   3.034   5.899  15.997  0.6485  1.1018 -2.7232
12957TIP3    H260287   2.927   5.797  15.965  0.1531 -0.6218  3.2603
12958TIP3   OH260288   5.107   3.215  16.443  0.7011  0.1380  0.1416
12958TIP3    H160289   5.196   3.187  16.465  0.6660  1.0235  1.5450
12958TIP3    H260290   5.071   3.143  16.392  1.4763 -1.1939  1.4118
12959TIP3   OH260291   4.102   0.783   0.642  0.4448  0.3241  0.1763
12959TIP3    H160292   4.129   0.786   0.550  0.1212  1.1947  0.0995
12959TIP3    H260293   4.034   0.850   0.649  0.2231  0.0269  0.9762
12960TIP3   OH260294   6.288   2.703  15.851 -0.2871 -0.1007  0.4992
12960TIP3    H160295   6.265   2.656  15.931  0.5054 -1.2528  0.0678
12960TIP3    H260296   6.375   2.737  15.868  0.3253 -1.2442 -0.2390
12961TIP3   OH260297   1.136   6.673   0.892 -0.0042 -0.3895  0.2756
12961TIP3    H160298   1.075   6.690   0.964 -0.9894  1.1617 -0.8592
12961TIP3    H260299   1.135   6.578   0.881 -2.2630 -0.4094  0.2684
12962TIP3   OH260300   6.742   3.761  15.806  0.5096  0.6454 -0.1243
12962TIP3    H160301   6.669   3.810  15.766  1.2588  1.1628 -0.8948
12962TIP3    H260302   6.760   3.691  15.743  0.5755  0.4164  0.1479
12963TIP3   OH260303   3.207   6.619  13.945 -0.3144 -0.2916 -0.4321
12963TIP3    H160304   3.158   6.548  13.988 -0.6254  0.2562  0.1260
12963TIP3    H260305   3.143   6.659  13.886 -0.9938  1.3059  1.2915
12964TIP3   OH260306   2.074   3.941  14.169  0.4364 -0.2118 -0.0489
12964TIP3    H160307   2.075   3.993  14.249 -1.6425 -0.5075  0.2202
12964TIP3    H260308   2.048   4.002  14.100  2.8496  0.2006 -0.7020
12965TIP3   OH260309   3.570   0.710   3.373  0.2531 -0.3224 -0.0535
12965TIP3    H160310   3.564   0.729   3.466  0.4050 -0.8255  0.0601
12965TIP3    H260311   3.489   0.663   3.353  0.9863 -1.7353  0.1956
12966TIP3   OH260312   0.938   3.921   3.814  0.1359  0.2236  0.1400
12966TIP3    H160313   0.990   3.951   3.740  1.1291  1.0310  1.1216
12966TIP3    H260314   0.964   3.979   3.886 -0.4342 -0.8500  1.2443
12967TIP3   OH260315   6.355   1.254  12.073  0.0351  0.1368 -0.3330
12967TIP3    H160316   6.361   1.206  12.156  1.5377 -0.4021 -0.7210
12967TIP3    H260317   6.292   1.203  12.021 -0.5451  0.2061  0.2907
12968TIP3   OH260318   2.317   3.906  15.670 -0.2367  0.3540 -0.2192
12968TIP3    H160319   2.259   3.931  15.599  0.1750 -0.1915 -0.7609
12968TIP3    H260320   2.293   3.964  15.743 -3.0957 -1.3883  0.3829
12969TIP3   OH260321   1.141   5.939   3.473  0.2106  0.1715  0.0822
12969TIP3    H160322   1.218   5.995   3.480  0.7683 -0.4730 -0.7378
12969TIP3    H260323   1.108   5.955   3.385 -0.3101  0.0703  0.2570
12970TIP3   OH260324   4.734   1.683  13.624 -0.2618 -0.4381 -0.5319
12970TIP3    H160325   4.757   1.595  13.594 -0.6062 -0.7216  0.0087
12970TIP3    H260326   4.639   1.682  13.631 -0.3191  0.1886 -1.1467
12971TIP3   OH260327   2.029   3.419   2.388  0.0606  0.1247 -0.2151
12971TIP3    H160328   2.086   3.383   2.320 -0.1577  0.7236 -0.7283
12971TIP3    H260329   2.077   3.406   2.470 -0.1053 -1.5143 -0.3454
12972TIP3   OH260330   2.516   3.968   5.400 -0.3302 -0.0122  0.0560
12972TIP3    H160331   2.548   3.976   5.490 -0.3374  1.5228 -0.0479
12972TIP3    H260332   2.477   3.881   5.396  1.5830 -0.9673  0.9068
12973TIP3   OH260333   0.056   6.186  15.042 -0.0698 -0.2228  0.3688
12973TIP3    H160334  -0.006   6.119  15.014 -0.5649  0.4124 -0.1001
12973TIP3    H260335   0.016   6.268  15.013  1.9037  0.0831 -1.7862
12974TIP3   OH260336   0.729   4.313  17.020  0.5328  0.2987  0.2710
12974TIP3    H160337   0.758   4.226  16.993 -0.2203  0.1075  0.0575
12974TIP3    H260338   0.810   4.361  17.039  0.9338 -0.5719  0.7948
12975TIP3   OH260339   1.152   3.509   3.597  0.2221 -0.0149  0.1176
12975TIP3    H160340   1.105   3.555   3.528  0.8025  1.1451  0.4661
12975TIP3    H260341   1.226   3.565   3.618  0.2044 -0.4579  1.5039
12976TIP3   OH260342   2.599   3.729   5.691  0.0028 -0.2699  0.3717
12976TIP3    H160343   2.684   3.762   5.719  0.8183 -0.1911 -1.9737
12976TIP3    H260344   2.588   3.647   5.739  1.9092 -0.7989 -0.0186
12977TIP3   OH260345   2.738   5.716  12.932  0.1424 -0.2301 -0.0380
12977TIP3    H160346   2.723   5.740  12.841 -0.8513 -0.1542  0.1349
12977TIP3    H260347   2.682   5.640  12.947 -0.2198  0.1646  0.6874
12978TIP3   OH260348   5.007   3.519  11.798 -0.5552 -0.4153 -0.1498
12978TIP3    H160349   4.997   3.507  11.892 -2.6944 -2.7603 -0.5497
12978TIP3    H260350   4.955   3.597  11.778  0.0011  0.1599  0.5889
12979TIP3   OH260351   1.431   6.633   1.926  0.3068  0.2853  0.0531
12979TIP3    H160352   1.518   6.607   1.956  0.2558  1.6239  1.5155
12979TIP3    H260353   1.422   6.724   1.955 -2.2642 -0.3534  1.5307
12980TIP3   OH260354   6.485   6.006  14.725 -0.7145 -0.3997  0.3418
12980TIP3    H160355   6.412   6.029  14.667 -3.1634 -2.6874  2.2785
12980TIP3    H260356   6.485   5.911  14.727  1.5783 -0.4305  1.3814
12981TIP3   OH260357   1.294   3.527   5.373 -0.4127  0.1909 -0.2539
12981TIP3    H160358   1.237   3.465   5.419 -0.2135 -0.3345 -0.6985
12981TIP3    H260359   1.373   3.531   5.426 -0.2308 -0.3189 -0.4858
12982TIP3   OH260360   4.712   2.369  17.186  0.2999 -0.0737 -0.2685
12982TIP3    H160361   4.799   2.410  17.182 -0.1081  0.8026 -0.4194
12982TIP3    H260362   4.729   2.280  17.219  1.4369 -0.5092 -1.9002
12983TIP3   OH260363   1.062   2.652   4.937 -0.6745 -0.4016 -0.3450
12983TIP3    H160364   1.151   2.686   4.943 -0.7268 -0.1882 -0.7837
12983TIP3    H260365   1.059   2.582   5.002 -0.3382 -0.0724  0.0324
12984TIP3   OH260366   5.450   2.917   4.955 -0.3076  0.5173 -0.2770
12984TIP3    H160367   5.477   2.905   4.864  1.1676  1.4051  0.0059
12984TIP3    H260368   5.357   2.897   4.955 -0.0424 -0.9405 -1.6851
12985TIP3   OH260369   0.548   0.915  12.294 -0.6653  0.0842 -0.6617
12985TIP3    H160370   0.529   0.822  12.286  0.7654 -0.1960 -1.3305
12985TIP3    H260371   0.516   0.953  12.212 -2.2293  0.3928  0.0683
12986TIP3   OH260372   6.502   2.775   6.011  0.3192  0.1855  0.4285
12986TIP3    H160373   6.439   2.705   6.025 -1.6500  2.1829  2.1673
12986TIP3    H260374   6.461   2.832   5.946  1.5385  0.2263 -0.3590
12987TIP3   OH260375   3.865   3.615   2.588 -0.1070 -0.2915  0.4245
12987TIP3    H160376   3.787   3.659   2.622 -0.9230 -0.1765 -1.4888
12987TIP3    H260377   3.905   3.575   2.665 -2.1990 -0.5866  1.4309
12988TIP3   OH260378   1.753   3.292   2.137  0.3761 -0.0868  0.3914
12988TIP3    H160379   1.685   3.347   2.099 -0.3063 -1.9048 -1.1798
12988TIP3    H260380   1.778   3.232   2.066  1.8173 -1.1230  1.6972
12989TIP3   OH260381   3.708   1.361   0.954  0.4393 -0.1654  0.0437
12989TIP3    H160382   3.741   1.411   0.880  0.6252  0.5152  0.5722
12989TIP3    H260383   3.715   1.269   0.927  3.3186 -0.1131  0.3528
12990TIP3   OH260384   4.386   4.872  13.591  0.4479  0.5629 -0.2909
12990TIP3    H160385   4.416   4.852  13.680 -0.2504  1.2887  0.1263
12990TIP3    H260386   4.346   4.791  13.560 -0.4261  0.6576  0.5470
12991TIP3   OH260387   6.109   6.672  12.009 -0.7194 -0.3592 -0.6069
12991TIP3    H160388   6.093   6.589  11.964  1.7550 -1.0773 -0.3359
12991TIP3    H260389   6.153   6.727  11.943 -0.0042 -0.2293 -0.0292
12992TIP3   OH260390   3.976   6.484  11.396  0.3418 -0.4968 -0.5434
12992TIP3    H160391   3.961   6.392  11.375 -0.6288 -0.0926 -1.7637
12992TIP3    H260392   4.003   6.484  11.488 -0.7535 -1.8886 -0.1983
12993TIP3   OH260393   1.993   2.820  11.716 -0.0559  0.5596 -0.5126
12993TIP3    H160394   1.977   2.738  11.669 -0.9145 -0.6373  1.7300
12993TIP3    H260395   2.047   2.795  11.791  0.8030  2.3027 -0.4855
12994TIP3   OH260396   3.394   4.279  14.723  0.3734  0.3330  0.3445
12994TIP3    H160397   3.358   4.326  14.647 -0.6429  1.3942  1.4415
12994TIP3    H260398   3.325   4.283  14.789  1.5379  0.1323  1.6199
12995TIP3   OH260399   2.527   2.954  14.621 -0.0589  0.3144 -0.0468
12995TIP3    H160400   2.446   3.004  14.632 -2.0706 -2.8885  1.2633
12995TIP3    H260401   2.503   2.880  14.565  2.1501 -0.3885 -0.1786
12996TIP3   OH260402   4.616   0.096  15.936 -0.1882  0.6177  0.0403
12996TIP3    H160403   4.613   0.057  15.849 -1.3902 -0.2233  0.4316
12996TIP3    H260404   4.691   0.054  15.978 -0.2255  0.2558 -0.2444
12997TIP3   OH260405   5.016   5.711   1.618 -0.4790 -0.1412  0.5733
12997TIP3    H160406   5.017   5.693   1.524  0.5685  1.0285  0.3257
12997TIP3    H260407   5.054   5.799   1.626 -0.9121 -0.0558  2.0633
12998TIP3   OH260408   6.348   5.796  15.053 -0.0506 -0.2718  0.2297
12998TIP3    H160409   6.256   5.811  15.074  0.5402  1.0394  2.1265
12998TIP3    H260410   6.352   5.808  14.958 -1.5112  1.7971  0.3470
12999TIP3   OH260411   5.054   1.966   1.732 -0.9545  0.5324 -0.4947
12999TIP3    H160412   5.103   1.884   1.735  1.1866  1.7446  0.3566
12999TIP3    H260413   5.041   1.982   1.638  2.9857  1.5177 -1.0741
13000TIP3   OH260414   3.386   1.363  12.835  0.2703  0.3892  0.2286
13000TIP3    H160415   3.447   1.302  12.793  0.3038 -0.1180  0.9854
13000TIP3    H260416   3.442   1.421  12.886  0.1785  0.4299  0.2833
13001TIP3   OH260417   5.153   1.675  16.788  0.2796  0.4167  0.5619
13001TIP3    H160418   5.158   1.646  16.697 -1.1939 -0.1159  0.6369
13001TIP3    H260419   5.118   1.764  16.782  1.1549  0.7771  0.5693
13002TIP3   OH260420   5.127   2.694  15.268 -0.5101 -0.8070  0.3672
13002TIP3    H160421   5.118   2.642  15.348  0.6722  0.5151  1.4031
13002TIP3    H260422   5.165   2.777  15.297 -3.6633  1.2883 -0.9978
13003TIP3   OH260423   2.784   6.667   1.848 -0.1045  0.1154 -0.0393
13003TIP3    H160424   2.691   6.646   1.849 -0.6976  2.3528 -1.0908
13003TIP3    H260425   2.822   6.605   1.786 -1.5095  1.1116 -2.0303
13004TIP3   OH260426   6.242   4.915   2.959 -0.0703 -0.2917  0.6709
13004TIP3    H160427   6.156   4.898   2.998 -0.4223 -1.7046 -0.6371
13004TIP3    H260428   6.230   4.897   2.865  0.9628  2.1017 -0.0153
13005TIP3   OH260429   2.910   5.855   1.043 -0.4619  0.1017  0.4819
13005TIP3    H160430   2.913   5.761   1.060  0.3128  0.3390  1.7572
13005TIP3    H260431   2.981   5.892   1.096 -1.2448  1.5060  0.6056
13006TIP3   OH260432   0.746   4.495  11.960  0.0517 -0.0574 -0.4128
13006TIP3    H160433   0.718   4.439  12.033 -0.2798  1.0245  0.3174
13006TIP3    H260434   0.718   4.447  11.881  1.5536 -1.8658  0.0804
13007TIP3   OH260435   0.074   2.194  13.470 -0.6064  0.6811  0.5457
13007TIP3    H160436   0.039   2.167  13.555 -0.5537  1.5105  0.8443
13007TIP3    H260437   0.009   2.164  13.407 -0.0193 -1.1124  0.7323
13008TIP3   OH260438   0.870   1.247  12.175 -0.6756  0.3478 -0.4973
13008TIP3    H160439   0.923   1.326  12.186 -2.8481  1.9217 -0.7227
13008TIP3    H260440   0.933   1.175  12.184  1.6251  2.0831 -1.5464
13009TIP3   OH260441   2.524   1.467   4.322 -0.4222  0.2674  0.1153
13009TIP3    H160442   2.451   1.413   4.352 -2.9260  3.3868  0.1223
13009TIP3    H260443   2.577   1.479   4.401 -0.4729 -1.0985  0.3929
13010TIP3   OH260444   6.096   1.079   3.052  0.3701 -0.2673  0.2948
13010TIP3    H160445   6.180   1.124   3.039  1.6043 -2.3965  0.3205
13010TIP3    H260446   6.105   1.037   3.138  0.2764 -2.3773 -0.6452
13011TIP3   OH260447   5.201   3.718   4.723 -0.3095 -0.4165 -0.0005
13011TIP3    H160448   5.130   3.688   4.666 -0.9103  0.4984  0.2522
13011TIP3    H260449   5.168   3.706   4.812 -0.5308  0.8836  0.1096
13012TIP3   OH260450   6.402   5.583  14.558  0.4388 -0.2548 -0.3380
13012TIP3    H160451   6.443   5.645  14.619 -1.0634 -0.3778  0.8450
13012TIP3    H260452   6.393   5.632  14.477  1.3416  0.3254 -0.1067
13013TIP3   OH260453   6.013   0.638   1.758  0.7683  0.2748 -0.0268
13013TIP3    H160454   6.067   0.625   1.836  0.7188 -0.4285 -0.1038
13013TIP3    H260455   5.925   0.655   1.792  0.6626 -0.4372  0.0694
13014TIP3   OH260456   0.008   5.161  14.698 -0.1767 -0.1664 -0.3586
13014TIP3    H160457   0.066   5.111  14.641  1.1496 -0.2527  1.0156
13014TIP3    H260458   0.010   5.250  14.662 -0.3251 -0.4752 -1.1509
13015TIP3   OH260459   4.096   5.118   5.705 -0.1839 -0.1363  0.0144
13015TIP3    H160460   4.125   5.077   5.624  0.9680 -0.0150  0.3491
13015TIP3    H260461   4.006   5.145   5.688 -0.2183 -0.8417 -0.9445
13016TIP3   OH260462   0.990   3.090   5.520 -0.4896 -0.4433  0.1222
13016TIP3    H160463   0.932   3.014   5.533  1.0397 -1.5077  1.1525
13016TIP3    H260464   1.033   3.073   5.437  1.3257 -1.8295  1.2542
13017TIP3   OH260465   4.128   5.783   3.901 -0.3990 -0.5557  0.5268
13017TIP3    H160466   4.157   5.719   3.836  0.4576  0.8093 -0.4782
13017TIP3    H260467   4.113   5.863   3.851 -0.9479  0.1851  1.8340
13018TIP3   OH260468   1.368   0.197  17.261 -0.3938  0.1758 -0.3296
13018TIP3    H160469   1.310   0.121  17.259 -0.3632  0.0474  1.7119
13018TIP3    H260470   1.380   0.216  17.354  2.1882  0.6819 -0.6791
13019TIP3   OH260471   6.202   2.772  15.040  0.2467 -0.3219  0.4438
13019TIP3    H160472   6.231   2.703  15.100  0.3767  0.4756  1.3158
13019TIP3    H260473   6.282   2.812  15.008  0.2595 -1.7931 -1.5956
13020TIP3   OH260474   2.578   2.926   1.801 -0.1376  0.1807 -0.0661
13020TIP3    H160475   2.563   2.848   1.749 -2.2852  0.8743 -0.5837
13020TIP3    H260476   2.537   2.907   1.885  2.0164 -0.3577  0.9500
13021TIP3   OH260477   2.104   3.580   1.271  0.2798 -0.1150  0.2494
13021TIP3    H160478   2.146   3.567   1.356  1.3811 -0.6479 -0.3651
13021TIP3    H260479   2.148   3.657   1.234  0.6110 -0.5785 -0.3310
13022TIP3   OH260480   5.667   4.137  10.966 -0.3312  0.5879 -0.1806
13022TIP3    H160481   5.752   4.182  10.966  1.1363 -1.9883  0.4516
13022TIP3    H260482   5.605   4.204  10.936  2.1153  2.1341 -2.2793
13023TIP3   OH260483   3.389   6.752   0.812 -0.2092  0.3487 -0.1066
13023TIP3    H160484   3.406   6.659   0.797 -0.9075 -0.1397  1.8594
13023TIP3    H260485   3.473   6.795   0.797  0.5022 -0.7992  0.5082
13024TIP3   OH260486   1.191   6.370   5.746  0.6517  0.3746  0.0928
13024TIP3    H160487   1.272   6.413   5.719  3.0880 -2.6267  1.8053
13024TIP3    H260488   1.162   6.322   5.668  1.5518  0.1499 -0.1259
13025TIP3   OH260489   2.571   0.230   4.065 -0.4854 -0.3117 -0.4145
13025TIP3    H160490   2.634   0.179   4.015 -0.0433  0.6139 -0.8254
13025TIP3    H260491   2.605   0.319   4.062 -1.5984  0.1303 -0.2977
13026TIP3   OH260492   2.323   2.706   6.086 -0.1747 -0.3717  0.2105
13026TIP3    H160493   2.285   2.753   6.160  0.7748  0.8224 -0.0377
13026TIP3    H260494   2.379   2.640   6.127 -0.3117 -0.2717  0.5642
13027TIP3   OH260495   4.628   3.281   6.013 -0.6749  0.1952 -1.1063
13027TIP3    H160496   4.698   3.277   6.078 -1.0640  1.8186 -0.5379
13027TIP3    H260497   4.673   3.298   5.931 -0.3365  0.4250 -0.8790
13028TIP3   OH260498   3.647   1.987  12.184 -0.3700 -0.7907  0.1677
13028TIP3    H160499   3.605   2.071  12.163  0.6324 -0.5341 -0.9544
13028TIP3    H260500   3.663   1.947  12.098 -0.8325 -2.1393  0.6982
13029TIP3   OH260501   6.203   1.122   5.164 -0.2448  0.3827 -0.1301
13029TIP3    H160502   6.175   1.035   5.192 -0.7537  0.7335  0.4730
13029TIP3    H260503   6.124   1.175   5.169 -0.0017  0.8169 -0.7769
13030TIP3   OH260504   2.230   6.344   3.191 -0.2997  0.2666  0.3603
13030TIP3    H160505   2.253   6.270   3.135 -2.3638  0.7362 -1.2256
13030TIP3    H260506   2.172   6.308   3.258 -0.4750  0.2715  0.2109
13031TIP3   OH260507   1.883   3.564  11.459  0.0037  0.5573 -0.4948
13031TIP3    H160508   1.923   3.587  11.375  0.8305 -0.8072 -0.5023
13031TIP3    H260509   1.891   3.469  11.464  1.3431  0.7396  1.7979
13032TIP3   OH260510   5.303   1.652   3.990 -0.6223  0.4561  0.3399
13032TIP3    H160511   5.345   1.697   3.917 -1.3011  0.5429 -0.0000
13032TIP3    H260512   5.235   1.712   4.020 -0.6890  0.2026  0.7128
13033TIP3   OH260513   3.304   2.093  13.023 -0.1952  0.5759  0.1846
13033TIP3    H160514   3.322   2.046  12.941 -2.5356 -0.8022  0.3873
13033TIP3    H260515   3.276   2.180  12.994  2.2690  1.3194 -0.2628
13034TIP3   OH260516   4.869   3.688   2.422  0.9134 -0.2996 -0.5291
13034TIP3    H160517   4.812   3.624   2.465 -0.3224  1.1364  0.0159
13034TIP3    H260518   4.925   3.721   2.492 -2.3149  3.3963  0.6280
13035TIP3   OH260519   0.893   1.417   1.122  0.4942 -0.1777  0.1531
13035TIP3    H160520   0.818   1.403   1.179 -0.6482 -0.4043 -1.3425
13035TIP3    H260521   0.964   1.441   1.181 -0.4334 -1.1294  1.7182
13036TIP3   OH260522   1.865   3.078  16.748  0.1363  1.1327  0.6542
13036TIP3    H160523   1.946   3.035  16.775  0.4240  0.2796 -1.4187
13036TIP3    H260524   1.801   3.050  16.814  1.1048  0.3571  1.3036
13037TIP3   OH260525   4.982   0.505  13.441 -0.1377  0.2505  0.0775
13037TIP3    H160526   5.023   0.452  13.373  1.3448 -0.3327  1.3844
13037TIP3    H260527   5.054   0.537  13.494 -1.1948  1.5315  0.8013
13038TIP3   OH260528   5.066   5.185   3.578 -0.4474 -0.5469 -0.0665
13038TIP3    H160529   5.028   5.267   3.547 -0.5513  0.1246  1.7590
13038TIP3    H260530   5.010   5.117   3.541 -1.2726  0.2671 -0.3430
13039TIP3   OH260531   4.362   3.199   5.998 -0.1283 -0.0773 -1.2118
13039TIP3    H160532   4.379   3.213   5.904  0.4950  0.9896 -0.9632
13039TIP3    H260533   4.445   3.223   6.040 -1.1238  1.8162 -0.2131
13040TIP3   OH260534   1.196   4.234   2.985 -0.0147 -0.2589  0.3338
13040TIP3    H160535   1.195   4.151   2.937 -0.2953  1.2137 -2.4082
13040TIP3    H260536   1.104   4.254   3.000  0.0190 -0.0618  0.2786
13041TIP3   OH260537   1.693   0.386  16.033 -0.3643  0.1566  0.2570
13041TIP3    H160538   1.644   0.464  16.058 -0.2658  0.9179 -1.7014
13041TIP3    H260539   1.768   0.421  15.983  0.2601 -1.1477  0.2452
13042TIP3   OH260540   4.524   2.919  10.783 -0.1197 -0.5227 -0.4874
13042TIP3    H160541   4.568   2.954  10.706  1.3613  0.5698  0.7939
13042TIP3    H260542   4.435   2.899  10.753 -0.3721  2.2877 -1.8578
13043TIP3   OH260543   4.936   5.494   1.754  0.2831  0.0536  0.4822
13043TIP3    H160544   4.995   5.563   1.721  1.2336 -1.0702 -0.2478
13043TIP3    H260545   4.869   5.486   1.686  0.4537 -0.0702  0.3250
13044TIP3   OH260546   5.988   1.037  11.707 -0.0528 -0.5567 -0.7221
13044TIP3    H160547   5.910   1.072  11.665 -1.1983 -0.9056  0.9853
13044TIP3    H260548   6.043   1.005  11.635  0.6385  3.6431 -2.3542
13045TIP3   OH260549   6.094   0.441  14.759  0.4395 -0.3682 -0.4159
13045TIP3    H160550   6.030   0.399  14.816 -0.6778  1.1628 -0.4832
13045TIP3    H260551   6.172   0.451  14.815 -0.5423  0.8517  0.8181
13046TIP3   OH260552   2.259   2.817   0.439 -0.2309  0.3594  0.3552
13046TIP3    H160553   2.343   2.856   0.414 -0.5802 -0.2671 -2.0061
13046TIP3    H260554   2.275   2.723   0.441 -0.9997  0.2016 -0.6432
13047TIP3   OH260555   3.860   3.619  11.257 -0.1233  0.0787  0.5378
13047TIP3    H160556   3.842   3.633  11.350 -1.1089  0.2435  0.3337
13047TIP3    H260557   3.807   3.543  11.234 -1.0319  0.9120 -0.2170
13048TIP3   OH260558   5.577   3.530   3.066 -0.0510 -0.6283  0.6718
13048TIP3    H160559   5.669   3.528   3.040  0.0031  0.4597  0.7171
13048TIP3    H260560   5.577   3.575   3.151 -0.8174  1.6230 -0.4214
13049TIP3   OH260561   4.976   5.446  10.806  0.0564 -0.3514  0.1508
13049TIP3    H160562   5.027   5.524  10.786  1.2788 -1.0460  0.4875
13049TIP3    H260563   5.008   5.379  10.746 -0.5584 -0.7722  0.2744
13050TIP3   OH260564   4.889   5.821  16.971  0.3381  0.7025 -1.1023
13050TIP3    H160565   4.826   5.872  16.920  0.0240  1.6118  0.1581
13050TIP3    H260566   4.834   5.760  17.021  0.6105  0.1637 -1.4479
13051TIP3   OH260567   6.522   2.004   2.753 -0.2149  0.1913 -0.2336
13051TIP3    H160568   6.526   1.989   2.658  1.7657 -0.8812 -0.0386
13051TIP3    H260569   6.430   1.992   2.775 -0.8918  1.3858 -2.1372
13052TIP3   OH260570   5.871   2.819  11.626  0.1283  0.0633  0.4542
13052TIP3    H160571   5.941   2.881  11.646  0.3215  0.0161 -0.0504
13052TIP3    H260572   5.795   2.853  11.673  0.3651  0.3900  0.6073
13053TIP3   OH260573   6.476   5.567   4.248  0.6493 -0.4371 -0.0948
13053TIP3    H160574   6.542   5.599   4.187 -0.1039 -0.6102 -1.0424
13053TIP3    H260575   6.403   5.628   4.239  1.2730  0.7402  2.1871
13054TIP3   OH260576   4.444   2.660   2.117  0.6400 -0.3948  0.2205
13054TIP3    H160577   4.375   2.657   2.051  1.5713 -0.2572 -0.7894
13054TIP3    H260578   4.522   2.629   2.071  1.3437 -0.1651  1.2264
13055TIP3   OH260579   4.706   1.571   4.350  0.3492 -0.5173 -0.2142
13055TIP3    H160580   4.687   1.638   4.284 -1.3463 -0.6883  0.0680
13055TIP3    H260581   4.748   1.620   4.421  0.6222 -0.0376 -0.6943
13056TIP3   OH260582   5.318   6.692  14.091 -0.2485 -0.5833  0.3830
13056TIP3    H160583   5.272   6.774  14.110 -0.2738 -0.0853 -1.6148
13056TIP3    H260584   5.299   6.674  13.999 -0.4735 -3.0041  0.8134
13057TIP3   OH260585   1.197   2.445  16.973 -0.0786 -0.4600 -0.3622
13057TIP3    H160586   1.242   2.376  16.924 -0.5909 -1.8373  1.0299
13057TIP3    H260587   1.266   2.503  17.003  0.5585 -1.3154 -0.1355
13058TIP3   OH260588   4.034   1.768  15.977 -0.1927  0.0195  0.0545
13058TIP3    H160589   4.096   1.834  16.007 -1.2686  0.4839  1.3779
13058TIP3    H260590   4.062   1.748  15.888  1.2915  0.8695  0.2939
13059TIP3   OH260591   1.413   5.611   4.117 -0.1410  0.2055 -0.1886
13059TIP3    H160592   1.332   5.571   4.149  1.0465 -2.5878 -0.3858
13059TIP3    H260593   1.402   5.705   4.135 -2.1326 -0.4301  2.6096
13060TIP3   OH260594   0.673   4.725   1.455  0.0773  0.9995 -0.3490
13060TIP3    H160595   0.708   4.803   1.412  2.1980  1.6443  2.2930
13060TIP3    H260596   0.699   4.734   1.547 -0.2268 -2.4818  0.2183
13061TIP3   OH260597   6.308   4.218  14.405 -0.4635  0.1723 -0.0069
13061TIP3    H160598   6.338   4.256  14.322  1.0763 -0.4347  0.2382
13061TIP3    H260599   6.267   4.135  14.380  0.0197 -0.0225 -0.1796
13062TIP3   OH260600   3.478   4.950  15.978  0.3425  0.6690 -0.2720
13062TIP3    H160601   3.389   4.972  15.953  0.9077  1.7673 -1.3927
13062TIP3    H260602   3.471   4.923  16.070 -0.9847  1.7440 -0.0288
13063TIP3   OH260603   4.957   2.546   1.194 -0.1411  0.0545 -0.1505
13063TIP3    H160604   5.038   2.596   1.187 -1.3890  1.9976 -1.5622
13063TIP3    H260605   4.943   2.537   1.289  0.6558  1.5014  0.1376
13064TIP3   OH260606   1.761   4.552   4.972  0.3424 -0.0934 -0.1143
13064TIP3    H160607   1.686   4.608   4.993  1.2249  1.0462  0.0947
13064TIP3    H260608   1.811   4.548   5.054  1.9614  1.4940 -0.9482
13065TIP3   OH260609   3.049   3.763  12.826  0.3242 -0.4746 -0.1060
13065TIP3    H160610   2.976   3.703  12.837 -0.6263  0.9172  1.7545
13065TIP3    H260611   3.123   3.719  12.866 -0.4509 -0.3136  1.6118
13066TIP3   OH260612   4.767   3.811  12.767 -0.0992 -0.4984 -0.7332
13066TIP3    H160613   4.772   3.721  12.799  0.4345 -0.1940  0.1002
13066TIP3    H260614   4.730   3.804  12.680 -0.6613 -1.4674 -0.4289
13067TIP3   OH260615   6.236   2.945  16.326 -0.4671 -0.1409  0.4684
13067TIP3    H160616   6.249   2.850  16.320  1.3531  0.1510 -1.0847
13067TIP3    H260617   6.154   2.960  16.279 -0.0180 -0.8120 -0.5609
13068TIP3   OH260618   2.973   5.045   0.233  0.3060  0.2282 -0.2660
13068TIP3    H160619   2.948   5.125   0.278  0.8567 -0.4639  1.3634
13068TIP3    H260620   2.890   5.004   0.208 -0.1041  0.0176  1.3025
13069TIP3   OH260621   0.337   6.538  15.226  0.5769 -0.6684  0.5534
13069TIP3    H160622   0.428   6.508  15.227  0.8968  0.2647  0.4436
13069TIP3    H260623   0.286   6.459  15.244  1.3523 -1.3806 -0.2400
13070TIP3   OH260624   5.869   6.299  16.886 -0.2186  0.3829  0.5603
13070TIP3    H160625   5.903   6.252  16.962 -1.6505  0.0539  1.0320
13070TIP3    H260626   5.850   6.230  16.822  1.4395  0.6975 -0.3178
13071TIP3   OH260627   2.232   0.672  15.068  0.2734 -0.1789 -0.2759
13071TIP3    H160628   2.161   0.627  15.114  0.8086 -0.8573 -0.0781
13071TIP3    H260629   2.311   0.643  15.114  0.5709  1.8859  0.5900
13072TIP3   OH260630   4.879   3.618   0.406 -0.1578 -0.2939  0.8430
13072TIP3    H160631   4.818   3.692   0.409  0.4032  0.1575  2.2415
13072TIP3    H260632   4.887   3.591   0.498  1.7193 -0.3327  0.7094
13073TIP3   OH260633   3.851   1.217  16.118  0.0960  0.3663  0.1028
13073TIP3    H160634   3.920   1.171  16.071  0.2580  1.1140 -0.4092
13073TIP3    H260635   3.774   1.209  16.061 -0.3081 -0.6266  0.7571
13074TIP3   OH260636   2.778   3.503   3.702  0.4939 -0.1867  0.5260
13074TIP3    H160637   2.790   3.594   3.727  0.8970 -0.3631  0.9827
13074TIP3    H260638   2.689   3.499   3.666  1.2914  0.8911 -1.7644
13075TIP3   OH260639   2.163   0.006   4.306  0.5867 -0.2011 -0.3063
13075TIP3    H160640   2.239   0.061   4.286  0.3448  0.4195  0.4213
13075TIP3    H260641   2.201  -0.078   4.330  1.0536  0.1203  0.1058
13076TIP3   OH260642   5.938   2.820   4.597  0.2098 -0.3876 -0.4154
13076TIP3    H160643   5.949   2.783   4.685 -1.3505 -1.3569 -0.5939
13076TIP3    H260644   5.847   2.801   4.575  0.0201  1.5727 -1.4676
13077TIP3   OH260645   1.374   0.403   2.022 -0.0124  0.1919 -0.2975
13077TIP3    H160646   1.317   0.439   1.954  0.5417  0.7501 -0.4752
13077TIP3    H260647   1.377   0.471   2.089  1.3909  0.6814 -0.8330
13078TIP3   OH260648   4.254   3.065  13.391  0.6025  0.1477 -0.7150
13078TIP3    H160649   4.298   2.980  13.379 -0.8425 -0.5317 -1.4709
13078TIP3    H260650   4.216   3.060  13.479  1.7893  0.6339 -0.1618
13079TIP3   OH260651   4.514   3.869   4.305  0.1622  0.2993 -0.1429
13079TIP3    H160652   4.552   3.784   4.284  0.4152  0.1474  0.8438
13079TIP3    H260653   4.590   3.926   4.320  0.0781 -0.0647  2.0759
13080TIP3   OH260654   2.618   0.040   2.579 -0.2677  0.9685 -0.1487
13080TIP3    H160655   2.537   0.059   2.626 -0.0465 -0.5233  0.8913
13080TIP3    H260656   2.590  -0.002   2.497 -0.5942  2.3081 -0.7550
13081TIP3   OH260657   2.256   4.394   2.549 -0.3248 -0.7876 -0.4202
13081TIP3    H160658   2.327   4.390   2.613 -0.9512  0.8923  0.4328
13081TIP3    H260659   2.285   4.462   2.487 -0.7356 -0.8301 -0.6595
13082TIP3   OH260660   1.754   4.893   1.667  0.3462 -0.1975  0.1433
13082TIP3    H160661   1.841   4.928   1.650 -0.4134  0.8725 -1.9520
13082TIP3    H260662   1.752   4.809   1.621 -0.1476  0.4375 -1.0371
13083TIP3   OH260663   6.096   6.369   5.227 -0.0885  1.2044  0.2327
13083TIP3    H160664   6.073   6.407   5.312  0.2312  1.4691  0.2065
13083TIP3    H260665   6.029   6.303   5.210 -0.3293  1.3682  0.5466
13084TIP3   OH260666   1.852   1.830   5.577 -0.4735 -0.0036 -0.0057
13084TIP3    H160667   1.757   1.835   5.574 -0.5596 -1.5954 -1.1501
13084TIP3    H260668   1.872   1.767   5.646 -0.1382  1.5633  1.4039
13085TIP3   OH260669   3.120   5.142  11.551  0.3042 -0.0951 -0.0011
13085TIP3    H160670   3.120   5.118  11.644 -2.5917  1.9481  0.6902
13085TIP3    H260671   3.112   5.238  11.552 -1.7663 -0.1619 -2.2965
13086TIP3   OH260672   3.888   0.123  16.976  0.0026  0.1131  0.0309
13086TIP3    H160673   3.884   0.030  16.955  0.4071  0.0506  0.2197
13086TIP3    H260674   3.946   0.128  17.051  0.6776  0.6114 -0.5147
13087TIP3   OH260675   0.885   1.151  11.811 -0.1661  0.5653  0.8449
13087TIP3    H160676   0.907   1.227  11.757 -1.1275  0.5612  0.4349
13087TIP3    H260677   0.921   1.076  11.763  1.2546  0.7786  1.5123
13088TIP3   OH260678   0.066   4.847  16.092  0.3057  0.4518  0.3739
13088TIP3    H160679   0.041   4.892  16.011 -1.1917  0.5301  0.8488
13088TIP3    H260680   0.159   4.828  16.081 -0.3845 -2.0433 -2.6106
13089TIP3   OH260681   0.384   0.932  14.655 -0.2540 -0.2839 -0.2180
13089TIP3    H160682   0.324   0.918  14.582 -1.3456 -0.4006  0.6699
13089TIP3    H260683   0.328   0.931  14.733  1.0668 -1.8906  0.7836
13090TIP3   OH260684   3.850   3.339  16.922  0.1935  0.4974  0.3285
13090TIP3    H160685   3.810   3.424  16.904  1.2667  0.6187 -1.8138
13090TIP3    H260686   3.779   3.286  16.959 -1.1477  1.5771 -0.5928
13091TIP3   OH260687   3.010   4.727   2.739  0.0308  0.4357  0.2265
13091TIP3    H160688   3.106   4.733   2.742  0.3936  0.7583 -4.4482
13091TIP3    H260689   2.993   4.635   2.719 -0.2745  0.9788 -2.3288
13092TIP3   OH260690   3.040   3.714  16.198  0.1930  0.2106 -0.1122
13092TIP3    H160691   2.982   3.681  16.266 -0.0503  2.0887  0.6579
13092TIP3    H260692   3.012   3.668  16.119 -0.3928 -1.0562  0.7991
13093TIP3   OH260693   5.263   1.603   4.955  0.0132 -0.0234  0.0439
13093TIP3    H160694   5.356   1.623   4.944 -0.1027 -0.6831 -2.5677
13093TIP3    H260695   5.261   1.539   5.026  1.5623 -0.1670 -0.0112
13094TIP3   OH260696   4.165   2.190   0.570 -0.0285  0.9656 -0.5699
13094TIP3    H160697   4.255   2.168   0.548  0.0406  1.0778 -0.3994
13094TIP3    H260698   4.116   2.109   0.555  0.1332  0.8507 -0.4766
13095TIP3   OH260699   4.073   3.154   5.284 -0.4816  0.2037  0.0733
13095TIP3    H160700   4.102   3.156   5.193 -0.1718 -1.1519  0.1240
13095TIP3    H260701   4.138   3.208   5.330 -0.5806  0.8114 -0.4765
13096TIP3   OH260702   4.278   5.042  13.129  0.3768 -0.7535  0.8556
13096TIP3    H160703   4.273   5.066  13.221  2.9480 -0.2148  0.9503
13096TIP3    H260704   4.361   4.994  13.121  0.2351 -0.7657 -1.1617
13097TIP3   OH260705   1.364   2.254   2.937  0.1214  0.2238  0.0117
13097TIP3    H160706   1.333   2.176   2.984 -1.1685  1.0050  0.4898
13097TIP3    H260707   1.412   2.304   3.003 -0.4946  0.6464  0.1405
13098TIP3   OH260708   2.419   6.419  16.305  0.5974 -0.0291  0.0884
13098TIP3    H160709   2.504   6.391  16.339  0.2264 -0.0165  1.0240
13098TIP3    H260710   2.356   6.356  16.338  0.5706 -1.9058 -3.1171
13099TIP3   OH260711   0.495   0.919   5.044 -0.1545 -0.3985  0.0759
13099TIP3    H160712   0.494   1.009   5.076  0.6632 -0.8484  1.4520
13099TIP3    H260713   0.402   0.896   5.034 -0.5441 -0.5091  3.0932
13100TIP3   OH260714   5.947   2.921  15.572  0.2290  0.5512 -0.1096
13100TIP3    H160715   5.937   3.012  15.597  0.9937  0.7472 -0.4994
13100TIP3    H260716   6.010   2.922  15.500  2.8071 -0.5707  1.9842
13101TIP3   OH260717   6.555   3.143  12.088  0.2418  0.3168 -0.3289
13101TIP3    H160718   6.492   3.125  12.018  0.2704 -0.2269 -0.2122
13101TIP3    H260719   6.635   3.099  12.060  0.2132 -0.0132  0.1162
13102TIP3   OH260720   5.519   2.091   3.843  0.7731 -0.0404 -0.0291
13102TIP3    H160721   5.589   2.149   3.873  1.1688 -0.9289  0.8391
13102TIP3    H260722   5.504   2.117   3.752  0.4367  1.8767  0.5293
13103TIP3   OH260723   0.003   4.700   4.883  0.2622  0.1971 -0.6923
13103TIP3    H160724  -0.017   4.620   4.932 -0.0472  0.0006 -1.1291
13103TIP3    H260725  -0.004   4.770   4.948 -1.7652  0.1244 -0.7627
13104TIP3   OH260726   3.924   2.157   4.280  0.2927  0.0932  0.0606
13104TIP3    H160727   4.003   2.171   4.332 -0.0632  0.0815  0.6182
13104TIP3    H260728   3.910   2.062   4.281  0.7425  0.0101 -0.7576
13105TIP3   OH260729   5.468   1.326   2.057 -0.1390  0.0171  0.0953
13105TIP3    H160730   5.413   1.252   2.029 -0.1148 -0.1605  0.5174
13105TIP3    H260731   5.549   1.314   2.007 -0.0374 -0.3884  0.3533
13106TIP3   OH260732   2.243   1.347  14.006 -0.8308 -0.1369 -0.0027
13106TIP3    H160733   2.233   1.251  14.006 -2.3545 -0.0051  0.4446
13106TIP3    H260734   2.164   1.379  13.962 -0.6847  0.9458  0.5033
13107TIP3   OH260735   6.100   3.692  17.136 -0.2913  0.2685 -0.6927
13107TIP3    H160736   6.071   3.768  17.086  0.6651  0.9341 -0.2745
13107TIP3    H260737   6.137   3.729  17.217 -0.8595 -0.7119  0.0383
13108TIP3   OH260738   2.990   0.109   1.182  0.7540 -0.2386  0.1076
13108TIP3    H160739   3.059   0.044   1.195  0.6997 -0.4609 -0.6935
13108TIP3    H260740   2.912   0.058   1.161 -0.0860 -0.1001  2.5094
13109TIP3   OH260741   4.421   5.497   6.044  0.3645  0.5876  0.9711
13109TIP3    H160742   4.355   5.441   6.004 -1.1196  2.1920  1.0732
13109TIP3    H260743   4.502   5.477   5.996 -0.8199  0.6549 -1.1607
13110TIP3   OH260744   1.140   4.669  16.100  0.1474  0.0061  0.1906
13110TIP3    H160745   1.119   4.651  16.008 -0.3756  1.7718 -0.0707
13110TIP3    H260746   1.122   4.587  16.145  0.7840 -1.0242 -1.3289
13111TIP3   OH260747   6.039   0.926   2.066 -0.4873  0.0836  0.1695
13111TIP3    H160748   6.097   0.991   2.106 -0.0966  0.1704 -0.5367
13111TIP3    H260749   6.091   0.885   1.997 -1.1433 -0.0857 -0.2337
13112TIP3   OH260750   0.060   6.181   0.145 -0.4809 -0.1712 -0.2211
13112TIP3    H160751   0.024   6.211   0.229  1.0826  0.0096  0.4196
13112TIP3    H260752   0.098   6.095   0.165  1.0306  0.4265 -0.4111
13113TIP3   OH260753   6.684   1.841   5.526  0.2158  0.4974  0.0436
13113TIP3    H160754   6.672   1.828   5.620 -0.7724  2.4574  0.2314
13113TIP3    H260755   6.774   1.874   5.518  0.7320 -0.8281  0.1392
13114TIP3   OH260756   3.383   2.579   6.301  0.6174  0.0917  0.4122
13114TIP3    H160757   3.392   2.562   6.395 -0.6597 -1.0682  0.3570
13114TIP3    H260758   3.312   2.643   6.294  0.2443 -0.3414  0.2033
13115TIP3   OH260759   6.337   1.347  12.374  1.4468 -0.2033 -0.2541
13115TIP3    H160760   6.335   1.384  12.462  0.5187  1.1440 -0.8045
13115TIP3    H260761   6.252   1.306  12.363  1.6314 -0.5302 -0.4583
13116TIP3   OH260762   3.885   5.094   4.358 -0.1448 -0.2353  0.2850
13116TIP3    H160763   3.972   5.059   4.379 -1.3406 -2.4418  1.9431
13116TIP3    H260764   3.847   5.117   4.443 -1.9587 -1.3392 -0.1712
13117TIP3   OH260765   1.266   1.297   3.255  0.2480  0.0885  0.0066
13117TIP3    H160766   1.260   1.241   3.333 -0.1023  0.0938 -0.0150
13117TIP3    H260767   1.359   1.319   3.249  0.0368  1.7522  1.6159
13118TIP3   OH260768   2.019   0.836  15.306 -0.2048  0.3936 -0.3502
13118TIP3    H160769   1.994   0.846  15.398  0.7799  3.3119 -0.3142
13118TIP3    H260770   2.112   0.855  15.304 -0.0380 -0.4394 -1.8748
13119TIP3   OH260771   3.823   0.312   2.007 -0.0468  0.3348  0.0769
13119TIP3    H160772   3.854   0.373   1.940  0.1128  2.2372  1.7905
13119TIP3    H260773   3.732   0.294   1.983  0.2341  0.3652 -1.0606
13120TIP3   OH260774   5.589   2.316   3.407 -0.4832 -0.0325  0.1200
13120TIP3    H160775   5.548   2.231   3.394 -1.1482  0.2304  0.4581
13120TIP3    H260776   5.517   2.379   3.400 -0.2821  0.3807  1.5033
13121TIP3   OH260777   3.071   5.509  12.013  0.0624 -0.4010 -0.0388
13121TIP3    H160778   3.085   5.564  11.936  1.3600 -1.4086 -0.5675
13121TIP3    H260779   3.155   5.510  12.058  0.1070 -1.9175 -0.0544
13122TIP3   OH260780   1.901   3.570  16.120  0.4266  0.4424  0.3671
13122TIP3    H160781   1.862   3.506  16.179  0.6919  0.0365  0.1106
13122TIP3    H260782   1.990   3.581  16.152  0.6666 -0.0096 -0.1380
13123TIP3   OH260783   4.579   4.240   0.674  0.0907 -0.2724 -0.0189
13123TIP3    H160784   4.557   4.156   0.713 -0.2774  0.3051  1.0692
13123TIP3    H260785   4.642   4.220   0.605  0.2964 -1.3864  0.4822
13124TIP3   OH260786   4.795   2.501   4.192 -0.1389  0.5003  0.5970
13124TIP3    H160787   4.774   2.541   4.276 -0.1143  0.0750  0.8100
13124TIP3    H260788   4.891   2.496   4.191 -0.1493  0.2975  0.6410
13125TIP3   OH260789   2.375   5.609  13.936 -0.4244  0.3051  0.2828
13125TIP3    H160790   2.403   5.517  13.940 -2.2454 -0.2455  2.0795
13125TIP3    H260791   2.442   5.657  13.984 -0.5587 -0.4358  1.2460
13126TIP3   OH260792   6.749   3.969   1.041 -0.1815 -1.1149  0.3226
13126TIP3    H160793   6.672   3.913   1.029 -0.2080 -1.0433  0.1366
13126TIP3    H260794   6.730   4.019   1.120 -0.6767 -0.5522 -0.1328
13127TIP3   OH260795   3.017   2.728   2.219  0.0660  0.5600 -0.3609
13127TIP3    H160796   3.064   2.764   2.294 -0.6710  0.9928 -0.0966
13127TIP3    H260797   2.939   2.688   2.257  1.2959 -2.2028 -0.5276
13128TIP3   OH260798   2.023   2.636  14.090  0.2816  0.6027  0.9331
13128TIP3    H160799   1.942   2.679  14.118 -1.0857 -0.5476 -0.9742
13128TIP3    H260800   2.045   2.679  14.008  0.4484 -0.4228  0.4242
13129TIP3   OH260801   4.889   3.144  10.497 -0.1966 -0.2166  0.1101
13129TIP3    H160802   4.968   3.101  10.465 -0.6947 -2.2821  1.4097
13129TIP3    H260803   4.920   3.207  10.562  0.4224 -1.8038  1.4631
13130TIP3   OH260804   4.476   3.779  11.087  0.0850 -0.1380 -0.3006
13130TIP3    H160805   4.514   3.693  11.106  0.9144 -0.1062 -1.6899
13130TIP3    H260806   4.449   3.773  10.996  1.1113  1.4105 -0.7362
13131TIP3   OH260807   5.844   3.493  12.739 -0.3895 -0.1099 -0.2123
13131TIP3    H160808   5.832   3.546  12.817 -0.2005 -0.6592  0.1982
13131TIP3    H260809   5.853   3.556  12.668 -2.3439  0.3697 -0.0712
13132TIP3   OH260810   6.649   2.526  11.536 -0.1839 -0.5152  0.0634
13132TIP3    H160811   6.615   2.545  11.448 -0.0095 -0.8146 -0.0669
13132TIP3    H260812   6.571   2.531  11.593  0.0496  2.1573  0.2977
13133TIP3   OH260813   5.736   4.035   2.403 -0.1867 -0.5570 -0.0024
13133TIP3    H160814   5.817   4.058   2.358 -0.8911 -0.6267 -1.3635
13133TIP3    H260815   5.667   4.053   2.339 -1.1548 -1.5702  0.7181
13134TIP3   OH260816   2.397   2.483  14.122 -0.2157  0.2342  0.1970
13134TIP3    H160817   2.488   2.513  14.125 -0.2026  0.3153 -0.7875
13134TIP3    H260818   2.351   2.542  14.182  0.6416 -0.8593  2.0345
13135TIP3   OH260819   6.767   2.095   1.128 -0.3635  0.0413  0.2555
13135TIP3    H160820   6.776   2.175   1.076  0.8444 -0.2472  0.0030
13135TIP3    H260821   6.855   2.058   1.132 -0.8463 -1.1288  0.6190
13136TIP3   OH260822   2.144   3.722  17.126  0.1132  0.1421 -0.2222
13136TIP3    H160823   2.143   3.630  17.098 -0.4036  0.8546 -2.7971
13136TIP3    H260824   2.059   3.735  17.168  0.8226 -0.9110  1.6774
13137TIP3   OH260825   4.631   6.170  17.240 -0.9347  0.6013 -0.1477
13137TIP3    H160826   4.659   6.239  17.301  0.1225 -0.2637  0.3671
13137TIP3    H260827   4.547   6.202  17.206 -0.4448  2.1783  0.0161
13138TIP3   OH260828   0.143   2.185   6.323  0.1777 -0.1065  0.1280
13138TIP3    H160829   0.238   2.186   6.337  0.3094 -0.6453 -0.6576
13138TIP3    H260830   0.106   2.214   6.406  1.0010 -1.0227  0.8331
13139TIP3   OH260831   4.367   0.576  12.641  0.4701 -0.5064  0.1887
13139TIP3    H160832   4.424   0.502  12.662  0.8806 -0.8610 -1.9027
13139TIP3    H260833   4.425   0.652  12.641  0.8401 -0.7586 -1.2098
13140TIP3   OH260834   5.771   1.285   5.000 -0.0629 -0.1115  0.7000
13140TIP3    H160835   5.848   1.231   4.983  0.2579  0.4523  0.3181
13140TIP3    H260836   5.806   1.374   5.009 -0.6057  0.0659  1.0888
13141TIP3   OH260837   2.404   4.173  15.276  0.0935  0.2039  0.6791
13141TIP3    H160838   2.310   4.161  15.286 -0.0597  0.7459  0.0353
13141TIP3    H260839   2.420   4.262  15.308  0.3808  0.1128  0.7878
13142TIP3   OH260840   5.162   2.511  15.960 -0.2827  0.3604  0.3536
13142TIP3    H160841   5.252   2.510  15.992 -0.4321 -1.6060  0.8540
13142TIP3    H260842   5.110   2.486  16.036 -1.1585  0.6307 -0.1470
13143TIP3   OH260843   4.182   1.162   0.377  0.2715 -0.2134 -0.6815
13143TIP3    H160844   4.249   1.134   0.439 -1.9633 -2.0241  1.0757
13143TIP3    H260845   4.231   1.212   0.310  3.2809 -1.2611  0.5569
13144TIP3   OH260846   3.939   1.926  11.471  0.0824  0.6424 -0.5827
13144TIP3    H160847   3.977   1.865  11.533  0.7485 -0.4754 -2.0336
13144TIP3    H260848   4.013   1.975  11.437  0.0223 -0.2041 -2.0015
13145TIP3   OH260849   1.819   0.493  15.805 -0.2639  0.0626  0.6528
13145TIP3    H160850   1.813   0.435  15.728  1.5703 -1.3647  1.5182
13145TIP3    H260851   1.760   0.566  15.784  0.6453  0.0575 -2.3951
13146TIP3   OH260852   3.310   5.449   3.264 -0.3248 -0.2662  0.0808
13146TIP3    H160853   3.239   5.386   3.250  1.3930 -2.1650 -0.6029
13146TIP3    H260854   3.320   5.452   3.359 -0.9246 -0.4576  0.1553
13147TIP3   OH260855   0.172   0.211   5.147 -0.3072 -0.9494 -0.5319
13147TIP3    H160856   0.101   0.187   5.088 -2.5699 -3.3257  2.8227
13147TIP3    H260857   0.143   0.293   5.188 -1.4592 -2.0944  1.0899
13148TIP3   OH260858   3.236   4.199   5.716  0.1944  0.5328  0.4514
13148TIP3    H160859   3.200   4.111   5.729 -0.2200  0.7505  0.7808
13148TIP3    H260860   3.202   4.227   5.631  0.9645  0.0628 -0.0172
13149TIP3   OH260861   3.553   3.687  16.775 -0.5680  0.4735  0.2011
13149TIP3    H160862   3.625   3.663  16.716  0.3029  0.0934  1.3649
13149TIP3    H260863   3.597   3.724  16.852 -1.6208  0.2604  0.9285
13150TIP3   OH260864   5.525   1.216   3.927  0.3758  0.9856  0.1567
13150TIP3    H160865   5.468   1.202   3.852  0.6595 -2.2342  0.4090
13150TIP3    H260866   5.466   1.241   3.998 -0.1557  1.8485 -0.5722
13151TIP3   OH260867   0.378   2.086   3.415  0.0728  0.7322 -0.2777
13151TIP3    H160868   0.361   2.180   3.421  1.2775  0.8948  1.1024
13151TIP3    H260869   0.432   2.067   3.491  1.3153 -0.7571 -1.4859
13152TIP3   OH260870   0.526   1.542   0.970  0.1574  0.4715 -0.2768
13152TIP3    H160871   0.440   1.541   0.927  0.5958  1.3798 -1.2362
13152TIP3    H260872   0.562   1.455   0.952 -0.7511 -0.1064  0.5786
13153TIP3   OH260873   2.484   4.810  12.072  0.2425 -0.3850  0.9143
13153TIP3    H160874   2.393   4.825  12.049  0.8977  2.9994 -0.0399
13153TIP3    H260875   2.526   4.784  11.990  0.6529  1.2923  0.5482
13154TIP3   OH260876   6.602   6.074   1.414  0.5073 -0.5591 -0.3185
13154TIP3    H160877   6.540   6.147   1.402  0.9261  0.2886  2.0950
13154TIP3    H260878   6.546   6.000   1.436  0.2579  0.0857  1.3745
13155TIP3   OH260879   0.753   6.719   4.492 -0.4891  0.7156  0.4209
13155TIP3    H160880   0.809   6.671   4.431  0.3440  2.3134 -0.1322
13155TIP3    H260881   0.699   6.652   4.533 -0.2467 -0.5337 -1.2151
13156TIP3   OH260882   6.064   5.963   0.365 -0.0575 -0.1333  0.4482
13156TIP3    H160883   6.040   5.999   0.451 -1.4482  0.9862 -0.3781
13156TIP3    H260884   6.092   5.874   0.384  1.9111  0.7918  2.3672
13157TIP3   OH260885   0.476   2.305  12.940  0.2688  0.0570 -0.0925
13157TIP3    H160886   0.383   2.325  12.950  0.7637  1.2341  3.9818
13157TIP3    H260887   0.502   2.347  12.858 -2.5644  0.4879 -0.8527
13158TIP3   OH260888   1.526   2.796   2.518  0.4392  0.3336  0.8315
13158TIP3    H160889   1.511   2.782   2.611  0.6011 -1.4957  0.6184
13158TIP3    H260890   1.447   2.764   2.475  1.4977 -1.6097  0.2047
13159TIP3   OH260891   1.932   5.312  17.144 -0.2373  0.1918 -0.1346
13159TIP3    H160892   1.977   5.258  17.209 -1.1649 -1.0902 -0.5188
13159TIP3    H260893   1.909   5.392  17.192  1.9208  0.6844  0.2123
13160TIP3   OH260894   4.403   0.225  14.852  0.3215  0.1423 -0.2686
13160TIP3    H160895   4.427   0.300  14.907  0.0088 -0.5235  0.8013
13160TIP3    H260896   4.486   0.183  14.831  0.3610 -0.3936  0.8738
13161TIP3   OH260897   4.593   2.513   3.234 -0.1123  0.0210 -0.5696
13161TIP3    H160898   4.568   2.446   3.298 -1.9034  2.4901  1.5333
13161TIP3    H260899   4.685   2.532   3.254  0.1270 -1.0681 -0.5552
13162TIP3   OH260900   1.705   0.136  12.169 -0.0259  0.3606 -0.1089
13162TIP3    H160901   1.618   0.104  12.146  1.0796 -0.8596 -3.1096
13162TIP3    H260902   1.711   0.222  12.126  0.9787 -0.5546 -1.8890
13163TIP3   OH260903   6.656   2.677  17.240  0.0060  0.2093  0.4373
13163TIP3    H160904   6.687   2.767  17.237 -0.0586  0.2316  0.4262
13163TIP3    H260905   6.695   2.635  17.163 -1.5621  0.7478 -0.7089
13164TIP3   OH260906   6.406   0.323   1.620 -0.5465 -0.0587  0.3434
13164TIP3    H160907   6.368   0.254   1.674 -0.2161 -1.4997 -1.1623
13164TIP3    H260908   6.332   0.381   1.599 -1.6162 -1.8142 -1.0543
13165TIP3   OH260909   4.454   3.808   1.852  0.0103 -0.1900  0.5678
13165TIP3    H160910   4.377   3.754   1.871  0.7805 -1.0816  1.2645
13165TIP3    H260911   4.528   3.748   1.865  0.9440  1.2362  2.1239
13166TIP3   OH260912   0.107   3.926   4.049  0.0883  1.2415 -0.1075
13166TIP3    H160913   0.102   4.018   4.074  0.2219  0.8822  1.3909
13166TIP3    H260914   0.027   3.887   4.085  0.7338  0.5132  0.6044
13167TIP3   OH260915   2.027   4.871  15.424 -0.4297 -0.4834  0.3516
13167TIP3    H160916   1.935   4.894  15.436  0.1900  2.3248  0.6102
13167TIP3    H260917   2.054   4.836  15.509 -0.3486  2.6677  1.7710
13168TIP3   OH260918   4.366   6.088   0.828 -0.0799 -0.1379 -0.4770
13168TIP3    H160919   4.313   6.136   0.891 -0.7070 -1.2221 -0.1592
13168TIP3    H260920   4.304   6.062   0.760  0.8340  2.4097 -2.4720
13169TIP3   OH260921   6.071   5.566   6.168 -0.1604  0.1597  0.2246
13169TIP3    H160922   6.092   5.658   6.154 -0.1613 -0.0037 -0.9864
13169TIP3    H260923   5.985   5.567   6.210  0.2304  0.7191  1.0429
13170TIP3   OH260924   3.476   4.807  12.948 -1.0327  0.2392 -0.2844
13170TIP3    H160925   3.439   4.727  12.912 -1.2679  0.0360  0.3951
13170TIP3    H260926   3.521   4.779  13.028  0.5154  0.5003 -1.0401
13171TIP3   OH260927   2.393   6.583  14.211  0.0182 -0.0152 -0.1021
13171TIP3    H160928   2.351   6.657  14.255 -0.5486  0.2855 -1.1118
13171TIP3    H260929   2.463   6.623  14.160  1.4036 -0.4855  1.3595
13172TIP3   OH260930   1.839   2.680  11.266 -0.0152  0.0069 -0.4216
13172TIP3    H160931   1.789   2.647  11.192 -0.1229 -1.3329  0.2133
13172TIP3    H260932   1.840   2.775  11.254  0.3113 -0.1966 -2.3288
13173TIP3   OH260933   4.299   0.644   2.772 -0.1932  0.0333  0.5142
13173TIP3    H160934   4.249   0.566   2.748 -0.1383  0.6312 -1.8198
13173TIP3    H260935   4.390   0.613   2.778  0.1886  0.2045 -2.6540
13174TIP3   OH260936   4.926   5.948  13.134  0.0542  0.0766 -0.1240
13174TIP3    H160937   4.832   5.965  13.123 -0.0884  0.1857  1.0481
13174TIP3    H260938   4.933   5.916  13.224  1.3422  1.6126  0.3544
13175TIP3   OH260939   6.098   3.603   2.967  0.2841  0.1278  0.0141
13175TIP3    H160940   6.098   3.508   2.957 -0.0521  0.1936 -0.6445
13175TIP3    H260941   6.024   3.633   2.914  0.3122  0.7472  0.3170
13176TIP3   OH260942   5.549   0.441  12.793 -0.1595 -0.1190  0.2317
13176TIP3    H160943   5.475   0.473  12.742 -2.3815 -1.1645  2.5340
13176TIP3    H260944   5.520   0.355  12.825  1.2967  0.1778  2.6221
13177TIP3   OH260945   2.703   0.198   2.277  0.6025  0.2261  0.2338
13177TIP3    H160946   2.698   0.294   2.276 -1.0435  0.1586 -0.0316
13177TIP3    H260947   2.662   0.173   2.359  1.5254 -0.2587  0.5656
13178TIP3   OH260948   5.017   6.091  12.481 -0.0482 -0.3149  0.0061
13178TIP3    H160949   4.955   6.057  12.546  0.5276 -1.4469 -0.0004
13178TIP3    H260950   5.015   6.186  12.493 -1.4117 -0.3596  0.3308
13179TIP3   OH260951   3.889   6.626  16.913 -0.1618 -0.6959  0.9269
13179TIP3    H160952   3.984   6.629  16.923  0.4033  0.3815 -3.1654
13179TIP3    H260953   3.870   6.533  16.898  0.1895 -0.9451  1.9780
13180TIP3   OH260954   2.616   1.625  13.307 -0.1995 -0.3872 -0.3155
13180TIP3    H160955   2.646   1.613  13.217 -0.2902 -2.0355 -0.1625
13180TIP3    H260956   2.568   1.708  13.306  1.8061  0.8595 -1.2209
13181TIP3   OH260957   3.498   0.035   2.857 -0.2079  0.3791 -0.2628
13181TIP3    H160958   3.567   0.012   2.795 -0.0425  1.3969 -0.4792
13181TIP3    H260959   3.545   0.078   2.929 -0.2008 -2.1560  1.3553
13182TIP3   OH260960   6.653   4.836  11.831  0.2403 -0.0052  0.3162
13182TIP3    H160961   6.560   4.857  11.836  0.5538  1.9852 -0.9082
13182TIP3    H260962   6.672   4.834  11.737  1.6604  0.9297  0.5450
13183TIP3   OH260963   5.878   0.085   2.481  0.2027 -0.3397 -0.0726
13183TIP3    H160964   5.861   0.142   2.406 -0.9845 -0.8057 -0.1799
13183TIP3    H260965   5.970   0.060   2.471  0.3885  0.5442 -0.7122
13184TIP3   OH260966   4.767   2.976   4.930  0.2556  0.5528  0.3207
13184TIP3    H160967   4.799   2.937   4.848  0.1285 -0.2511  0.6386
13184TIP3    H260968   4.700   2.914   4.961 -0.3072  1.2833  0.5988
13185TIP3   OH260969   4.320   5.711   0.099  0.6380 -0.0744 -0.6002
13185TIP3    H160970   4.393   5.774   0.096  0.5641  0.0610  0.1936
13185TIP3    H260971   4.249   5.754   0.051  0.7243  0.2668 -0.4260
13186TIP3   OH260972   0.155   5.335   5.040 -0.0861  0.3735 -0.0513
13186TIP3    H160973   0.080   5.325   5.098  0.4681  1.2618  0.8441
13186TIP3    H260974   0.134   5.411   4.986  1.0645  2.0547  1.7175
13187TIP3   OH260975   3.389   6.005   3.420 -0.0407  0.2367 -0.1015
13187TIP3    H160976   3.459   5.939   3.413  0.1499  0.3409  0.6947
13187TIP3    H260977   3.323   5.964   3.475  0.7826  1.2573  1.7554
13188TIP3   OH260978   0.218   1.916   2.032  0.5136  0.1116 -0.1443
13188TIP3    H160979   0.259   2.001   2.048 -1.0679  0.8731  0.0129
13188TIP3    H260980   0.160   1.931   1.957 -0.9511 -0.4169  0.8520
13189TIP3   OH260981   6.775   1.633  13.174  0.2091 -0.2595 -0.3690
13189TIP3    H160982   6.853   1.578  13.178 -0.3673 -1.0295  0.5442
13189TIP3    H260983   6.724   1.597  13.102 -0.0736 -0.7992  0.0984
13190TIP3   OH260984   5.566   6.758  14.697  0.0612  0.0302 -0.1568
13190TIP3    H160985   5.479   6.795  14.716 -0.4117 -0.3024 -1.5706
13190TIP3    H260986   5.548   6.684  14.639  1.3600  0.6203 -1.3568
13191TIP3   OH260987   0.983   5.575   4.852 -0.1792 -0.6576 -0.4963
13191TIP3    H160988   0.901   5.594   4.807  0.1785  0.4293 -0.7030
13191TIP3    H260989   1.026   5.660   4.862  0.5907 -1.1186  0.2583
13192TIP3   OH260990   1.995   0.052  16.770  0.2387 -0.8735 -0.3622
13192TIP3    H160991   1.901   0.063  16.751  0.3664 -0.7233 -0.9275
13192TIP3    H260992   2.030   0.010  16.692  0.8673  0.1694 -0.6536
13193TIP3   OH260993   1.725   2.863  16.537 -0.2985  0.2995 -0.0446
13193TIP3    H160994   1.778   2.926  16.489  1.0667 -0.4423  0.4189
13193TIP3    H260995   1.741   2.883  16.629 -2.3301  1.2514  0.1531
13194TIP3   OH260996   1.096   4.242  12.358  0.5987 -0.0709  0.3317
13194TIP3    H160997   1.029   4.181  12.326  0.9841 -1.1870  1.5702
13194TIP3    H260998   1.049   4.301  12.417  0.1315  1.2006 -1.2262
13195TIP3   OH260999   3.777   2.072  16.535  0.0354 -0.6053 -0.1095
13195TIP3    H161000   3.821   2.154  16.557  0.2483 -0.9674  0.8558
13195TIP3    H261001   3.702   2.068  16.594  0.5906 -1.5707  0.5702
13196TIP3   OH261002   0.582   4.461   5.967 -0.1798 -0.2503  0.3789
13196TIP3    H161003   0.676   4.470   5.952 -0.2426  1.2042  0.7373
13196TIP3    H261004   0.567   4.498   6.054 -1.6165  3.5053 -1.2323
13197TIP3   OH261005   3.110   1.724  14.197  0.9479  0.0093  0.7049
13197TIP3    H161006   3.122   1.720  14.291  1.8272  1.2828  0.6629
13197TIP3    H261007   3.073   1.638  14.174  0.3819 -0.1874  2.2329
13198TIP3   OH261008   2.842   1.401   1.924  0.7521 -0.2505 -0.0229
13198TIP3    H161009   2.902   1.453   1.978  1.4790 -0.3832 -0.6746
13198TIP3    H261010   2.900   1.349   1.868  0.0516 -1.8652  0.6868
13199TIP3   OH261011   2.805   5.228  14.479  0.3477  0.2603  0.1844
13199TIP3    H161012   2.887   5.274  14.460  0.1820  1.0681  1.3266
13199TIP3    H261013   2.738   5.295  14.473  0.0501  0.0920  1.4734
13200TIP3   OH261014   0.211   2.294  12.903  0.0447  0.1128 -0.1010
13200TIP3    H161015   0.148   2.230  12.870  0.2392  0.6878 -1.6919
13200TIP3    H261016   0.163   2.376  12.907  0.0988  0.1069  0.8498
13201TIP3   OH261017   0.633   1.176   4.120  0.4223 -0.4893  0.1320
13201TIP3    H161018   0.654   1.082   4.117  1.9777 -0.1917  1.1067
13201TIP3    H261019   0.632   1.198   4.213 -0.1263  0.4452 -0.0801
13202TIP3   OH261020   3.600   4.054   6.596 -0.1939  0.0864  0.0603
13202TIP3    H161021   3.602   4.137   6.643  1.0612  0.2316 -0.2354
13202TIP3    H261022   3.616   3.987   6.663  1.8486  0.3082 -0.1567
13203TIP3   OH261023   4.495   5.827   0.884  0.2496 -0.2500 -0.3498
13203TIP3    H161024   4.477   5.791   0.971  0.4986 -0.2729 -0.3076
13203TIP3    H261025   4.454   5.914   0.886  1.7302  0.4762  0.4132
13204TIP3   OH261026   3.307   1.184  10.557 -0.0764  0.3736  0.3330
13204TIP3    H161027   3.308   1.270  10.598 -2.5470 -1.0857  3.9930
13204TIP3    H261028   3.377   1.136  10.602  0.6520  0.1504 -1.0020
13205TIP3   OH261029   2.804   3.842  13.668 -0.4417 -0.7232 -0.0695
13205TIP3    H161030   2.749   3.764  13.684 -1.2498 -0.6925 -2.3892
13205TIP3    H261031   2.755   3.893  13.603  0.9779  0.7973 -0.0070
13206TIP3   OH261032   1.066   5.823   4.928 -0.3322 -0.5071  0.4819
13206TIP3    H161033   1.096   5.826   5.019 -0.7463 -0.4055  0.6170
13206TIP3    H261034   1.131   5.875   4.880 -0.8594  0.6376  0.9476
13207TIP3   OH261035   6.410   1.732  12.599 -0.2771  0.2808 -0.1618
13207TIP3    H161036   6.374   1.808  12.645 -1.1082  0.0701 -0.4502
13207TIP3    H261037   6.367   1.657  12.639  1.4220 -0.1655  0.9639
13208TIP3   OH261038   3.528   1.765  16.261 -0.0818 -0.4504 -0.2691
13208TIP3    H161039   3.598   1.826  16.281  1.0073 -1.5758 -0.5010
13208TIP3    H261040   3.448   1.817  16.266  0.8551  1.1302 -1.1192
13209TIP3   OH261041   6.738   0.424  11.321 -0.0366  0.6583 -1.0536
13209TIP3    H161042   6.713   0.415  11.229 -0.5881  0.8520 -0.9210
13209TIP3    H261043   6.768   0.515  11.330 -0.8686  0.9126 -0.8272
13210TIP3   OH261044   3.364   3.135   6.055  0.2712  0.2964  0.0592
13210TIP3    H161045   3.367   3.066   6.122  1.6993  0.4931  0.2223
13210TIP3    H261046   3.274   3.168   6.059  0.0508 -0.3811  1.1787
13211TIP3   OH261047   5.642   0.978  16.776  0.3051  0.2825  0.6423
13211TIP3    H161048   5.578   1.036  16.819 -1.7082 -1.4465  0.1636
13211TIP3    H261049   5.620   0.891  16.808  2.2909 -0.4237  0.2037
13212TIP3   OH261050   5.256   0.010  15.364 -0.0492 -0.0021  0.0651
13212TIP3    H161051   5.211   0.070  15.304  0.6584  0.8422  0.3451
13212TIP3    H261052   5.340  -0.007  15.322  1.5089  2.5283  1.8084
13213TIP3   OH261053   2.465   5.249   2.716 -0.2640  0.1686 -0.7990
13213TIP3    H161054   2.538   5.222   2.770 -0.7815 -0.8154 -0.5687
13213TIP3    H261055   2.467   5.190   2.640 -0.3552  0.6455 -1.1824
13214TIP3   OH261056   2.772   1.054   3.161  0.0399  0.3623  0.5070
13214TIP3    H161057   2.801   1.143   3.143  0.7782  0.0309 -0.0070
13214TIP3    H261058   2.692   1.064   3.212  1.4009  1.3232  2.5855
13215TIP3   OH261059   4.773   1.317  15.481 -0.0209 -0.0642  0.2497
13215TIP3    H161060   4.724   1.374  15.422 -0.7135 -1.1491 -0.2472
13215TIP3    H261061   4.861   1.355  15.484 -0.6814  1.5344  0.6330
13216TIP3   OH261062   5.298   5.672   0.949  0.4710 -0.2923 -0.5131
13216TIP3    H161063   5.228   5.706   0.893  2.2949 -0.7935 -3.2634
13216TIP3    H261064   5.289   5.577   0.943  1.0273 -0.3551 -0.4275
13217TIP3   OH261065   5.749   3.114  13.875 -0.0251  0.0091  0.5820
13217TIP3    H161066   5.809   3.053  13.918  1.0242  1.4267  1.1915
13217TIP3    H261067   5.759   3.196  13.923 -0.6035  0.9836 -0.8874
13218TIP3   OH261068   6.196   4.388   1.362 -0.6119  0.0294 -0.0482
13218TIP3    H161069   6.175   4.449   1.291 -0.9851 -0.2024 -0.1388
13218TIP3    H261070   6.139   4.313   1.346  1.1040 -1.1351 -0.9959
13219TIP3   OH261071   1.162   4.688  13.677 -0.2393  0.8083 -0.3310
13219TIP3    H161072   1.241   4.734  13.705 -0.5797  0.1732  1.8516
13219TIP3    H261073   1.104   4.757  13.646  0.9315  1.3442 -1.4187
13220TIP3   OH261074   2.614   0.506  16.415 -0.5268 -0.5405  0.0343
13220TIP3    H161075   2.674   0.569  16.454 -0.1233 -0.0476 -1.3090
13220TIP3    H261076   2.659   0.422  16.423  0.2642 -0.2116 -0.7417
13221TIP3   OH261077   6.766   4.049  16.956  0.6666  0.2885  0.0478
13221TIP3    H161078   6.826   4.065  16.884  0.7314  1.8625  0.4014
13221TIP3    H261079   6.769   3.955  16.971 -0.1680 -0.2571 -2.6874
13222TIP3   OH261080   5.566   0.972  14.095 -0.1382 -0.2427 -0.2213
13222TIP3    H161081   5.581   0.975  14.001 -0.0906  0.6066 -0.1877
13222TIP3    H261082   5.587   1.060  14.126 -1.2622 -0.1823  0.4167
13223TIP3   OH261083   0.740   4.256  11.432 -0.1418 -0.4032 -0.1304
13223TIP3    H161084   0.665   4.296  11.477 -0.4089  0.0514 -0.9585
13223TIP3    H261085   0.708   4.171  11.404  1.0698 -2.2992  3.5377
13224TIP3   OH261086   6.338   2.910   4.388  0.0704 -0.0731 -0.2060
13224TIP3    H161087   6.271   2.959   4.437  2.0294 -0.0806  2.7146
13224TIP3    H261088   6.292   2.832   4.357 -2.0597  1.4922 -1.2989
13225TIP3   OH261089   1.673   0.531   2.158  0.3028 -0.4214 -0.0279
13225TIP3    H161090   1.761   0.547   2.125  0.0412  0.1105 -0.4794
13225TIP3    H261091   1.663   0.436   2.156  0.9831 -0.5072  0.3363
13226TIP3   OH261092   1.595   0.973  12.961  0.9295 -0.1633 -0.3690
13226TIP3    H161093   1.631   0.885  12.975  0.8456 -0.1026  0.2569
13226TIP3    H261094   1.621   0.995  12.871  1.0788 -0.7657 -0.4819
13227TIP3   OH261095   2.881   4.963  14.571 -0.3389 -0.4804 -0.0727
13227TIP3    H161096   2.858   5.048  14.532  0.1071 -0.8401 -1.1441
13227TIP3    H261097   2.812   4.948  14.636 -0.6825  0.4905 -0.1907
13228TIP3   OH261098   1.393   5.428  13.638  0.0080  0.1997  0.3101
13228TIP3    H161099   1.304   5.409  13.606 -1.1205  0.9727  2.7741
13228TIP3    H261100   1.387   5.514  13.678  2.2537  0.8679 -0.6257
13229TIP3   OH261101   1.309   6.145   3.846  0.0575  0.2659  0.0192
13229TIP3    H161102   1.330   6.117   3.757 -1.8781 -0.8605 -0.1336
13229TIP3    H261103   1.304   6.064   3.896  0.7721  0.8631  1.1088
13230TIP3   OH261104   3.074   0.020  14.966  0.1177  0.2612 -0.0444
13230TIP3    H161105   3.078  -0.076  14.967 -0.4417  0.2118 -0.8647
13230TIP3    H261106   3.165   0.048  14.972  0.4636 -0.3785 -1.7771
13231TIP3   OH261107   1.742   2.307  14.614  0.9147 -0.4092 -0.6397
13231TIP3    H161108   1.678   2.258  14.563 -0.8338 -1.2391  2.0971
13231TIP3    H261109   1.770   2.246  14.682  1.3806  1.2463  0.7475
13232TIP3   OH261110   6.235   1.424   2.825  0.2795 -0.0967 -0.1752
13232TIP3    H161111   6.206   1.485   2.758 -1.5563 -0.1150  0.5470
13232TIP3    H261112   6.331   1.421   2.815  0.2230  1.3330 -1.5247
13233TIP3   OH261113   6.655   0.789  13.739 -0.3371  0.2584 -0.0034
13233TIP3    H161114   6.563   0.803  13.716 -0.5579  0.1931  0.7988
13233TIP3    H261115   6.659   0.808  13.832  0.7513  1.6169 -0.3037
13234TIP3   OH261116   5.502   0.540   1.278 -0.3260  0.1388  0.3810
13234TIP3    H161117   5.423   0.547   1.331 -0.6812  3.5078 -0.3744
13234TIP3    H261118   5.568   0.589   1.327  0.4781 -0.1494 -0.3836
13235TIP3   OH261119   3.106   5.459   5.273  0.6913  0.3840 -0.2220
13235TIP3    H161120   3.069   5.512   5.202 -0.9472 -1.3114 -0.7112
13235TIP3    H261121   3.159   5.393   5.229 -2.6563 -2.5469 -0.2904
13236TIP3   OH261122   2.960   4.570   4.969 -0.1063  0.6175  0.0043
13236TIP3    H161123   3.020   4.558   4.895 -1.1414  1.7442 -1.0620
13236TIP3    H261124   2.971   4.491   5.021  1.1675  0.1031 -0.9842
13237TIP3   OH261125   2.996   1.596  15.731 -0.2227 -0.1026  0.0326
13237TIP3    H161126   3.040   1.677  15.755 -0.2300  0.1649 -0.8364
13237TIP3    H261127   2.908   1.624  15.704  0.0342 -0.3069 -1.0307
13238TIP3   OH261128   2.727   5.839  10.755 -0.5069 -0.3101 -0.3879
13238TIP3    H161129   2.648   5.801  10.716 -0.5786  0.4436 -1.0078
13238TIP3    H261130   2.785   5.854  10.681 -0.5115  0.8322 -0.1717
13239TIP3   OH261131   4.682   0.725   1.460 -0.0071 -0.0178 -0.1284
13239TIP3    H161132   4.704   0.683   1.377  1.4061 -0.8786  0.6512
13239TIP3    H261133   4.720   0.813   1.453 -0.6051  0.2108 -0.6892
13240TIP3   OH261134   3.800   1.066   4.742 -0.4158 -0.3090  0.3144
13240TIP3    H161135   3.813   1.157   4.714 -0.4334 -0.6479 -0.8375
13240TIP3    H261136   3.831   1.064   4.833  1.6502  0.3464 -0.3261
13241TIP3   OH261137   3.554   5.573   1.802 -0.6951  0.2975  0.0629
13241TIP3    H161138   3.600   5.630   1.740  2.0640 -0.6052  1.1314
13241TIP3    H261139   3.560   5.486   1.763  1.0547 -0.2748  1.4772
13242TIP3   OH261140   4.940   4.640   2.518 -0.1348  0.0995  0.4015
13242TIP3    H161141   4.972   4.696   2.447 -2.6070  2.7689  1.1976
13242TIP3    H261142   4.868   4.590   2.479 -0.3146  0.2258  0.5662
13243TIP3   OH261143   2.711   2.035  14.339 -0.8070  0.4098  0.2078
13243TIP3    H161144   2.727   2.127  14.318  0.2242 -0.0649 -1.1882
13243TIP3    H261145   2.697   1.993  14.255  1.1118 -1.1490  0.5943
13244TIP3   OH261146   0.996   3.934  12.905  0.2156  0.4690 -0.2730
13244TIP3    H161147   0.939   3.876  12.854  0.3973  0.0589 -0.0091
13244TIP3    H261148   1.077   3.939  12.853  1.0567 -1.3306  0.8008
13245TIP3   OH261149   0.978   0.816   5.494 -0.2413  0.2126  0.9448
13245TIP3    H161150   0.950   0.899   5.457 -0.5514 -0.5908 -0.7142
13245TIP3    H261151   1.049   0.838   5.553  2.2211  1.3734 -2.1886
13246TIP3   OH261152   2.491   4.469   4.836 -0.2309  0.4315  0.3248
13246TIP3    H161153   2.403   4.445   4.865  0.5956 -0.1697  2.4941
13246TIP3    H261154   2.502   4.560   4.863 -0.2959  0.6355 -0.3036
13247TIP3   OH261155   5.563   2.366  16.460 -0.0258  0.0048 -0.1349
13247TIP3    H161156   5.566   2.408  16.375  0.9534  0.6288  0.1885
13247TIP3    H261157   5.533   2.434  16.520  1.0707  0.1263  0.3040
13248TIP3   OH261158   4.596   3.021  11.300  0.2853  0.0120  0.0250
13248TIP3    H161159   4.650   2.995  11.375  1.7698  2.4347 -0.0874
13248TIP3    H261160   4.511   3.042  11.338  0.6341 -0.0036  0.8379
13249TIP3   OH261161   4.834   2.467  12.236 -0.1701  0.1279 -0.4863
13249TIP3    H161162   4.747   2.505  12.225  0.3491  1.3281 -0.6678
13249TIP3    H261163   4.893   2.533  12.199  0.7667 -0.9680 -1.0085
13250TIP3   OH261164   5.317   5.448   1.427 -0.0612 -0.4192  0.2927
13250TIP3    H161165   5.311   5.524   1.368 -1.7980 -0.7370  0.0214
13250TIP3    H261166   5.380   5.390   1.384 -0.4039 -0.1144 -0.6519
13251TIP3   OH261167   6.526   2.050  15.454 -0.3304 -0.2608 -0.1614
13251TIP3    H161168   6.596   2.019  15.396  0.4485 -1.1440  1.1942
13251TIP3    H261169   6.568   2.060  15.539 -1.8043 -0.6145  0.6458
13252TIP3   OH261170   4.832   1.763  16.254  0.4909  0.2780 -0.4361
13252TIP3    H161171   4.765   1.831  16.268 -0.0526  0.0633 -1.8756
13252TIP3    H261172   4.906   1.791  16.308 -0.4491  0.9593  0.5429
13253TIP3   OH261173   3.318   5.304  11.358  0.1148  0.6252 -0.2060
13253TIP3    H161174   3.401   5.262  11.335 -1.0061 -1.6279 -0.3432
13253TIP3    H261175   3.299   5.362  11.285  0.3492 -0.7270 -1.3740
13254TIP3   OH261176   1.969   4.554   0.285  0.2372  0.2029  0.4498
13254TIP3    H161177   1.915   4.482   0.316  1.7711 -1.0649  0.2465
13254TIP3    H261178   1.921   4.633   0.313 -2.1682 -0.8168 -0.4965
13255TIP3   OH261179   3.491   4.658  11.709 -0.5931 -0.2690 -0.1735
13255TIP3    H161180   3.505   4.583  11.766 -0.2049 -1.3684 -1.6414
13255TIP3    H261181   3.573   4.706  11.712  0.7140 -2.1624 -2.3206
13256TIP3   OH261182   1.166   6.305   3.278  0.3322  0.2746 -0.1415
13256TIP3    H161183   1.141   6.397   3.281 -0.9953 -0.0232 -1.2113
13256TIP3    H261184   1.139   6.275   3.191  3.9145 -0.2957 -1.2250
13257TIP3   OH261185   0.542   1.769  10.861  0.3819 -0.6330 -0.3315
13257TIP3    H161186   0.519   1.703  10.796 -0.0307 -0.2048 -0.6252
13257TIP3    H261187   0.460   1.814  10.880  0.3943 -1.0821  0.8627
13258TIP3   OH261188   0.198   3.972  15.430  0.4659  0.2052  0.2035
13258TIP3    H161189   0.280   3.971  15.381  0.0041  0.1152 -0.5810
13258TIP3    H261190   0.131   3.991  15.364  0.0314  1.9954  1.1175
13259TIP3   OH261191   5.127   5.792   0.782  0.1616  0.2277 -0.0020
13259TIP3    H161192   5.094   5.880   0.766  0.5600  0.0166 -2.3652
13259TIP3    H261193   5.190   5.777   0.711  0.6123 -1.7003  0.7459
13260TIP3   OH261194   5.820   3.922   3.599  0.1902  0.1075 -0.4171
13260TIP3    H161195   5.834   3.920   3.693  0.5967  0.0706 -0.4745
13260TIP3    H261196   5.725   3.915   3.588 -0.0422  2.1291  0.0518
13261TIP3   OH261197   2.716   2.671   1.531 -0.0379 -0.3748 -0.3942
13261TIP3    H161198   2.800   2.696   1.491 -0.5482 -0.8703 -1.8450
13261TIP3    H261199   2.740   2.632   1.615  1.0572  1.0840  0.0159
13262TIP3   OH261200   1.829   5.395  15.135  0.6617 -0.5125  0.3350
13262TIP3    H161201   1.782   5.327  15.086 -0.7580 -0.6628  1.8059
13262TIP3    H261202   1.804   5.477  15.092 -0.9969 -0.5969  1.0262
13263TIP3   OH261203   1.065   6.321  12.919 -0.6596 -0.6573 -0.0336
13263TIP3    H161204   1.042   6.262  12.847 -0.9839 -1.9678  1.1038
13263TIP3    H261205   1.050   6.269  12.998  1.2769  0.1672  0.9390
13264TIP3   OH261206   4.518   3.936  15.053  0.1635  0.2220  0.6396
13264TIP3    H161207   4.468   3.989  14.991 -1.9088 -0.9869  1.1790
13264TIP3    H261208   4.568   3.876  14.999 -1.8259 -1.0084  0.0419
13265TIP3   OH261209   4.831   3.424  12.610 -0.3860 -0.2651 -0.1437
13265TIP3    H161210   4.851   3.397  12.520  0.2792 -1.1781  0.2568
13265TIP3    H261211   4.799   3.344  12.652 -2.0405  0.4680  0.0656
13266TIP3   OH261212   3.124   6.568  16.354 -0.7504  0.2148  0.2592
13266TIP3    H161213   3.193   6.571  16.287 -0.8090 -0.3168  0.1639
13266TIP3    H261214   3.164   6.519  16.426 -0.3721  1.5706  1.0034
13267TIP3   OH261215   6.704   0.426   5.487 -0.3967  0.0331 -0.0144
13267TIP3    H161216   6.615   0.459   5.502 -0.3089  1.3038 -1.9949
13267TIP3    H261217   6.692   0.334   5.466 -1.2022  0.0722  0.2175
13268TIP3   OH261218   4.723   1.487   5.715  0.4639  0.6798  0.4301
13268TIP3    H161219   4.729   1.466   5.622 -1.6605 -2.0498  0.8238
13268TIP3    H261220   4.639   1.532   5.724  2.2016  4.2916  0.6247
13269TIP3   OH261221   5.089   3.342   4.244 -0.0199  0.3398  0.0732
13269TIP3    H161222   5.039   3.302   4.173 -0.0339 -1.5938  1.0990
13269TIP3    H261223   5.033   3.333   4.321 -0.1014  2.5861  0.3532
13270TIP3   OH261224   0.500   0.928  13.901  0.1719 -0.2051  0.5472
13270TIP3    H161225   0.536   0.943  13.814 -0.0162 -2.8808 -0.0987
13270TIP3    H261226   0.540   0.995  13.956  0.9343  1.0346 -1.4269
13271TIP3   OH261227   5.725   0.495   1.090  0.0846 -0.0722  0.3982
13271TIP3    H161228   5.639   0.504   1.130 -0.5002 -0.2961 -0.7667
13271TIP3    H261229   5.736   0.401   1.077  0.8123 -0.1028  1.1785
13272TIP3   OH261230   4.756   2.326  15.946 -0.1671 -0.0198 -0.0890
13272TIP3    H161231   4.747   2.300  16.038 -1.2634 -0.7156 -0.3760
13272TIP3    H261232   4.728   2.417  15.944 -1.9736 -0.5330 -0.0098
13273TIP3   OH261233   1.799   4.048   3.468 -0.3210 -0.1522  0.3108
13273TIP3    H161234   1.775   3.989   3.540 -1.7038  1.3228  1.1195
13273TIP3    H261235   1.767   4.003   3.389 -1.4852 -0.4412  0.9258
13274TIP3   OH261236   4.525   1.301  12.173  0.0525  0.0056 -0.2763
13274TIP3    H161237   4.591   1.368  12.191 -1.0448  0.8301  0.7724
13274TIP3    H261238   4.462   1.344  12.115 -1.5080  0.4677  1.6574
13275TIP3   OH261239   2.185   0.863   2.651 -0.3046  0.1979 -0.3813
13275TIP3    H161240   2.258   0.826   2.602  1.1724  1.6488  0.5804
13275TIP3    H261241   2.175   0.951   2.615 -1.1594  0.2434 -0.0489
13276TIP3   OH261242   0.631   3.535  11.429 -0.0854  0.3931 -0.5123
13276TIP3    H161243   0.684   3.456  11.418 -1.0943 -0.9072  2.7395
13276TIP3    H261244   0.691   3.599  11.469  0.8396  1.5519 -3.5041
13277TIP3   OH261245   2.220   2.632  14.274  0.3093 -0.5266  0.5692
13277TIP3    H161246   2.186   2.691  14.342 -0.7747 -0.3372 -0.1133
13277TIP3    H261247   2.143   2.607  14.224  1.3974  1.6124 -2.4264
13278TIP3   OH261248   4.759   6.226  14.414  0.0911  0.1506 -0.1190
13278TIP3    H161249   4.819   6.300  14.409 -0.4292  0.5079 -1.8381
13278TIP3    H261250   4.814   6.152  14.440  1.2186  0.5548 -1.2450
13279TIP3   OH261251   0.046   1.839   3.551 -0.1989  0.0897 -0.3030
13279TIP3    H161252   0.129   1.804   3.518 -0.8754 -1.6348 -0.3105
13279TIP3    H261253  -0.015   1.765   3.543 -1.2606  0.7217  1.5056
13280TIP3   OH261254   1.773   0.159  11.747  0.3313  0.5412  0.0674
13280TIP3    H161255   1.853   0.195  11.709  0.1861  1.0618  0.2459
13280TIP3    H261256   1.757   0.213  11.825 -0.2136  0.4690  0.0116
13281TIP3   OH261257   4.725   0.493   1.272 -0.1163  0.4704  0.2793
13281TIP3    H161258   4.646   0.441   1.290 -0.3705  1.0255  0.8240
13281TIP3    H261259   4.777   0.484   1.352  0.7020 -0.4455 -0.3333
13282TIP3   OH261260   6.288   1.808   4.973  0.3058  0.4340 -0.0970
13282TIP3    H161261   6.381   1.819   4.995  0.4258  1.2149 -0.9083
13282TIP3    H261262   6.254   1.897   4.970 -0.4521  0.1554  0.0863
13283TIP3   OH261263   4.910   0.562   6.125  0.1181 -0.3835  0.1576
13283TIP3    H161264   4.883   0.649   6.156  0.5063 -0.2911  0.2418
13283TIP3    H261265   4.883   0.503   6.195  1.4051 -0.1219  0.9061
13284TIP3   OH261266   1.614   5.076  11.552 -0.0790  0.6864 -0.2402
13284TIP3    H161267   1.705   5.054  11.569 -1.0923 -3.1107  1.3177
13284TIP3    H261268   1.597   5.043  11.464 -0.4268 -0.5691  0.2814
13285TIP3   OH261269   0.922   3.654   2.127  0.2666 -0.1527 -0.0888
13285TIP3    H161270   0.979   3.577   2.127  0.4170 -0.2681  3.8721
13285TIP3    H261271   0.833   3.618   2.129  0.1938 -0.0882 -1.3845
13286TIP3   OH261272   2.342   3.855  11.975  0.0627  0.4559 -0.2138
13286TIP3    H161273   2.350   3.804  12.056  1.0533  1.5746  0.4256
13286TIP3    H261274   2.430   3.887  11.958 -0.2327  0.6175 -1.4983
13287TIP3   OH261275   0.913   3.180   2.370  0.1124  0.2944  0.5624
13287TIP3    H161276   0.889   3.270   2.390 -0.7640  0.1263  0.2884
13287TIP3    H261277   0.875   3.128   2.441  1.2404  0.1942  1.1261
13288TIP3   OH261278   3.310   0.116   3.582  0.2796  0.3977  0.1014
13288TIP3    H161279   3.306   0.104   3.487 -1.5262  1.8027 -0.0757
13288TIP3    H261280   3.359   0.041   3.614  1.3511  0.1339 -1.9799
13289TIP3   OH261281   2.944   2.378  12.958  0.1593  0.4996 -0.1586
13289TIP3    H161282   2.894   2.385  12.877 -0.5700  0.8317  0.2996
13289TIP3    H261283   2.917   2.455  13.009  0.9972  0.5725  0.1860
13290TIP3   OH261284   4.016   1.987   6.120  0.1358 -0.1733 -0.3853
13290TIP3    H161285   3.990   1.904   6.081 -1.3073  0.0458  0.0570
13290TIP3    H261286   4.074   2.026   6.055  1.0844 -1.6434 -0.4624
13291TIP3   OH261287   1.830   2.165   5.324 -0.1058 -0.3811  0.2843
13291TIP3    H161288   1.758   2.118   5.281 -1.6984  1.1225  1.1872
13291TIP3    H261289   1.892   2.182   5.253 -1.3388 -0.4283 -0.8584
13292TIP3   OH261290   4.675   3.762   2.218  0.3800 -0.1297 -0.3725
13292TIP3    H161291   4.702   3.723   2.301  0.0323 -1.5077 -0.8762
13292TIP3    H261292   4.619   3.696   2.178  0.2363  0.6713 -1.5368
13293TIP3   OH261293   1.699   2.206   4.965 -0.0163  0.0685 -0.1395
13293TIP3    H161294   1.782   2.173   4.931  0.6164  0.8263  0.6427
13293TIP3    H261295   1.667   2.136   5.021  0.2354 -0.1102 -0.2165
13294TIP3   OH261296   0.052   3.090  13.117  0.2365 -0.0369 -0.5383
13294TIP3    H161297  -0.003   3.114  13.042 -1.1470 -1.7958 -0.1501
13294TIP3    H261298   0.141   3.114  13.091 -0.6878  3.4318 -0.9963
13295TIP3   OH261299   5.055   5.401  14.866 -0.5447  0.8548  0.3774
13295TIP3    H161300   4.988   5.462  14.898 -0.6444  1.3575 -0.7395
13295TIP3    H261301   5.022   5.315  14.890 -0.5774  1.2116  1.6710
13296TIP3   OH261302   1.333   1.790  13.492 -0.4145  0.2113 -0.5871
13296TIP3    H161303   1.383   1.847  13.551  0.6217  0.4349 -1.6406
13296TIP3    H261304   1.292   1.726  13.550  0.3304  0.6008  0.4045
13297TIP3   OH261305   1.908   5.150   6.374 -0.0659  0.2862  0.3680
13297TIP3    H161306   1.899   5.094   6.451 -2.4150 -1.7498 -1.2658
13297TIP3    H261307   2.002   5.157   6.360  0.3387 -2.7036  1.0663
13298TIP3   OH261308   2.059   3.026   0.227  0.4348 -0.5530 -0.2700
13298TIP3    H161309   2.155   3.029   0.223  0.8610  2.3653  4.3753
13298TIP3    H261310   2.032   3.117   0.216 -1.8409 -1.2457 -0.9520
13299TIP3   OH261311   6.631   6.177  13.423 -0.1241 -0.0317  0.3530
13299TIP3    H161312   6.652   6.195  13.331 -0.2888  2.3156  0.7117
13299TIP3    H261313   6.537   6.159  13.423 -0.2519  0.6123  0.1299
13300TIP3   OH261314   3.579   4.655   1.121 -0.5573  0.4859  0.2824
13300TIP3    H161315   3.651   4.594   1.102 -0.9801  0.5776 -1.8801
13300TIP3    H261316   3.612   4.741   1.095 -2.0162  0.2788 -2.6916
13301TIP3   OH261317   4.414   4.678   4.420 -0.3007 -0.1443 -1.0126
13301TIP3    H161318   4.414   4.756   4.476 -0.2933 -0.2297 -0.8941
13301TIP3    H261319   4.396   4.712   4.333 -1.1488 -0.0986 -0.8321
13302TIP3   OH261320   6.609   1.453  13.665  0.0633  0.4825  0.1830
13302TIP3    H161321   6.675   1.418  13.725  1.0919  0.5926 -0.8600
13302TIP3    H261322   6.630   1.546  13.657  0.6422  0.2651 -1.1846
13303TIP3   OH261323   5.876   2.090  13.709 -0.1721 -0.5033 -0.5085
13303TIP3    H161324   5.841   2.176  13.731  1.7259  0.4273 -0.8850
13303TIP3    H261325   5.814   2.028  13.747 -0.1797  1.0254  2.1783
13304TIP3   OH261326   1.815   6.519  15.424 -0.1923  0.2939  0.1963
13304TIP3    H161327   1.822   6.611  15.450  1.9340  0.1013  0.4509
13304TIP3    H261328   1.811   6.521  15.329  0.5553  0.6360  0.1671
13305TIP3   OH261329   4.868   4.659   3.676 -0.3316  0.4684 -0.7519
13305TIP3    H161330   4.865   4.724   3.746  0.5797 -0.2321 -0.0495
13305TIP3    H261331   4.780   4.661   3.638 -1.8725 -1.2536  2.3670
13306TIP3   OH261332   0.390   4.225   6.333  0.1449 -0.7291  0.3022
13306TIP3    H161333   0.469   4.189   6.374 -0.0398 -1.6359 -0.1152
13306TIP3    H261334   0.374   4.307   6.380  2.3664  0.4372 -0.7646
13307TIP3   OH261335   2.607   3.584   5.302 -0.4261 -0.6386 -0.2275
13307TIP3    H161336   2.573   3.530   5.374  1.2451 -2.1192 -0.4853
13307TIP3    H261337   2.660   3.651   5.344  0.4570 -1.4352 -0.0430
13308TIP3   OH261338   0.615   1.505   1.483 -0.2500 -0.0819  0.5743
13308TIP3    H161339   0.592   1.465   1.567  3.5481  0.2474  1.9608
13308TIP3    H261340   0.646   1.431   1.429 -1.6204 -0.1280 -0.2037
13309TIP3   OH261341   2.795   3.292   4.488 -0.2104 -0.2212 -0.1306
13309TIP3    H161342   2.789   3.209   4.535  0.7859 -0.5419 -0.5512
13309TIP3    H261343   2.861   3.342   4.537 -0.0942 -0.0563 -0.4537
13310TIP3   OH261344   4.718   1.365  16.362 -0.2961 -0.4615  0.7777
13310TIP3    H161345   4.635   1.322  16.341 -0.6404  0.4931  0.1459
13310TIP3    H261346   4.749   1.399  16.279  1.0259 -1.2848  0.9094
13311TIP3   OH261347   5.980   0.838   4.362 -0.2149 -0.2605  0.1208
13311TIP3    H161348   6.059   0.855   4.310 -0.9110  1.5683 -0.3976
13311TIP3    H261349   5.909   0.836   4.297 -0.7975 -0.2830  0.7519
13312TIP3   OH261350   2.792   5.274  13.961  0.2958 -0.1229  0.1920
13312TIP3    H161351   2.849   5.291  14.036 -1.2140 -0.0958  1.3815
13312TIP3    H261352   2.841   5.213  13.907  1.9466  0.8340  0.5373
13313TIP3   OH261353   2.370   0.053   2.704 -0.0343  0.1110 -0.1885
13313TIP3    H161354   2.300  -0.011   2.693 -1.3972  1.3424  1.0103
13313TIP3    H261355   2.327   0.130   2.740  1.9866  0.7962  0.9201
13314TIP3   OH261356   1.463   4.767   2.379  1.1491 -0.4242 -1.0701
13314TIP3    H161357   1.513   4.768   2.461 -0.7204 -0.3873  0.1331
13314TIP3    H261358   1.502   4.837   2.326  0.7831  1.3598  0.8611
13315TIP3   OH261359   5.251   4.784   0.893  0.2606 -0.1506 -0.1337
13315TIP3    H161360   5.222   4.804   0.804  1.2381  1.5197 -0.1192
13315TIP3    H261361   5.313   4.713   0.883  1.3020  0.8354 -0.9670
13316TIP3   OH261362   2.119   1.552   1.129 -0.4061  0.9063 -0.1681
13316TIP3    H161363   2.198   1.598   1.158 -0.3449  0.4448  0.4414
13316TIP3    H261364   2.136   1.531   1.037  1.1668 -1.0944  0.4841
13317TIP3   OH261365   5.763   5.142  16.812  0.7162 -0.1469  0.3732
13317TIP3    H161366   5.821   5.126  16.738 -0.8783  0.2212 -1.0092
13317TIP3    H261367   5.674   5.132  16.776 -0.2499  3.6879  1.2902
13318TIP3   OH261368   4.201   6.275  12.829 -0.5640  0.1717 -0.4200
13318TIP3    H161369   4.211   6.331  12.752 -2.9286 -0.4500 -1.2428
13318TIP3    H261370   4.129   6.314  12.878  0.2721 -0.0064  1.0150
13319TIP3   OH261371   5.378   0.038   3.112 -0.3309  0.1207 -0.0971
13319TIP3    H161372   5.404   0.082   3.194  0.5794 -1.3784  0.4585
13319TIP3    H261373   5.460   0.004   3.077 -0.9149 -0.4873 -0.8885
13320TIP3   OH261374   4.369   4.900  15.995 -0.1003 -0.3996 -0.7105
13320TIP3    H161375   4.276   4.883  16.005 -0.3958  1.8957  1.1604
13320TIP3    H261376   4.375   4.955  15.916 -0.4471  0.2098 -0.3175
13321TIP3   OH261377   3.116   4.551  14.471 -0.0900  0.1379 -0.0046
13321TIP3    H161378   3.053   4.487  14.505  0.1250  0.8934  1.9383
13321TIP3    H261379   3.063   4.630  14.456  0.1928  0.4478  0.6075
13322TIP3   OH261380   5.019   0.227  15.287 -0.0958  0.0067  0.0868
13322TIP3    H161381   5.005   0.139  15.323  1.2616 -0.1596  0.2637
13322TIP3    H261382   5.073   0.212  15.210 -0.0632  0.6684 -0.0163
13323TIP3   OH261383   2.127   3.892  11.046 -0.5710 -0.1002  0.0037
13323TIP3    H161384   2.097   3.939  11.124 -1.1614  1.5763 -1.1662
13323TIP3    H261385   2.211   3.933  11.025 -0.1049 -0.9891  0.1269
13324TIP3   OH261386   6.011   1.081  14.069 -0.1927 -0.6600  0.1185
13324TIP3    H161387   5.960   1.039  14.000 -0.3673 -2.3711  1.2172
13324TIP3    H261388   5.952   1.081  14.145 -0.0033  1.1691  0.3081
13325TIP3   OH261389   0.585   6.541   3.053  0.6943  0.5635  0.2309
13325TIP3    H161390   0.600   6.447   3.046 -1.8652 -0.2737  3.6372
13325TIP3    H261391   0.645   6.570   3.122  1.1459  1.3787 -0.4887
13326TIP3   OH261392   3.917   0.952  11.331  0.0402 -0.8017 -0.3731
13326TIP3    H161393   3.891   0.943  11.239 -1.2642 -0.0882 -0.0987
13326TIP3    H261394   3.839   0.987  11.374  0.7798 -0.7130  0.9280
13327TIP3   OH261395   0.257   2.554  15.616  0.2775 -0.0987  0.1525
13327TIP3    H161396   0.169   2.582  15.592  0.8401  0.8882 -0.8506
13327TIP3    H261397   0.291   2.511  15.537  1.0164  0.3493  0.2172
13328TIP3   OH261398   6.719   3.991  12.145  0.2000 -0.7316  0.2760
13328TIP3    H161399   6.646   3.935  12.169  0.5459 -0.9101  0.9180
13328TIP3    H261400   6.797   3.936  12.156  0.4343 -0.5868 -0.5279
13329TIP3   OH261401   2.866   6.771  16.524  0.2060  0.4166  0.2630
13329TIP3    H161402   2.896   6.686  16.556 -1.0156 -0.3297 -0.4474
13329TIP3    H261403   2.945   6.814  16.491  1.0278  0.0644  1.6904
13330TIP3   OH261404   1.860   5.883  15.001 -0.0775 -0.5234  0.2739
13330TIP3    H161405   1.921   5.955  14.985 -0.9159  0.3571  0.9745
13330TIP3    H261406   1.891   5.844  15.083  0.6201 -1.2404 -0.3137
13331TIP3   OH261407   4.284   4.057  16.173  0.2137  0.0440 -0.1665
13331TIP3    H161408   4.195   4.091  16.170 -0.1647 -0.9181 -0.1410
13331TIP3    H261409   4.304   4.037  16.082  0.5538  0.5984 -0.2233
13332TIP3   OH261410   0.446   2.904   0.030 -0.5495  0.4641 -0.8161
13332TIP3    H161411   0.540   2.896   0.014 -0.0770 -0.4926  1.9086
13332TIP3    H261412   0.420   2.821   0.068 -2.3291  1.0343 -0.6674
13333TIP3   OH261413   4.214   6.196  12.394 -0.1564 -0.0960 -0.1426
13333TIP3    H161414   4.150   6.126  12.395  0.2842 -0.5103 -0.2801
13333TIP3    H261415   4.298   6.152  12.407  0.1367  0.3937 -0.3327
13334TIP3   OH261416   3.657   0.578   0.284 -0.5113  0.3882 -0.7187
13334TIP3    H161417   3.594   0.593   0.354 -2.8355 -2.5605 -1.9550
13334TIP3    H261418   3.636   0.491   0.251  1.2448  1.1256 -4.2796
13335TIP3   OH261419   4.264   4.077   4.267 -0.1351  0.6721  0.1752
13335TIP3    H161420   4.347   4.031   4.280 -1.4092 -1.6050  0.8943
13335TIP3    H261421   4.267   4.151   4.328  0.4251 -0.7915  2.0310
13336TIP3   OH261422   4.450   6.125   4.519 -0.5071  0.5818 -0.0679
13336TIP3    H161423   4.518   6.188   4.496  0.1934  0.2360  0.9817
13336TIP3    H261424   4.447   6.065   4.445  0.3112  0.6234 -0.1472
13337TIP3   OH261425   1.113   2.827   3.719 -0.4233  0.0326  0.2944
13337TIP3    H161426   1.153   2.747   3.754  1.4453 -0.2153 -2.1135
13337TIP3    H261427   1.157   2.898   3.764 -1.1863 -0.2439  1.5263
13338TIP3   OH261428   1.946   3.706   1.022 -0.4696  0.0707  0.9321
13338TIP3    H161429   1.956   3.799   1.007  1.7504 -0.5104 -2.0303
13338TIP3    H261430   2.010   3.685   1.090 -0.8744  0.6305  1.4997
13339TIP3   OH261431   0.954   3.725   1.531  0.5728 -0.1837 -0.1449
13339TIP3    H161432   1.011   3.740   1.456  1.3082 -0.3759  0.3613
13339TIP3    H261433   0.927   3.813   1.558 -0.9284 -0.1708 -1.5313
13340TIP3   OH261434   4.192   5.107  13.980  0.4003  0.0402 -0.5323
13340TIP3    H161435   4.274   5.062  14.002  0.6319  0.2944 -0.8674
13340TIP3    H261436   4.215   5.200  13.977  0.2944  0.0411 -1.4767
13341TIP3   OH261437   6.524   2.342  15.403  0.7866  0.2527 -0.2505
13341TIP3    H161438   6.457   2.399  15.440  0.2674 -0.4771 -0.0482
13341TIP3    H261439   6.546   2.281  15.473 -2.2957 -3.0445 -1.8137
13342TIP3   OH261440   2.832   4.255   1.059 -0.1603 -0.0764 -0.3006
13342TIP3    H161441   2.836   4.274   1.153  0.4836 -2.1761  0.1580
13342TIP3    H261442   2.882   4.325   1.018  0.8713  0.0495  1.0896
13343TIP3   OH261443   5.998   6.214  13.640  0.2988  0.5025  0.0912
13343TIP3    H161444   6.072   6.235  13.583  0.8962 -0.7554  0.3794
13343TIP3    H261445   5.929   6.185  13.579 -0.4867  2.9573 -0.3010
13344TIP3   OH261446   6.670   3.468  12.402  0.2784 -0.3798  0.3311
13344TIP3    H161447   6.660   3.507  12.489  2.3988  0.3374  0.3115
13344TIP3    H261448   6.614   3.390  12.404 -1.8800  1.0850  1.3486
13345TIP3   OH261449   0.386   3.104   5.265  0.0386  0.2025 -0.0262
13345TIP3    H161450   0.383   3.117   5.171  1.2648  0.0704 -0.1002
13345TIP3    H261451   0.473   3.066   5.281 -0.1935  0.1313  1.1379
13346TIP3   OH261452   4.643   1.510   5.176  0.0832  0.1616 -0.8160
13346TIP3    H161453   4.627   1.444   5.108  0.7311  1.0975 -1.9195
13346TIP3    H261454   4.683   1.583   5.129  2.9443 -0.1185  0.9649
13347TIP3   OH261455   2.447   0.406  15.397  0.2954 -0.2185 -0.3192
13347TIP3    H161456   2.502   0.430  15.471  1.0164 -1.3393 -0.4609
13347TIP3    H261457   2.418   0.317  15.417 -0.2326 -0.2012 -0.9632
13348TIP3   OH261458   1.045   6.690   3.468 -0.5077  0.2144 -0.0688
13348TIP3    H161459   1.005   6.632   3.403 -0.4785  0.2473 -0.1159
13348TIP3    H261460   1.055   6.774   3.423  0.3405 -0.0069 -0.3219
13349TIP3   OH261461   0.578   2.928  12.877 -0.8652 -0.3536  0.0725
13349TIP3    H161462   0.566   3.023  12.872 -0.0968 -0.3185 -1.5097
13349TIP3    H261463   0.664   2.917  12.918 -0.1966 -0.3105 -1.2781
13350TIP3   OH261464   4.208   5.701  11.694  0.2017 -0.5998  0.3942
13350TIP3    H161465   4.261   5.694  11.615  0.2842 -1.2103  0.4960
13350TIP3    H261466   4.222   5.618  11.740  1.6659  0.4743  2.0150
13351TIP3   OH261467   2.654   0.728   3.496 -0.4666  0.3268 -0.1700
13351TIP3    H161468   2.598   0.652   3.480 -1.1187  0.6664  0.4696
13351TIP3    H261469   2.741   0.701   3.464 -0.5517 -0.8893  0.5814
13352TIP3   OH261470   5.311   6.476  15.572 -0.2029  0.2634 -0.1374
13352TIP3    H161471   5.266   6.448  15.651 -1.1618 -0.0954 -0.7854
13352TIP3    H261472   5.261   6.435  15.500 -0.3982  1.9207 -1.0055
13353TIP3   OH261473   2.944   6.532   1.168  0.4419  0.0278  0.1200
13353TIP3    H161474   2.855   6.503   1.189  0.4854  0.8084  1.4564
13353TIP3    H261475   2.969   6.477   1.093 -0.2437 -1.9242  1.2377
13354TIP3   OH261476   2.241   6.435  11.940  0.1308 -0.1392 -0.3683
13354TIP3    H161477   2.304   6.423  11.869  0.1577 -1.8912 -0.0910
13354TIP3    H261478   2.156   6.414  11.900 -0.4589  2.8174 -0.9133
13355TIP3   OH261479   1.654   1.910  11.674  0.1148 -0.6457  0.1725
13355TIP3    H161480   1.616   1.995  11.651 -0.2539 -1.4515 -2.5517
13355TIP3    H261481   1.735   1.906  11.623 -0.0651 -2.0622 -0.0225
13356TIP3   OH261482   2.150   5.582   5.892 -0.4668 -0.8599 -0.1777
13356TIP3    H161483   2.077   5.571   5.953  0.4853 -0.0856  1.1464
13356TIP3    H261484   2.145   5.675   5.867  0.6162 -0.5437  0.6956
13357TIP3   OH261485   6.563   5.838  13.887 -0.4073  0.1596  0.8201
13357TIP3    H161486   6.577   5.931  13.873 -1.4248  0.2857  0.5149
13357TIP3    H261487   6.644   5.796  13.857  0.0923  0.9423  1.0505
13358TIP3   OH261488   2.841   5.034   3.192 -0.1700 -0.9160  0.1676
13358TIP3    H161489   2.854   4.981   3.114 -0.0797 -0.9159  0.1821
13358TIP3    H261490   2.872   5.122   3.168  0.1724 -0.9969  0.3085
13359TIP3   OH261491   5.693   6.051  12.868  0.1184 -0.7700  0.2549
13359TIP3    H161492   5.756   6.110  12.910 -0.0535 -0.0341 -0.4946
13359TIP3    H261493   5.697   5.971  12.920  2.1307 -0.9748 -0.1348
13360TIP3   OH261494   1.489   6.097   5.005  0.1172  0.2810  0.6219
13360TIP3    H161495   1.422   6.076   4.940 -0.2220 -0.9309  1.3285
13360TIP3    H261496   1.463   6.182   5.040 -0.9866 -0.1108  0.7858
13361TIP3   OH261497   1.787   2.637  10.978 -0.1351  0.0254 -0.5453
13361TIP3    H161498   1.874   2.660  10.945 -0.5953  1.2595 -0.9660
13361TIP3    H261499   1.728   2.661  10.906 -0.9745  0.7909  0.3844
13362TIP3   OH261500   1.532   6.209  12.990 -0.0467 -0.5587  0.0190
13362TIP3    H161501   1.475   6.238  12.920  0.2506 -1.0193 -0.4205
13362TIP3    H261502   1.619   6.244  12.968  0.0357 -0.6522  0.1875
13363TIP3   OH261503   4.653   2.713   5.027 -0.4121  0.0242  0.0691
13363TIP3    H161504   4.675   2.671   5.110 -0.1384  1.7094  0.8901
13363TIP3    H261505   4.731   2.699   4.973  0.9102  1.9302  1.3583
13364TIP3   OH261506   3.958   1.728  13.042  0.0411 -0.5121 -0.2356
13364TIP3    H161507   3.939   1.752  12.951  0.6591 -3.5733 -1.3022
13364TIP3    H261508   3.879   1.753  13.090  0.0270  1.9545 -1.3937
13365TIP3   OH261509   0.309   2.562  11.085 -0.2034 -0.4134  0.1923
13365TIP3    H161510   0.286   2.582  10.994 -0.9916  0.3078  0.5381
13365TIP3    H261511   0.370   2.488  11.078  0.7395  0.4185 -0.9889
13366TIP3   OH261512   5.323   1.076  10.932 -0.0133 -0.2070  0.4189
13366TIP3    H161513   5.355   1.040  10.849  0.7029 -2.0761  1.4546
13366TIP3    H261514   5.324   1.002  10.992 -0.2006  1.1884  2.2077
13367TIP3   OH261515   5.220   3.270  14.488  0.2178 -0.2016 -0.5980
13367TIP3    H161516   5.140   3.299  14.533 -1.1741  1.2669 -3.7309
13367TIP3    H261517   5.291   3.300  14.545 -1.3519 -1.3398  2.1820
13368TIP3   OH261518   4.194   1.902   1.147  0.7044  0.1076 -0.6206
13368TIP3    H161519   4.216   1.993   1.167  1.1624 -0.0216 -0.5298
13368TIP3    H261520   4.237   1.884   1.063 -0.8381  0.5073 -1.5450
13369TIP3   OH261521   2.649   3.394  14.737  0.0328 -0.2863  0.2615
13369TIP3    H161522   2.580   3.342  14.778 -2.2477  1.2665 -1.3275
13369TIP3    H261523   2.633   3.484  14.767  0.2863  0.3735 -1.4367
13370TIP3   OH261524   6.660   1.979  13.915  0.0125 -0.0783  0.5614
13370TIP3    H161525   6.698   1.894  13.936  0.0602 -0.4242 -0.8725
13370TIP3    H261526   6.721   2.043  13.952  0.1892 -0.6495  1.2740
13371TIP3   OH261527   0.839   4.604   5.908 -0.2296 -0.0278 -0.1058
13371TIP3    H161528   0.833   4.614   5.813 -0.8853  0.6316  0.0027
13371TIP3    H261529   0.869   4.689   5.939  0.6070 -0.4351  0.2299
13372TIP3   OH261530   3.690   2.574   1.997 -0.0279  0.4958 -0.6261
13372TIP3    H161531   3.741   2.521   2.058 -0.1260  0.6287 -0.4314
13372TIP3    H261532   3.673   2.656   2.043 -0.0353  0.6284 -0.8578
13373TIP3   OH261533   1.768   2.286   2.273 -0.1210  0.2247 -0.1251
13373TIP3    H161534   1.697   2.228   2.248  1.2221 -1.9887  0.9147
13373TIP3    H261535   1.779   2.345   2.198 -0.5126 -1.9060 -1.9553
13374TIP3   OH261536   0.308   4.052  15.676 -0.0933 -0.0100 -1.0797
13374TIP3    H161537   0.306   4.010  15.590  0.5036  0.2119 -1.2071
13374TIP3    H261538   0.313   4.146  15.657  0.4309  0.0179 -0.8053
13375TIP3   OH261539   0.929   4.823   3.547  0.8122 -0.2689  0.0913
13375TIP3    H161540   0.933   4.731   3.519  0.8446 -1.1949  2.8326
13375TIP3    H261541   0.853   4.859   3.502 -0.1215 -2.0995  0.1226
13376TIP3   OH261542   2.416   5.602   2.267 -0.0277  0.0822  0.2388
13376TIP3    H161543   2.357   5.579   2.195  0.9162  0.0915 -0.5543
13376TIP3    H261544   2.449   5.689   2.245  1.8384 -0.7413 -0.3998
13377TIP3   OH261545   1.727   1.791   2.492 -0.8098  0.6834 -0.1887
13377TIP3    H161546   1.678   1.841   2.558 -3.2665 -1.7708  0.0094
13377TIP3    H261547   1.788   1.738   2.543  0.2836  1.8221 -0.2587
13378TIP3   OH261548   1.099   5.521  11.730 -0.4815 -0.1141 -0.0370
13378TIP3    H161549   1.115   5.436  11.771  0.7134  0.5312  0.8945
13378TIP3    H261550   1.016   5.509  11.682  0.4183 -2.2409 -1.2075
13379TIP3   OH261551   4.687   3.593  11.953 -0.1934  0.0480 -0.0515
13379TIP3    H161552   4.737   3.518  11.987 -2.1568 -2.1502 -1.7060
13379TIP3    H261553   4.605   3.591  12.002 -1.4357 -0.7213 -2.0703
13380TIP3   OH261554   5.784   6.192   4.457 -0.7350  0.1099 -0.1179
13380TIP3    H161555   5.756   6.142   4.380  1.5943  0.5116 -1.3192
13380TIP3    H261556   5.795   6.281   4.425 -1.4392  0.6817  1.1544
13381TIP3   OH261557   0.273   2.959  14.650 -0.0203 -0.0870 -0.3300
13381TIP3    H161558   0.269   3.053  14.636 -0.7590 -0.1535 -0.5822
13381TIP3    H261559   0.365   2.942  14.670  0.0077  0.7651  0.3100
13382TIP3   OH261560   5.814   5.484  14.570 -0.4681  0.5155 -1.1319
13382TIP3    H161561   5.718   5.486  14.577 -0.6979 -0.8115 -3.0185
13382TIP3    H261562   5.833   5.398  14.532  1.5054  0.6818 -0.6011
13383TIP3   OH261563   6.228   5.555  12.995 -0.2712 -0.3953 -0.5142
13383TIP3    H161564   6.311   5.600  12.984 -1.0766  1.8287  1.6937
13383TIP3    H261565   6.237   5.505  13.076 -0.2757 -2.2271 -1.5940
13384TIP3   OH261566   2.302   0.827   5.176 -0.0154 -0.5343  0.4929
13384TIP3    H161567   2.383   0.793   5.215 -0.5148 -1.8424  0.4128
13384TIP3    H261568   2.276   0.761   5.112  0.1359  0.9995 -1.2460
13385TIP3   OH261569   2.859   5.892   5.015 -0.3714 -0.5033 -0.6103
13385TIP3    H161570   2.898   5.939   5.089  0.2679  0.3587 -1.4811
13385TIP3    H261571   2.898   5.804   5.018 -1.3848 -0.9532  0.8749
13386TIP3   OH261572   4.080   4.495  12.954 -0.1849  0.1057 -0.2085
13386TIP3    H161573   4.063   4.499  12.860 -2.1072  2.4896  0.1439
13386TIP3    H261574   4.115   4.581  12.976 -1.8123  0.3959  1.5479
13387TIP3   OH261575   3.575   0.989  16.188  0.0076  0.1861 -0.1799
13387TIP3    H161576   3.627   1.053  16.140 -0.4314  0.4823 -0.2683
13387TIP3    H261577   3.511   0.958  16.124 -0.2037  0.1515  0.0477
13388TIP3   OH261578   5.622   4.073   2.659  0.0593  0.0835  0.3375
13388TIP3    H161579   5.554   4.010   2.637 -0.1533  0.0947  0.9466
13388TIP3    H261580   5.686   4.064   2.588 -1.1408  0.9534 -0.9013
13389TIP3   OH261581   3.899   5.313   5.861  0.3656  0.2092 -0.3784
13389TIP3    H161582   3.923   5.278   5.775 -0.6698 -0.2229 -0.5086
13389TIP3    H261583   3.928   5.245   5.923 -1.2512 -0.7362 -0.5996
13390TIP3   OH261584   6.438   1.545  15.108  0.8289 -0.2667  0.1824
13390TIP3    H161585   6.520   1.529  15.061  1.2575  0.8602  0.5120
13390TIP3    H261586   6.388   1.601  15.048  0.5557 -0.4320  0.2538
13391TIP3   OH261587   0.731   6.031   2.191  0.4232  0.4700 -0.0862
13391TIP3    H161588   0.745   6.125   2.205  2.7075  0.3934 -1.3180
13391TIP3    H261589   0.702   5.997   2.276  3.0158  1.7287  1.4077
13392TIP3   OH261590   5.476   1.760   1.916 -0.0978 -0.4736 -0.1375
13392TIP3    H161591   5.417   1.705   1.967 -0.2052  0.0077  0.2638
13392TIP3    H261592   5.496   1.834   1.974  0.1075 -0.1301 -0.6398
13393TIP3   OH261593   4.480   3.145  15.608  0.7139  0.1272  0.0578
13393TIP3    H161594   4.427   3.168  15.684  0.3749  0.7083 -0.3456
13393TIP3    H261595   4.443   3.062  15.577 -0.6375  1.0233 -0.8165
13394TIP3   OH261596   4.161   0.385   3.684  0.0769  0.0223 -0.7842
13394TIP3    H161597   4.161   0.336   3.766  0.0330  1.8329  0.3488
13394TIP3    H261598   4.219   0.459   3.700 -2.3415  2.1564 -1.2374
13395TIP3   OH261599   2.655   0.547   0.639 -0.0175  0.1475 -0.4471
13395TIP3    H161600   2.655   0.507   0.725  1.0037 -1.3867 -1.1164
13395TIP3    H261601   2.742   0.587   0.630 -0.0561  0.1610 -0.8087
13396TIP3   OH261602   1.147   5.427   5.013 -0.3298  0.1040 -0.2496
13396TIP3    H161603   1.239   5.451   5.002 -0.2827 -0.0699 -0.2311
13396TIP3    H261604   1.099   5.488   4.957 -0.1418 -0.3797 -0.9456
13397TIP3   OH261605   4.227   3.615  14.637  0.7436 -0.0528  0.0804
13397TIP3    H161606   4.292   3.553  14.605 -1.4747 -2.5772  0.1752
13397TIP3    H261607   4.199   3.664  14.560  0.4653 -1.2075 -0.5634
13398TIP3   OH261608   3.192   0.140  13.627 -0.1231 -0.2287 -0.2539
13398TIP3    H161609   3.109   0.174  13.594 -0.4477  0.3679  1.1050
13398TIP3    H261610   3.196   0.170  13.718  0.0049 -3.0248  0.7698
13399TIP3   OH261611   2.102   0.979  12.095 -0.4710  0.5052  0.1963
13399TIP3    H161612   2.192   1.004  12.116  0.5660 -1.3889 -1.6148
13399TIP3    H261613   2.059   0.970  12.180  0.9429  1.6766  1.0883
13400TIP3   OH261614   2.204   1.813  16.972 -0.0007 -0.8220  0.3246
13400TIP3    H161615   2.277   1.865  17.006 -0.0057  0.3950 -1.3882
13400TIP3    H261616   2.193   1.844  16.882 -1.6283 -2.0818  0.0542
13401TIP3   OH261617   4.908   0.795   5.961  0.2826  0.3530 -0.3829
13401TIP3    H161618   4.944   0.836   6.040  0.5863 -0.4045 -0.1138
13401TIP3    H261619   4.984   0.759   5.916  0.2022  1.4596 -1.4404
13402TIP3   OH261620   2.666   1.532   1.295 -0.2363 -0.1518 -0.0877
13402TIP3    H161621   2.623   1.448   1.280 -0.6331  0.1565 -0.7179
13402TIP3    H261622   2.595   1.592   1.317  0.1805 -0.2691  1.7153
13403TIP3   OH261623   3.540   5.346   5.755  0.1692  0.1829 -0.5804
13403TIP3    H161624   3.594   5.302   5.820 -0.2601  1.5529  0.7694
13403TIP3    H261625   3.521   5.432   5.793 -1.2451  0.5177 -1.9047
13404TIP3   OH261626   2.795   1.451  11.088 -0.4128  0.0734  0.1076
13404TIP3    H161627   2.787   1.523  11.026 -2.0206  0.0415  0.2322
13404TIP3    H261628   2.862   1.394  11.051 -0.4492  0.6908 -0.9394
13405TIP3   OH261629   4.204   5.157  12.396  0.2894 -0.2915 -0.1864
13405TIP3    H161630   4.155   5.170  12.314  1.0305 -1.3399 -0.8165
13405TIP3    H261631   4.287   5.203  12.382 -0.3725  1.2708  0.7858
13406TIP3   OH261632   0.010   3.052  12.022  0.0618 -0.0983 -0.1035
13406TIP3    H161633   0.088   2.999  12.009 -0.4098 -0.5578 -1.1464
13406TIP3    H261634  -0.015   3.080  11.934 -1.4011 -0.6370  0.1173
13407TIP3   OH261635   0.699   3.642  10.554  0.7426 -0.7222 -0.1740
13407TIP3    H161636   0.648   3.580  10.606  0.7829  1.9691  3.4981
13407TIP3    H261637   0.783   3.648  10.599  1.1576  1.1040 -1.0650
13408TIP3   OH261638   6.649   6.172   4.425 -0.5925 -0.3990 -0.1870
13408TIP3    H161639   6.726   6.144   4.475 -0.8344  1.4915  1.3456
13408TIP3    H261640   6.643   6.108   4.354  1.6788 -1.3023  0.3326
13409TIP3   OH261641   4.126   5.924   4.735  0.3228  0.5652  0.3926
13409TIP3    H161642   4.064   5.995   4.746 -0.2459  0.4794 -1.8097
13409TIP3    H261643   4.211   5.963   4.754 -0.0413  1.6809 -0.2131
13410TIP3   OH261644   3.814   2.810  17.201 -0.7799  0.0925 -0.8324
13410TIP3    H161645   3.869   2.739  17.167 -0.8321  0.9771 -2.8835
13410TIP3    H261646   3.750   2.765  17.257  1.1082 -1.1032  0.4973
13411TIP3   OH261647   6.568   1.126  15.656  0.0812 -0.6064 -0.4721
13411TIP3    H161648   6.577   1.039  15.619 -0.3439 -0.9210  0.1531
13411TIP3    H261649   6.483   1.126  15.699  0.7692 -0.4335  0.9563
13412TIP3   OH261650   3.117   3.420   1.683  0.4871  0.1963  0.4034
13412TIP3    H161651   3.090   3.328   1.690  1.6429 -0.1376  0.6995
13412TIP3    H261652   3.076   3.462   1.759  0.6628 -0.2546  0.7556
13413TIP3   OH261653   3.750   3.032   0.888  0.3887 -0.0878 -0.3782
13413TIP3    H161654   3.792   2.960   0.935  0.1199 -0.1255 -0.1939
13413TIP3    H261655   3.688   2.989   0.829  1.3649 -0.0955 -1.4372
13414TIP3   OH261656   0.472   3.743  11.648  0.3637  0.0656  0.1651
13414TIP3    H161657   0.511   3.666  11.689  0.5479  0.4651  0.7552
13414TIP3    H261658   0.525   3.816  11.679 -0.8690  0.6252  1.0077
13415TIP3   OH261659   5.060   6.097  14.287 -0.0333  0.2727 -0.3325
13415TIP3    H161660   5.029   6.162  14.224 -0.8023 -0.7645 -1.0734
13415TIP3    H261661   5.150   6.079  14.262 -0.5007 -0.5294 -1.5229
13416TIP3   OH261662   3.011   2.097   0.151  0.4862 -0.1777  0.0206
13416TIP3    H161663   3.006   2.001   0.150 -0.4291 -0.2749  3.4408
13416TIP3    H261664   2.920   2.126   0.145  0.4003  0.2700  2.5855
13417TIP3   OH261665   3.826   4.168   6.455 -0.1555 -0.5328  0.1644
13417TIP3    H161666   3.778   4.153   6.536 -0.8779  0.2621 -0.1051
13417TIP3    H261667   3.869   4.084   6.437 -2.8259 -1.8546 -0.5071
13418TIP3   OH261668   5.556   4.028   0.091 -0.0703  0.0272 -0.2331
13418TIP3    H161669   5.462   4.017   0.075 -0.3182  1.6998 -0.0314
13418TIP3    H261670   5.596   4.002   0.008 -0.5962 -1.7093 -0.0002
13419TIP3   OH261671   3.072   5.975   1.513 -0.1614 -0.3483 -0.0340
13419TIP3    H161672   3.062   6.053   1.458  1.6383 -1.5019 -2.1610
13419TIP3    H261673   3.155   5.990   1.559  1.9696 -2.2934 -2.9538
13420TIP3   OH261674   4.199   3.316   4.634 -0.8139 -0.1031 -0.0615
13420TIP3    H161675   4.151   3.397   4.618 -0.7701  0.0693  0.6426
13420TIP3    H261676   4.219   3.318   4.728  0.8450 -0.0172 -0.3766
13421TIP3   OH261677   5.320   5.845   3.434 -0.0661 -0.2787  0.2607
13421TIP3    H161678   5.242   5.803   3.471  0.6045  0.4777  2.7005
13421TIP3    H261679   5.387   5.777   3.437 -0.3874 -0.7027 -1.1604
13422TIP3   OH261680   2.006   5.918  12.689  0.6500  0.2039 -0.3331
13422TIP3    H161681   2.086   5.906  12.740  0.4996  0.1449 -0.1112
13422TIP3    H261682   1.996   6.014  12.683  1.7103  0.2567 -1.8919
13423TIP3   OH261683   1.347   4.244  16.611  0.1693 -0.2149 -0.2981
13423TIP3    H161684   1.401   4.171  16.581 -0.3813  0.0929 -2.2189
13423TIP3    H261685   1.260   4.205  16.625  0.1314 -0.1236 -0.2784
13424TIP3   OH261686   5.537   6.457   4.821 -0.3370 -0.5031 -0.1354
13424TIP3    H161687   5.567   6.494   4.739 -1.1496  1.4513  0.3988
13424TIP3    H261688   5.528   6.532   4.880 -1.1428 -1.6698  1.2997
13425TIP3   OH261689   1.187   1.273   1.417  0.4530 -0.5973 -0.0722
13425TIP3    H161690   1.276   1.241   1.434 -0.1521 -2.2936  0.0479
13425TIP3    H261691   1.133   1.231   1.484 -0.3529  1.0586  0.3767
13426TIP3   OH261692   1.887   3.548   2.186  0.0691  0.0297  0.0314
13426TIP3    H161693   1.922   3.575   2.270 -2.0899  0.4881  0.8562
13426TIP3    H261694   1.894   3.452   2.186  0.8145  0.0845  0.3813
13427TIP3   OH261695   4.865   5.733  14.360  0.0162  0.3326  0.5020
13427TIP3    H161696   4.925   5.659  14.367  0.2479 -0.0970 -3.4680
13427TIP3    H261697   4.778   5.694  14.368  0.1546 -0.3361 -0.9735
13428TIP3   OH261698   2.073   4.275   2.743  0.3233 -0.0978  0.2535
13428TIP3    H161699   2.144   4.266   2.680 -0.0240  0.3787 -0.2154
13428TIP3    H261700   2.098   4.350   2.797 -0.8910  1.5847 -1.3929
13429TIP3   OH261701   2.331   0.438  11.386  0.0930  0.1826 -0.1563
13429TIP3    H161702   2.384   0.465  11.311 -0.4941  1.4844 -0.1299
13429TIP3    H261703   2.379   0.472  11.462 -1.0384  1.9230 -0.1652
13430TIP3   OH261704   0.645   2.652   4.670 -0.0868  0.3476  0.3814
13430TIP3    H161705   0.571   2.606   4.710 -0.5527 -0.5979 -1.4939
13430TIP3    H261706   0.718   2.638   4.732 -0.5280 -1.8671  0.4799
13431TIP3   OH261707   4.673   3.668   6.599  0.0174 -0.9683 -0.5865
13431TIP3    H161708   4.767   3.660   6.612 -0.1721 -1.3836  0.6814
13431TIP3    H261709   4.641   3.578   6.599 -0.8763 -0.8549  3.5239
13432TIP3   OH261710   1.912   1.044   1.291  0.1143 -0.3669 -0.3294
13432TIP3    H161711   1.846   1.100   1.331 -0.0019 -1.0528  0.4603
13432TIP3    H261712   1.960   1.103   1.231 -0.7772  0.2816 -0.4293
13433TIP3   OH261713   5.378   4.065  15.714 -0.2950 -0.5619 -0.2967
13433TIP3    H161714   5.459   4.022  15.687  0.0431  0.7826 -1.5084
13433TIP3    H261715   5.393   4.089  15.806  0.3533 -1.0642 -0.2669
13434TIP3   OH261716   4.690   3.304  13.433  0.1354  0.1685  0.1495
13434TIP3    H161717   4.689   3.265  13.521  1.1574  1.6574  0.8605
13434TIP3    H261718   4.617   3.262  13.388 -1.1584  0.1862  2.0742
13435TIP3   OH261719   6.650   5.549   4.608  0.1334  0.0165 -0.2431
13435TIP3    H161720   6.652   5.608   4.683  0.9381  2.4403 -2.0260
13435TIP3    H261721   6.740   5.546   4.577 -0.1970 -0.8287 -1.1885
13436TIP3   OH261722   1.064   4.167  15.024 -0.1016  0.0515  0.1269
13436TIP3    H161723   1.114   4.237  14.983  0.7834 -1.1343 -0.8997
13436TIP3    H261724   1.119   4.137  15.097  0.2367 -0.5831 -0.3820
13437TIP3   OH261725   0.983   0.890   0.704  0.2049  0.0375  0.2663
13437TIP3    H161726   0.964   0.866   0.613  0.3946 -0.8967  0.4692
13437TIP3    H261727   1.018   0.811   0.743  0.7704  0.6245  0.9795
13438TIP3   OH261728   3.923   1.295   1.134  0.0453 -0.7719 -0.3488
13438TIP3    H161729   3.931   1.200   1.133 -0.7005 -0.8554  0.7413
13438TIP3    H261730   3.832   1.312   1.107  0.4314 -0.3211 -1.4191
13439TIP3   OH261731   0.292   0.697   5.651 -0.1342  0.1840  0.1897
13439TIP3    H161732   0.333   0.673   5.568 -2.7928  0.9705 -1.4808
13439TIP3    H261733   0.290   0.793   5.650  0.1505  0.2186  1.3754
13440TIP3   OH261734   3.111   2.503   3.731 -0.1275  0.0772 -0.5844
13440TIP3    H161735   3.062   2.585   3.723  0.0077  0.0815 -1.5218
13440TIP3    H261736   3.090   2.455   3.651  0.1841 -0.5949 -0.2715
13441TIP3   OH261737   1.867   0.131  14.991  0.5724 -0.1020 -0.4476
13441TIP3    H161738   1.804   0.059  14.987  0.7912 -0.3832  0.8333
13441TIP3    H261739   1.863   0.171  14.904 -1.3270 -0.1322 -0.4190
13442TIP3   OH261740   5.877   5.386  15.688  0.4757  0.5486  0.2664
13442TIP3    H161741   5.891   5.385  15.593  0.5814  2.2523  0.2318
13442TIP3    H261742   5.792   5.342  15.699  1.0416 -0.7914 -0.4731
13443TIP3   OH261743   4.345   4.142   1.782  0.3390  0.4537  0.5504
13443TIP3    H161744   4.312   4.150   1.693 -1.7161  2.1919  1.3593
13443TIP3    H261745   4.326   4.052   1.807 -0.5211  0.3965 -0.2529
13444TIP3   OH261746   1.295   4.123  17.188 -0.1181  0.1788  0.7309
13444TIP3    H161747   1.221   4.064  17.201 -0.8525  1.2880  1.7742
13444TIP3    H261748   1.342   4.086  17.113 -1.0717 -1.1839  0.7597
13445TIP3   OH261749   2.736   6.180  11.646  0.3011 -0.0557 -0.0688
13445TIP3    H161750   2.754   6.124  11.571  1.9060 -0.7541  0.7952
13445TIP3    H261751   2.801   6.250  11.640  0.7273 -0.3587  0.9129
13446TIP3   OH261752   6.123   3.906  15.252  0.4615  0.0854 -0.0084
13446TIP3    H161753   6.043   3.861  15.279 -1.5248  3.1438 -0.2825
13446TIP3    H261754   6.142   3.872  15.164 -2.6499  1.6863 -1.4429
13447TIP3   OH261755   2.490   5.680  10.321 -0.5791 -0.2229 -0.7041
13447TIP3    H161756   2.552   5.617  10.356  0.0529  0.7387 -0.0366
13447TIP3    H261757   2.527   5.707  10.238 -0.1747  0.2220 -0.3866
13448TIP3   OH261758   0.065   3.312  14.565 -0.2128  0.3991  0.2065
13448TIP3    H161759   0.016   3.341  14.642 -1.2858 -0.1334 -0.2602
13448TIP3    H261760   0.002   3.263  14.513  0.0997  1.9628 -1.7411
13449TIP3   OH261761   2.062   1.001   3.672 -0.2547  0.3694  0.0704
13449TIP3    H161762   1.981   0.995   3.622 -1.4109 -0.8881  1.9654
13449TIP3    H261763   2.051   1.081   3.725  0.3736  0.9547 -0.6610
13450TIP3   OH261764   4.699   5.524   4.066 -0.1212  0.7835 -0.4970
13450TIP3    H161765   4.636   5.498   4.133 -0.0724  1.4930 -0.1699
13450TIP3    H261766   4.760   5.450   4.061 -0.3367  0.5700 -0.0171
13451TIP3   OH261767   3.570   3.357   4.607  0.3425  0.1172  0.0551
13451TIP3    H161768   3.531   3.273   4.629 -2.5279  1.7932  2.1189
13451TIP3    H261769   3.517   3.390   4.535  1.4249  0.2073 -0.7207
13452TIP3   OH261770   3.348   5.450   5.399 -0.2871 -0.0560 -0.2466
13452TIP3    H161771   3.368   5.457   5.306 -0.0071 -0.3570 -0.2095
13452TIP3    H261772   3.255   5.427   5.403 -0.4794  0.6631 -0.4346
13453TIP3   OH261773   3.853   0.977   1.696  0.1150  0.4240  0.2757
13453TIP3    H161774   3.909   1.022   1.633 -0.4995 -1.4061 -1.7138
13453TIP3    H261775   3.786   1.042   1.718  0.2738  1.0957 -1.0890
13454TIP3   OH261776   6.336   0.052   5.190  0.3619 -0.1212 -0.0167
13454TIP3    H161777   6.256   0.004   5.213  0.8643  0.1308  2.6295
13454TIP3    H261778   6.329   0.134   5.239  2.4752 -0.3559  0.7562
13455TIP3   OH261779   1.166   5.876  15.329 -0.2360 -0.0818 -0.3017
13455TIP3    H161780   1.247   5.879  15.277  0.2357  0.5473  0.4594
13455TIP3    H261781   1.172   5.793  15.376 -0.9929 -0.9999 -1.7263
13456TIP3   OH261782   4.519   3.807   2.806 -0.2143 -0.2013  0.5481
13456TIP3    H161783   4.571   3.736   2.844  1.9686  0.0455 -1.7328
13456TIP3    H261784   4.521   3.791   2.712 -3.6638  0.3367  0.2317
13457TIP3   OH261785   4.496   3.620   0.841  0.4128  0.2173 -0.2805
13457TIP3    H161786   4.532   3.689   0.895  1.4427 -0.1981 -0.4070
13457TIP3    H261787   4.413   3.596   0.883  1.0968  0.0312  1.0063
13458TIP3   OH261788   3.780   4.017   1.478 -0.2651 -0.1964 -0.4351
13458TIP3    H161789   3.755   4.107   1.461 -1.9637 -0.7156 -0.8071
13458TIP3    H261790   3.789   4.012   1.573  3.9305  1.3303 -0.5127
13459TIP3   OH261791   3.474   5.616   4.232  0.3525 -0.3807  0.1151
13459TIP3    H161792   3.470   5.711   4.219  2.0448 -0.6137 -3.1502
13459TIP3    H261793   3.393   5.594   4.277 -0.8009  2.4510 -0.3853
13460TIP3   OH261794   1.745   1.443  15.441  0.1321  0.3612  0.0108
13460TIP3    H161795   1.838   1.462  15.432  0.5536 -0.3368  2.3680
13460TIP3    H261796   1.701   1.525  15.418  1.2545  0.5710 -1.5807
13461TIP3   OH261797   6.091   2.072  17.057  0.0412  0.4566  0.1425
13461TIP3    H161798   6.081   2.165  17.039  3.3754  0.6820 -1.1990
13461TIP3    H261799   6.077   2.064  17.152 -0.5336  2.2420  0.2426
13462TIP3   OH261800   5.343   3.309  11.799 -0.4497  0.7632 -0.0648
13462TIP3    H161801   5.310   3.256  11.726  1.8564  0.2572 -0.8206
13462TIP3    H261802   5.321   3.399  11.776 -0.8384  0.4950 -0.7675
13463TIP3   OH261803   0.063   3.012   2.693  0.3321  0.1069  0.6150
13463TIP3    H161804   0.080   3.063   2.613  1.0137 -1.2443 -0.1280
13463TIP3    H261805   0.120   3.052   2.759 -0.8387  1.7675  0.6968
13464TIP3   OH261806   5.546   2.281  16.798  0.0156 -0.3918 -0.2289
13464TIP3    H161807   5.550   2.340  16.873  2.2329 -2.5035  1.5291
13464TIP3    H261808   5.481   2.215  16.823  0.3210 -0.7699 -0.4228
13465TIP3   OH261809   5.484   2.664  11.756 -0.3448 -0.4409 -0.0602
13465TIP3    H161810   5.465   2.596  11.691 -0.5875 -1.7670  1.3445
13465TIP3    H261811   5.401   2.676  11.803  0.2314 -0.6342  1.0238
13466TIP3   OH261812   6.355   3.101   3.052 -0.1973 -0.5492 -0.5162
13466TIP3    H161813   6.440   3.072   3.086 -1.0865 -0.8821  1.5473
13466TIP3    H261814   6.372   3.188   3.017  0.7606 -0.0876  0.9943
13467TIP3   OH261815   4.152   0.677   6.776  0.1810 -0.0652 -0.3791
13467TIP3    H161816   4.169   0.598   6.724 -0.3946 -0.8997  0.6690
13467TIP3    H261817   4.079   0.653   6.832  1.3140  0.5099  1.4267
13468TIP3   OH261818   5.671   4.147   0.652  0.3724  0.0463 -0.1663
13468TIP3    H161819   5.609   4.086   0.612 -0.3034  1.4418 -1.3428
13468TIP3    H261820   5.633   4.234   0.636  0.2087  0.7598  3.2300
13469TIP3   OH261821   4.871   5.723   2.560  0.8011  0.0254 -0.2933
13469TIP3    H161822   4.882   5.629   2.572  2.2454  0.2403  0.1557
13469TIP3    H261823   4.896   5.761   2.644  0.4103  0.8259 -0.5344
13470TIP3   OH261824   2.958   5.605   5.065  0.5947  0.2702  0.9261
13470TIP3    H161825   3.002   5.601   4.981  0.4433  0.0110  0.8572
13470TIP3    H261826   2.898   5.530   5.065  0.8280  0.0745  1.3942
13471TIP3   OH261827   4.657   6.247  12.966 -0.0783 -0.2648  0.0712
13471TIP3    H161828   4.639   6.316  12.902  1.4804 -0.5908 -0.7398
13471TIP3    H261829   4.693   6.294  13.042 -0.9633  0.0053  0.3433
13472TIP3   OH261830   1.054   0.795  15.874 -0.7040 -0.0611  0.3414
13472TIP3    H161831   1.036   0.834  15.960 -0.6824  0.1831  0.2347
13472TIP3    H261832   0.970   0.757  15.847 -0.4341 -1.1931  1.0012
13473TIP3   OH261833   5.564   4.806  12.666  0.2463  0.2404  0.5271
13473TIP3    H161834   5.557   4.804  12.762  1.7885  1.8136  0.7219
13473TIP3    H261835   5.563   4.714  12.640  0.6132 -0.2554  2.1385
13474TIP3   OH261836   6.654   3.654  16.332 -0.2983 -0.6889  0.5165
13474TIP3    H161837   6.639   3.678  16.424 -0.6504 -0.4557  0.3992
13474TIP3    H261838   6.588   3.588  16.313  0.1111 -1.1182  0.5807
13475TIP3   OH261839   5.495   4.950   3.663  0.1124 -0.4983  0.0860
13475TIP3    H161840   5.587   4.978   3.657  0.3602 -1.3567 -0.2488
13475TIP3    H261841   5.491   4.900   3.745 -0.4627  0.9533  0.9827
13476TIP3   OH261842   1.993   4.124  13.958  0.0261 -0.3286  0.2796
13476TIP3    H161843   2.060   4.098  13.895 -0.8757 -0.4361 -0.6560
13476TIP3    H261844   1.910   4.113  13.911 -0.6920 -0.6814  1.5758
13477TIP3   OH261845   2.061   0.301   0.690 -0.3105  0.0358 -0.1588
13477TIP3    H161846   2.107   0.366   0.636  2.5121 -1.6862 -0.0719
13477TIP3    H261847   2.125   0.277   0.757 -2.5895 -0.2169  2.0344
13478TIP3   OH261848   4.483   2.209  17.193  0.0196 -0.5624 -0.0012
13478TIP3    H161849   4.557   2.265  17.219 -1.3460  1.3667 -0.0039
13478TIP3    H261850   4.505   2.123  17.227  1.2408  0.4443  1.9554
13479TIP3   OH261851   5.346   3.126   2.201 -0.4326  0.1994 -0.3239
13479TIP3    H161852   5.329   3.039   2.164  1.8018 -0.0562 -0.9174
13479TIP3    H261853   5.385   3.175   2.128  0.0553  1.0847  0.5089
13480TIP3   OH261854   4.638   2.333  12.666  0.1817 -0.1893 -0.4258
13480TIP3    H161855   4.690   2.402  12.625 -1.3237  0.2345 -1.7132
13480TIP3    H261856   4.685   2.313  12.747  0.5358  2.5496  0.1499
13481TIP3   OH261857   1.328   0.514   3.103 -0.2809 -0.4007  0.4213
13481TIP3    H161858   1.351   0.522   3.010 -2.9996 -1.5164 -0.4603
13481TIP3    H261859   1.361   0.594   3.143  0.4955  0.3556 -1.6056
13482TIP3   OH261860   4.903   1.561  13.353  0.1363 -0.0555 -0.1113
13482TIP3    H161861   4.896   1.511  13.271  0.8757 -0.7332  0.2242
13482TIP3    H261862   4.955   1.505  13.410  0.0203  0.6225  0.6678
13483TIP3   OH261863   6.511   2.007   5.701  0.5570 -0.2242  0.0362
13483TIP3    H161864   6.554   2.072   5.647  1.4056 -0.0911  0.8417
13483TIP3    H261865   6.571   1.932   5.701  0.5384 -0.2449  0.7245
13484TIP3   OH261866   3.098   5.841  12.138  0.2856  0.3903  0.4539
13484TIP3    H161867   3.134   5.918  12.182  1.0120  0.3836 -0.0967
13484TIP3    H261868   3.171   5.808  12.084 -0.6594  0.6277 -1.0442
13485TIP3   OH261869   5.611   1.414  10.689 -0.0996 -0.1505 -0.7193
13485TIP3    H161870   5.552   1.478  10.729 -0.4806 -1.1216  0.3307
13485TIP3    H261871   5.654   1.461  10.618  0.2207  1.5004  0.5244
13486TIP3   OH261872   0.624   0.978  14.501 -0.3110 -0.1503  0.0811
13486TIP3    H161873   0.652   1.069  14.515  0.5456 -0.4159  0.1762
13486TIP3    H261874   0.532   0.977  14.527  0.0272  0.3926  1.3966
13487TIP3   OH261875   3.551   6.543   4.546  0.1655 -0.2000 -0.1607
13487TIP3    H161876   3.517   6.505   4.464 -1.1361 -0.1442  0.3288
13487TIP3    H261877   3.520   6.634   4.544  2.4341  0.6350 -0.8622
13488TIP3   OH261878   6.698   1.560   3.985 -0.3399  0.4583  0.0189
13488TIP3    H161879   6.618   1.515   4.013 -0.3072 -0.1633 -0.8497
13488TIP3    H261880   6.753   1.491   3.948  0.0447  1.0879 -0.6087
13489TIP3   OH261881   5.314   2.057   3.342 -0.9187  0.1452  0.2397
13489TIP3    H161882   5.408   2.052   3.355 -1.1830 -2.0840  1.9056
13489TIP3    H261883   5.299   2.011   3.259 -0.6936 -1.7276  1.1830
13490TIP3   OH261884   4.055   0.294  13.299  0.0956  0.2167  0.1113
13490TIP3    H161885   4.091   0.228  13.239 -2.3783  0.8774 -2.3346
13490TIP3    H261886   4.003   0.243  13.362  1.2151 -0.3686  0.5900
13491TIP3   OH261887   3.772   1.008  12.497  0.7313 -0.3995 -0.0431
13491TIP3    H161888   3.694   0.965  12.461 -1.0567  1.4564  1.4276
13491TIP3    H261889   3.767   1.098  12.465  2.2606 -0.2017  0.1771
13492TIP3   OH261890   0.428   0.670  12.286 -0.2384  0.2158 -0.2382
13492TIP3    H161891   0.383   0.590  12.259 -0.8391 -0.4125  2.2792
13492TIP3    H261892   0.516   0.640  12.309 -0.5316  0.1959  0.9238
13493TIP3   OH261893   2.086   5.976  15.835 -0.3805  0.1017  0.4012
13493TIP3    H161894   2.035   6.043  15.881  3.5647  1.2228  3.7172
13493TIP3    H261895   2.143   6.026  15.776  1.2063 -0.4072  1.4403
13494TIP3   OH261896   3.478   5.884   4.147 -0.1676 -0.7785  0.0289
13494TIP3    H161897   3.560   5.881   4.097  0.0970 -1.1895  0.4822
13494TIP3    H261898   3.447   5.974   4.137 -0.0358 -0.8048 -0.7374
13495TIP3   OH261899   5.160   1.161  12.675 -0.1208  0.5922  0.4951
13495TIP3    H161900   5.102   1.095  12.713  2.0913 -1.3667  0.7311
13495TIP3    H261901   5.161   1.141  12.582  2.3885 -1.4523  0.8328
13496TIP3   OH261902   2.807   4.276   2.059 -0.1124  0.6240  0.4156
13496TIP3    H161903   2.779   4.355   2.014  1.2956  0.2363 -1.2331
13496TIP3    H261904   2.751   4.207   2.023 -0.9678  0.7494  1.4521
13497TIP3   OH261905   4.068   1.092  14.338 -0.1171  0.1907  0.0041
13497TIP3    H161906   4.062   1.007  14.294  1.1495 -0.1269  0.4143
13497TIP3    H261907   3.981   1.130  14.327 -0.2374 -0.4453 -1.6186
13498TIP3   OH261908   0.282   1.067   4.822 -0.0047  0.0181 -0.4747
13498TIP3    H161909   0.318   0.979   4.811  0.2460  0.0416  0.0973
13498TIP3    H261910   0.241   1.066   4.908  0.5007  0.6189 -0.2130
13499TIP3   OH261911   3.506   1.487  12.221 -0.1241 -0.1273  0.4919
13499TIP3    H161912   3.476   1.399  12.197 -1.3173  0.1840  0.7875
13499TIP3    H261913   3.429   1.543  12.209  0.2843  0.6692  1.4682
13500TIP3   OH261914   4.197   0.212  13.673 -0.3801  0.0204  0.1308
13500TIP3    H161915   4.220   0.129  13.714 -1.0378  0.0844  0.6343
13500TIP3    H261916   4.216   0.199  13.580 -1.0748 -0.9025  0.1127
13501TIP3   OH261917   1.636   3.403  16.155 -0.3273 -0.1019 -0.6913
13501TIP3    H161918   1.608   3.421  16.245  0.6066  0.1106 -0.4405
13501TIP3    H261919   1.725   3.370  16.164  0.4707  1.6829 -1.6775
13502TIP3   OH261920   6.263   6.179  15.627  0.1462  0.2253 -0.2228
13502TIP3    H161921   6.204   6.247  15.660  1.4859  1.7710 -0.8074
13502TIP3    H261922   6.219   6.097  15.645 -0.3764  1.0737  3.0409
13503TIP3   OH261923   6.099   2.984  15.319  0.6549  0.4372 -0.6907
13503TIP3    H161924   6.115   2.890  15.320  2.0746  0.6652 -0.2261
13503TIP3    H261925   6.184   3.024  15.338  0.0892  1.8184 -0.9024
13504TIP3   OH261926   3.372   2.398  11.265 -0.1340 -0.0454  0.1117
13504TIP3    H161927   3.451   2.353  11.236 -1.3236 -2.4781  0.3257
13504TIP3    H261928   3.317   2.403  11.187  0.0960  1.4251  0.0150
13505TIP3   OH261929   5.159   1.566   2.460  0.2265 -0.6612 -0.0356
13505TIP3    H161930   5.085   1.547   2.402 -0.7159  1.8749  0.2011
13505TIP3    H261931   5.128   1.542   2.547 -0.6525  1.0305  0.1594
13506TIP3   OH261932   0.966   1.742  13.252  0.8251 -0.2653 -0.3022
13506TIP3    H161933   0.947   1.827  13.210  0.3913 -0.2433 -0.0631
13506TIP3    H261934   0.885   1.719  13.298  0.7609 -1.0758 -0.8122
13507TIP3   OH261935   4.579   4.657  12.584 -0.0232  0.0702  0.4499
13507TIP3    H161936   4.536   4.626  12.505 -1.0865  0.5531  0.8249
13507TIP3    H261937   4.585   4.580  12.640 -0.3407 -0.0098  0.3705
13508TIP3   OH261938   6.454   6.355   5.272  0.1050 -0.1628  0.4181
13508TIP3    H161939   6.542   6.360   5.309  0.6795 -0.1680 -0.9048
13508TIP3    H261940   6.418   6.443   5.284  0.7356  0.1722 -0.1021
13509TIP3   OH261941   3.621   6.625  15.610  0.0247  0.0260 -0.1502
13509TIP3    H161942   3.611   6.530  15.616  0.3200  0.0259  0.3721
13509TIP3    H261943   3.543   6.660  15.652  1.4261  0.0171  2.6440
13510TIP3   OH261944   4.120   5.367  12.975  0.3246 -0.1426  0.3679
13510TIP3    H161945   4.198   5.339  13.021 -0.9100 -0.6467  2.2909
13510TIP3    H261946   4.068   5.413  13.041 -0.8921  0.4166 -0.9080
13511TIP3   OH261947   3.777   0.510  17.012  0.2571  0.4794 -0.0199
13511TIP3    H161948   3.758   0.434  17.067  0.9154 -0.3614 -0.9137
13511TIP3    H261949   3.871   0.526  17.024 -0.0597  1.8014  0.9320
13512TIP3   OH261950   6.538   6.569  16.038 -0.3873 -0.5238 -0.8988
13512TIP3    H161951   6.453   6.591  16.077 -0.2605  0.3230 -1.0792
13512TIP3    H261952   6.598   6.564  16.112 -0.1903  0.8788 -0.9314
13513TIP3   OH261953   0.002   4.698  13.009 -0.0264 -0.5779  0.5462
13513TIP3    H161954   0.030   4.607  13.015  1.3502 -0.1192  1.8378
13513TIP3    H261955   0.083   4.746  12.991 -0.7414  0.3889 -0.1919
13514TIP3   OH261956   3.209   2.580   2.412  0.2098 -0.1593  0.0130
13514TIP3    H161957   3.225   2.547   2.501 -3.0217  0.1180  0.8216
13514TIP3    H261958   3.203   2.675   2.422  2.1846  0.1347 -1.0159
13515TIP3   OH261959   2.188   4.687   5.722  0.3767  0.1739  0.0172
13515TIP3    H161960   2.155   4.776   5.723 -1.1761 -0.3570 -0.4924
13515TIP3    H261961   2.257   4.688   5.655 -1.6901  0.3682 -2.2493
13516TIP3   OH261962   2.441   1.385  13.157 -0.6177  0.1418 -0.0235
13516TIP3    H161963   2.470   1.467  13.118  2.2393 -1.1423 -0.8836
13516TIP3    H261964   2.470   1.318  13.095  0.2823 -1.7132  2.2433
13517TIP3   OH261965   2.998   1.658   4.977  0.0184 -0.6948 -0.0180
13517TIP3    H161966   2.936   1.619   4.915  0.8421 -1.2604 -0.5159
13517TIP3    H261967   3.069   1.594   4.982  0.0425 -0.5790  1.3955
13518TIP3   OH261968   5.340   3.938   5.664 -0.2884 -0.1129 -0.4588
13518TIP3    H161969   5.345   4.033   5.670 -2.3600  0.0475 -0.5614
13518TIP3    H261970   5.364   3.907   5.751 -2.7126  0.7367  0.6227
13519TIP3   OH261971   3.520   4.451  15.741  0.3532 -0.3261 -0.0613
13519TIP3    H161972   3.606   4.417  15.768 -0.5466 -1.4458  1.5195
13519TIP3    H261973   3.513   4.536  15.784  0.3976 -0.5296  0.3514
13520TIP3   OH261974   5.380   3.383  10.756  0.4867  0.0715  0.1922
13520TIP3    H161975   5.374   3.323  10.681 -1.6116  0.8586 -0.3644
13520TIP3    H261976   5.294   3.378  10.797  1.8205 -0.9138  3.0900
13521TIP3   OH261977   6.220   5.807   3.600 -0.2795 -0.1741 -0.3082
13521TIP3    H161978   6.311   5.824   3.574 -0.3882  0.8350 -0.0643
13521TIP3    H261979   6.185   5.753   3.529  0.1696  0.4243 -1.0004
13522TIP3   OH261980   1.795   5.267   5.337  0.0335 -0.3909  0.1772
13522TIP3    H161981   1.741   5.275   5.258 -0.2140 -3.1523 -0.0093
13522TIP3    H261982   1.737   5.230   5.403  1.2016 -1.7766  0.4854
13523TIP3   OH261983   3.387   6.767  14.091 -0.3784 -0.3265 -0.3300
13523TIP3    H161984   3.455   6.704  14.113  0.0140  0.1617 -0.1283
13523TIP3    H261985   3.329   6.720  14.031  0.6012 -0.4671 -1.1758
13524TIP3   OH261986   0.814   4.979   4.597 -0.1546 -0.8040 -0.3765
13524TIP3    H161987   0.823   4.886   4.617 -1.7873 -0.8574  0.1952
13524TIP3    H261988   0.768   4.981   4.513  0.6732 -0.4914 -0.8433
13525TIP3   OH261989   2.319   3.721   0.605  0.1079 -0.8117  0.3856
13525TIP3    H161990   2.297   3.743   0.514  2.1562 -0.8883 -0.1746
13525TIP3    H261991   2.280   3.635   0.618 -2.3945  0.2534  0.4678
13526TIP3   OH261992   3.285   5.676   5.604  0.7664 -0.1027  0.2111
13526TIP3    H161993   3.289   5.687   5.509 -0.3927  1.7072  0.3153
13526TIP3    H261994   3.202   5.631   5.619 -0.2518  1.7179  0.4319
13527TIP3   OH261995   1.957   0.143   6.241 -0.2598  0.4675  0.0295
13527TIP3    H161996   1.978   0.199   6.316  1.2213  0.4523 -0.3546
13527TIP3    H261997   1.861   0.137   6.242 -0.4888  3.0696  0.0211
13528TIP3   OH261998   4.161   0.493   5.719 -0.1952 -0.0460  0.1979
13528TIP3    H161999   4.163   0.409   5.671 -1.2002 -0.0870  0.2003
13528TIP3    H262000   4.191   0.557   5.655  0.4426 -0.3843  0.1484
13529TIP3   OH262001   4.137   4.178   3.507 -0.1950  0.5088 -0.0712
13529TIP3    H162002   4.117   4.185   3.601 -0.1488 -0.1034 -0.0119
13529TIP3    H262003   4.216   4.230   3.496  0.9241 -0.9607  0.6097
13530TIP3   OH262004   4.875   1.114  15.333 -0.4599  0.4386  0.7616
13530TIP3    H162005   4.810   1.149  15.272  1.2655  0.3633 -1.2118
13530TIP3    H262006   4.864   1.169  15.411 -2.0177  1.2590  0.0343
13531TIP3   OH262007   2.757   4.593   6.465  0.4898 -1.2582 -0.3465
13531TIP3    H162008   2.726   4.539   6.393 -1.6129  2.3916 -2.4578
13531TIP3    H262009   2.849   4.610   6.444  0.0588 -0.7161 -1.9137
13532TIP3   OH262010   4.957   1.221  13.932 -0.1799  0.0720 -0.0865
13532TIP3    H162011   4.952   1.309  13.968 -0.0154  0.5486 -1.1859
13532TIP3    H262012   4.939   1.232  13.839 -1.8610 -1.2964  0.0306
13533TIP3   OH262013   0.041   1.456  14.499 -0.5905 -0.2677 -0.0995
13533TIP3    H162014  -0.046   1.483  14.470 -0.7656 -1.4793 -0.7790
13533TIP3    H262015   0.031   1.440  14.592 -0.6427  1.3058  0.1838
13534TIP3   OH262016   2.241   3.829   2.579  0.2999  0.0323  0.5111
13534TIP3    H162017   2.261   3.738   2.558  0.1166 -0.4300  2.2029
13534TIP3    H262018   2.151   3.827   2.613  0.1907  0.8812  0.2951
13535TIP3   OH262019   3.516   4.615   0.482  0.6590  0.5019  0.2191
13535TIP3    H162020   3.481   4.685   0.537  2.2119  1.7537 -0.3295
13535TIP3    H262021   3.527   4.654   0.396  2.3457 -0.1466  0.1012
13536TIP3   OH262022   3.225   5.570   1.534  0.0386 -0.3562  0.5341
13536TIP3    H162023   3.253   5.548   1.445  1.7187 -0.2224  0.9799
13536TIP3    H262024   3.220   5.485   1.579 -0.8396 -0.4264  0.3159
13537TIP3   OH262025   0.491   5.973   0.246 -0.3536  0.0970 -0.1075
13537TIP3    H162026   0.559   6.000   0.308 -0.7141  3.6916 -1.0487
13537TIP3    H262027   0.411   5.967   0.298 -0.0652 -0.1762  0.3128
13538TIP3   OH262028   2.028   2.020  15.242 -0.2829 -0.3039 -0.3918
13538TIP3    H162029   1.976   1.967  15.302 -2.1421  0.0099 -1.6632
13538TIP3    H262030   2.061   2.092  15.296  1.1236 -1.9360  1.0327
13539TIP3   OH262031   6.764   3.446  11.352  0.2866 -0.0127  0.3825
13539TIP3    H162032   6.770   3.438  11.257 -3.1415 -1.1304  0.1236
13539TIP3    H262033   6.770   3.540  11.368 -1.6657  0.4625 -1.2762
13540TIP3   OH262034   5.791   0.829   2.139 -0.3476  0.0704 -0.3348
13540TIP3    H162035   5.873   0.869   2.111  0.0443  0.2536  1.0114
13540TIP3    H262036   5.799   0.821   2.234 -1.5102 -0.7682 -0.2825
13541TIP3   OH262037   2.574   6.251   0.294  0.4975  0.5711 -0.1895
13541TIP3    H162038   2.481   6.262   0.315  0.6963  0.5168  0.7145
13541TIP3    H262039   2.613   6.337   0.310  0.3942  0.9348 -1.7359
13542TIP3   OH262040   1.713   1.983  13.817  0.3472 -0.0509 -0.6454
13542TIP3    H162041   1.793   2.034  13.810  0.4281  0.1508  1.2148
13542TIP3    H262042   1.712   1.953  13.908 -1.2489 -0.7875 -0.8739
13543TIP3   OH262043   2.552   5.341   1.537  0.6777  0.2767 -0.0994
13543TIP3    H162044   2.514   5.333   1.450  1.2067  1.1937 -0.4280
13543TIP3    H262045   2.571   5.434   1.546 -1.5835  0.6380  1.9411
13544TIP3   OH262046   3.536   3.998   0.853 -0.8320 -0.6362 -0.4153
13544TIP3    H162047   3.602   3.961   0.911 -1.9523 -0.6678  0.8845
13544TIP3    H262048   3.575   4.080   0.822 -1.0334  0.5615  2.2040
13545TIP3   OH262049   6.427   0.059  11.292  0.1442  0.4065 -0.2791
13545TIP3    H162050   6.428   0.153  11.308  2.0732  0.5499 -0.9624
13545TIP3    H262051   6.513   0.040  11.257  0.0352 -1.7533  0.4793
13546TIP3   OH262052   2.190   1.343  13.265  0.0091  0.2252 -0.1410
13546TIP3    H162053   2.263   1.356  13.204 -1.5533  0.7750 -1.9659
13546TIP3    H262054   2.203   1.411  13.332  0.8030  0.7427 -0.7962
13547TIP3   OH262055   4.921   2.077  13.180 -0.0366 -0.5238  0.2051
13547TIP3    H162056   4.953   2.093  13.091 -0.9338  2.5609  0.3281
13547TIP3    H262057   4.829   2.102  13.177  0.1809  0.7396  2.2084
13548TIP3   OH262058   4.791   4.110   5.579 -0.4440 -0.9054 -0.6292
13548TIP3    H162059   4.754   4.079   5.661 -0.4714 -0.3431 -0.4243
13548TIP3    H262060   4.875   4.063   5.571 -0.6041 -1.2212 -0.4574
13549TIP3   OH262061   3.914   6.581   1.935 -0.1215  0.3523  0.0648
13549TIP3    H162062   3.996   6.540   1.909 -0.7476 -0.2844 -1.0026
13549TIP3    H262063   3.867   6.595   1.853 -0.5303  1.9399  0.5314
13550TIP3   OH262064   0.089   0.176  12.204 -0.1339  0.1535  0.2258
13550TIP3    H162065   0.047   0.098  12.168 -1.3046  0.6542  0.4773
13550TIP3    H262066   0.177   0.176  12.165  0.2506 -1.8111  0.9904
13551TIP3   OH262067   2.473   1.490   2.275 -0.1042 -0.2198  0.4565
13551TIP3    H162068   2.548   1.537   2.239 -1.1302  0.7268 -0.5728
13551TIP3    H262069   2.463   1.525   2.363  0.4954 -0.1490  0.5011
13552TIP3   OH262070   3.134   1.316   1.983 -0.4489 -0.4139  0.2683
13552TIP3    H162071   3.203   1.361   1.934 -1.4121 -0.2294 -0.9726
13552TIP3    H262072   3.081   1.273   1.915 -1.8147 -0.1609  1.1422
13553TIP3   OH262073   5.818   2.846   3.138  0.4914 -0.2269 -0.1648
13553TIP3    H162074   5.815   2.889   3.053 -0.1511 -0.4829 -0.2773
13553TIP3    H262075   5.886   2.778   3.129  0.3463 -0.3264 -0.5089
13554TIP3   OH262076   0.635   4.929   3.121 -0.4676  0.0122 -0.0360
13554TIP3    H162077   0.643   4.982   3.200  0.5238  0.8189 -0.6446
13554TIP3    H262078   0.717   4.944   3.074 -1.4749  0.4395 -1.7562
13555TIP3   OH262079   6.598   3.173  17.193 -0.1561  0.1552 -0.1556
13555TIP3    H162080   6.671   3.234  17.202  0.5042 -0.8162  1.4003
13555TIP3    H262081   6.548   3.207  17.118  1.5765  1.1359 -0.9328
13556TIP3   OH262082   6.113   5.908   1.126 -0.2190  0.4344  0.4545
13556TIP3    H162083   6.182   5.952   1.076  1.6604 -1.4094  1.2596
13556TIP3    H262084   6.121   5.945   1.215 -1.2382  1.2175  0.2339
13557TIP3   OH262085   4.918   0.048  14.273 -0.1531  0.8422  0.3135
13557TIP3    H162086   4.998   0.081  14.232  1.6403 -3.1625  0.1389
13557TIP3    H262087   4.927   0.071  14.366  1.5211  0.0285  0.3810
13558TIP3   OH262088   1.828   5.178   2.625  0.4664  0.3043 -0.0501
13558TIP3    H162089   1.818   5.105   2.686 -0.9306  1.1743  0.8029
13558TIP3    H262090   1.910   5.219   2.650  0.1848  0.3174  0.9051
13559TIP3   OH262091   5.095   6.298  10.655 -0.1260  0.4718  0.4571
13559TIP3    H162092   5.162   6.361  10.681  0.3290 -0.5439  1.9100
13559TIP3    H262093   5.014   6.333  10.692  0.1374  0.2068  1.3238
13560TIP3   OH262094   3.778   5.904  15.479  0.1941  0.2275 -0.4315
13560TIP3    H162095   3.686   5.907  15.455  0.1463  1.4522 -0.1329
13560TIP3    H262096   3.816   5.838  15.421 -0.4548  1.1754 -1.9798
13561TIP3   OH262097   0.712   2.963  17.219 -0.3856 -0.1194 -0.1268
13561TIP3    H162098   0.803   2.976  17.247 -0.1091 -0.1656 -0.9687
13561TIP3    H262099   0.718   2.948  17.125 -1.3472  0.8259 -0.3598
13562TIP3   OH262100   3.088   5.819  12.823  0.0967 -0.3370 -0.1903
13562TIP3    H162101   3.036   5.840  12.901  0.4533  1.9156 -0.4694
13562TIP3    H262102   3.049   5.739  12.788 -3.9010  1.6489 -0.8819
13563TIP3   OH262103   6.690   0.204  15.606  1.1787 -0.4657 -0.4894
13563TIP3    H162104   6.672   0.258  15.683  0.3446 -1.6454  0.1875
13563TIP3    H262105   6.683   0.264  15.532 -0.0097  0.2977  0.2052
13564TIP3   OH262106   5.867   0.287   0.125  0.1021  0.5390  0.3541
13564TIP3    H162107   5.901   0.227   0.059 -1.0300  1.3173 -1.0038
13564TIP3    H262108   5.944   0.318   0.172  0.9012 -0.2939 -0.3698
13565TIP3   OH262109   3.213   4.641  13.474  0.2910 -0.1312 -0.3115
13565TIP3    H162110   3.248   4.598  13.397 -1.5909 -1.7838 -0.3311
13565TIP3    H262111   3.199   4.571  13.538  0.9197  1.0586  1.2056
13566TIP3   OH262112   4.335   1.449   5.289  0.4621 -0.2611  0.0927
13566TIP3    H162113   4.282   1.529   5.291  1.9530  0.7879 -0.1621
13566TIP3    H262114   4.425   1.480   5.300  1.0476 -1.9625  0.4221
13567TIP3   OH262115   2.654   4.054   1.996  0.1343 -0.1872 -0.4053
13567TIP3    H162116   2.563   4.042   1.971  0.0548 -0.5262  0.0369
13567TIP3    H262117   2.676   3.975   2.046  0.4010  0.2966  0.2591
13568TIP3   OH262118   4.965   4.726   4.331  0.0768 -0.0364 -0.4870
13568TIP3    H162119   5.003   4.694   4.249  0.5325 -0.1272 -0.2437
13568TIP3    H262120   4.913   4.803   4.305  0.2762 -0.0226 -0.8483
13569TIP3   OH262121   0.709   0.728  14.434 -0.3927  0.1691  0.1239
13569TIP3    H162122   0.698   0.729  14.339 -1.7531  0.2763  0.2752
13569TIP3    H262123   0.653   0.799  14.466 -1.7047 -1.2922  1.1720
13570TIP3   OH262124   2.678   1.298   5.194 -0.9443 -0.0819 -0.3108
13570TIP3    H162125   2.736   1.374   5.199  1.3984 -1.7779 -0.2144
13570TIP3    H262126   2.719   1.232   5.249 -2.8238 -1.5147 -0.5097
13571TIP3   OH262127   6.531   3.067  15.617  0.5859 -0.4348  0.4641
13571TIP3    H162128   6.553   3.034  15.704  1.2236 -0.7614  0.1901
13571TIP3    H262129   6.460   3.129  15.631  0.9993 -0.1392  1.2704
13572TIP3   OH262130   4.607   1.283  13.445 -0.0240  0.6128 -0.6443
13572TIP3    H162131   4.654   1.309  13.524 -0.1336  0.0388 -0.3913
13572TIP3    H262132   4.530   1.236  13.476  0.4441 -0.4799 -1.1141
13573TIP3   OH262133   5.839   3.744  12.611  0.7090  0.5013  0.8405
13573TIP3    H162134   5.757   3.754  12.562  0.3319 -1.5367  0.9626
13573TIP3    H262135   5.892   3.819  12.584 -0.3729  0.6963 -0.9164
13574TIP3   OH262136   3.018   6.462   3.816 -0.1230  0.0010 -0.0927
13574TIP3    H162137   3.090   6.519   3.844 -0.7236  1.5693 -1.6136
13574TIP3    H262138   2.941   6.497   3.861 -0.4019  0.0622 -0.6093
13575TIP3   OH262139   2.393   2.018  14.928  0.4565 -0.3986 -0.2177
13575TIP3    H162140   2.382   1.965  15.007  0.9612 -1.3436 -0.7591
13575TIP3    H262141   2.316   2.075  14.925  0.1750 -0.7261  0.6654
13576TIP3   OH262142   0.609   1.401  12.839  0.3536 -0.2875 -0.0543
13576TIP3    H162143   0.576   1.330  12.785  1.4001 -0.4967 -0.4521
13576TIP3    H262144   0.672   1.359  12.898  0.0335  0.1122  0.5822
13577TIP3   OH262145   4.137   0.481  15.044  0.3405  0.4026  0.0187
13577TIP3    H162146   4.046   0.509  15.043  0.0354 -0.4224  1.7463
13577TIP3    H262147   4.173   0.513  14.961 -1.4284  0.9887 -0.5558
13578TIP3   OH262148   3.171   4.821  15.920 -0.2423 -0.0719 -0.0875
13578TIP3    H162149   3.121   4.780  15.990  0.0805  0.5600  0.5314
13578TIP3    H262150   3.194   4.907  15.955  1.7950 -0.5640 -0.1081
13579TIP3   OH262151   6.738   2.266   3.848 -0.5086 -0.2983  0.4530
13579TIP3    H162152   6.709   2.356   3.865  0.2454 -0.2548  1.5822
13579TIP3    H262153   6.826   2.275   3.812 -1.0010 -0.5390 -0.8847
13580TIP3   OH262154   3.834   0.405  14.272 -0.0146 -0.1563  0.0579
13580TIP3    H162155   3.820   0.453  14.190 -0.5336  0.2501  0.3791
13580TIP3    H262156   3.824   0.471  14.341 -1.0494 -0.7700  0.5206
13581TIP3   OH262157   5.426   5.859  13.362  0.1214  0.4700 -0.2250
13581TIP3    H162158   5.356   5.800  13.388  0.5726  0.9630  2.4258
13581TIP3    H262159   5.388   5.913  13.293 -3.4527  3.0495  3.2956
13582TIP3   OH262160   2.761   2.010   2.336 -0.0501  0.2404 -0.0456
13582TIP3    H162161   2.749   1.956   2.414  2.7108 -1.3839 -0.6263
13582TIP3    H262162   2.730   1.956   2.264  0.0719  0.5782 -0.3561
13583TIP3   OH262163   4.533   4.818   3.114  0.1407  0.2490  0.2435
13583TIP3    H162164   4.565   4.818   3.024 -0.7091  1.2425 -0.0867
13583TIP3    H262165   4.442   4.848   3.107  0.7088  2.6372  1.6175
13584TIP3   OH262166   0.927   1.608  15.759  0.4462 -0.5335 -0.3921
13584TIP3    H162167   0.962   1.545  15.695  0.2533 -0.4405 -0.5894
13584TIP3    H262168   0.832   1.608  15.744  0.5018  0.2207 -0.7735
13585TIP3   OH262169   0.043   0.580   4.002  0.3306  0.3016 -0.2402
13585TIP3    H162170   0.021   0.499   4.049  0.1426  0.5037  0.0195
13585TIP3    H262171   0.027   0.559   3.910  2.2079 -0.6251 -0.4188
13586TIP3   OH262172   3.319   0.272  17.180 -0.0740 -0.0211  0.6333
13586TIP3    H162173   3.240   0.303  17.137  0.5458  0.4689 -0.1909
13586TIP3    H262174   3.363   0.219  17.113  0.0497 -0.7051  1.2477
13587TIP3   OH262175   3.741   2.196  15.621  0.3143 -0.0707 -0.1546
13587TIP3    H162176   3.722   2.219  15.530 -1.5209  0.2403  0.2624
13587TIP3    H262177   3.722   2.102  15.626 -2.3825  0.4169  0.4867
13588TIP3   OH262178   2.304   3.158   4.273 -0.3177  0.2021  0.1248
13588TIP3    H162179   2.248   3.234   4.286  1.1296  1.5355 -0.9857
13588TIP3    H262180   2.384   3.179   4.322 -0.0344 -0.7786  0.1065
13589TIP3   OH262181   1.749   2.784   3.232 -0.3023 -0.2039 -0.3995
13589TIP3    H162182   1.778   2.720   3.297 -0.4249 -0.1896 -0.3317
13589TIP3    H262183   1.759   2.739   3.148  2.0866  0.5459 -0.5972
13590TIP3   OH262184   2.110   3.627   4.912 -0.7108 -0.0752  0.2997
13590TIP3    H162185   2.091   3.608   5.004 -0.9845 -0.9708  0.0727
13590TIP3    H262186   2.173   3.699   4.914 -0.8054 -0.0085  1.1816
13591TIP3   OH262187   2.245   5.417  12.625  0.1728 -0.7196 -0.1227
13591TIP3    H162188   2.289   5.493  12.586  1.0193 -1.7956 -1.3323
13591TIP3    H262189   2.160   5.413  12.581  0.1735 -0.5460 -0.1408
13592TIP3   OH262190   4.571   0.437   2.680 -0.2040  0.6346  0.0184
13592TIP3    H162191   4.589   0.381   2.756  1.8760  0.4483 -0.5393
13592TIP3    H262192   4.528   0.379   2.618  1.2706 -0.2212 -0.2645
13593TIP3   OH262193   5.644   5.642  10.868 -0.2629  0.1919 -0.2775
13593TIP3    H162194   5.644   5.727  10.912 -1.1584 -0.1606  0.4489
13593TIP3    H262195   5.723   5.599  10.900 -0.3039  0.3944  0.1112
13594TIP3   OH262196   1.095   2.519   2.732  0.2193  0.6570  0.3875
13594TIP3    H162197   1.099   2.528   2.637 -1.1273 -2.4293 -0.0533
13594TIP3    H262198   1.174   2.564   2.763  0.8391  1.5147 -2.1597
13595TIP3   OH262199   4.801   0.180   1.121 -0.1317 -0.2615  0.2887
13595TIP3    H162200   4.792   0.246   1.052 -0.2780  1.3431  1.7797
13595TIP3    H262201   4.733   0.116   1.101 -1.1008  0.8942 -0.2900
13596TIP3   OH262202   5.343   1.300   4.835 -0.2046 -0.1402 -0.1213
13596TIP3    H162203   5.429   1.341   4.836 -0.9535  1.5017 -0.5033
13596TIP3    H262204   5.350   1.228   4.772  1.2685 -0.9860  0.9352
13597TIP3   OH262205   1.097   3.174  16.741 -0.3512 -0.1963 -0.5117
13597TIP3    H162206   1.130   3.106  16.799 -0.5834 -0.1138 -0.2834
13597TIP3    H262207   1.003   3.177  16.757 -0.7851 -1.6187 -2.3956
13598TIP3   OH262208   6.081   5.485  16.157 -0.2659  0.1733 -0.2519
13598TIP3    H162209   6.020   5.534  16.102  0.6417  0.7429 -0.7738
13598TIP3    H262210   6.103   5.408  16.105  1.0886  1.0324 -0.9865
13599TIP3   OH262211   0.597   3.886  12.149 -0.2742 -0.2209 -0.1842
13599TIP3    H162212   0.653   3.940  12.093 -0.1026  1.6248  1.6654
13599TIP3    H262213   0.508   3.905  12.119 -0.1481  0.1379 -0.3328
13600TIP3   OH262214   5.456   5.084   5.122 -0.5343  0.6033  0.5621
13600TIP3    H162215   5.501   5.154   5.170 -0.2469 -0.0285  1.2266
13600TIP3    H262216   5.528   5.031   5.086 -0.6773  1.8984 -1.9017
13601TIP3   OH262217   3.019   1.812   2.332 -0.0033  0.0022  0.0850
13601TIP3    H162218   2.989   1.740   2.387 -0.7830  1.1761  1.2585
13601TIP3    H262219   2.942   1.836   2.281  0.5660 -0.7155 -1.1735
13602TIP3   OH262220   4.424   2.252   2.051  0.2193  0.2969 -0.3301
13602TIP3    H162221   4.486   2.224   1.984 -2.1662 -1.1052 -2.1167
13602TIP3    H262222   4.368   2.317   2.008 -0.8943 -0.0535  0.5071
13603TIP3   OH262223   2.557   2.584   4.509 -0.2228  0.1624 -0.3927
13603TIP3    H162224   2.505   2.510   4.541  1.9986 -0.7277  1.4523
13603TIP3    H262225   2.641   2.546   4.484  0.6930  1.9458 -0.2327
13604TIP3   OH262226   2.695   4.465  14.609 -0.2663  0.2516  0.3109
13604TIP3    H162227   2.649   4.462  14.693 -0.5694 -0.1159  0.1360
13604TIP3    H262228   2.668   4.384  14.565  0.7699 -0.1227  0.3238
13605TIP3   OH262229   5.487   5.562   5.738  0.1176 -0.2720  0.5796
13605TIP3    H162230   5.399   5.552   5.774 -0.2201 -1.2090 -0.4681
13605TIP3    H262231   5.545   5.548   5.813 -0.5877 -1.2514  0.9632
13606TIP3   OH262232   2.846   1.471   4.808  0.3906  0.0656  0.2208
13606TIP3    H162233   2.906   1.430   4.871  0.2320 -1.4816 -0.5851
13606TIP3    H262234   2.792   1.399   4.776  0.1111  0.9065 -1.2947
13607TIP3   OH262235   5.076   4.531  17.164 -0.1815 -0.1728 -0.2253
13607TIP3    H162236   5.114   4.590  17.229 -0.0703 -2.2206  1.6837
13607TIP3    H262237   5.036   4.589  17.099 -0.3861  1.9813  1.7103
13608TIP3   OH262238   0.632   3.469   2.675 -0.1969 -0.3871  0.6392
13608TIP3    H162239   0.549   3.478   2.630  0.5057 -0.5535 -0.7386
13608TIP3    H262240   0.609   3.435   2.762 -1.7419  1.9043  1.1994
13609TIP3   OH262241   6.077   6.522  14.331  0.5533  0.5270 -0.4123
13609TIP3    H162242   6.131   6.550  14.257 -0.8954  1.8076 -1.0516
13609TIP3    H262243   6.098   6.584  14.401 -0.6234  1.5648 -0.9306
13610TIP3   OH262244   6.318   4.309  15.840 -0.1368  0.6541 -1.1746
13610TIP3    H162245   6.301   4.324  15.747  0.2046  0.7295 -1.2255
13610TIP3    H262246   6.235   4.275  15.875 -0.2509  0.5844 -1.5144
13611TIP3   OH262247   1.601   5.904   0.444  0.0081  0.1335 -0.0635
13611TIP3    H162248   1.538   5.887   0.373 -0.6705 -0.1103  0.5911
13611TIP3    H262249   1.553   5.957   0.507  0.1118 -0.9305  0.9534
13612TIP3   OH262250   0.131   2.624  12.471 -0.5045 -0.3354 -0.2730
13612TIP3    H162251   0.156   2.540  12.509 -0.4838 -0.4667 -0.5731
13612TIP3    H262252   0.215   2.667  12.450 -0.3786  1.0554  2.6012
13613TIP3   OH262253   6.153   4.604   5.409 -0.6555 -1.0245  0.2848
13613TIP3    H162254   6.170   4.510   5.398 -0.8918 -0.9750 -0.5846
13613TIP3    H262255   6.073   4.607   5.461  0.0979 -1.2849  1.4876
13614TIP3   OH262256   0.890   3.539   1.818 -0.1343  0.2862 -0.5337
13614TIP3    H162257   0.798   3.531   1.794 -0.2759  2.9608 -1.2444
13614TIP3    H262258   0.912   3.631   1.799  1.7538  0.7131  2.9104
13615TIP3   OH262259   6.204   0.125   0.286 -0.5617 -0.6606  0.3701
13615TIP3    H162260   6.237   0.112   0.375 -0.8660 -0.5323  0.5048
13615TIP3    H262261   6.186   0.219   0.281  0.9809 -0.3780 -0.3675
13616TIP3   OH262262   0.403   5.550  16.495 -0.3318 -0.1722  0.3103
13616TIP3    H162263   0.341   5.486  16.528  0.3539 -1.0214  0.0002
13616TIP3    H262264   0.358   5.634  16.504 -1.3748 -0.7241  0.4131
13617TIP3   OH262265   5.795   1.773   4.255  0.1120  0.4539  0.0874
13617TIP3    H162266   5.749   1.813   4.182 -0.5713  0.5453  0.5623
13617TIP3    H262267   5.871   1.730   4.215  0.0207  0.9282 -0.6065
13618TIP3   OH262268   1.434   2.610   1.749 -0.1678 -0.0111  0.1855
13618TIP3    H162269   1.365   2.609   1.815  0.6199 -1.1571  1.0352
13618TIP3    H262270   1.496   2.677   1.778 -0.7239  0.7725 -0.3923
13619TIP3   OH262271   1.622   1.685  15.428  0.1056 -0.4529  0.5117
13619TIP3    H162272   1.670   1.742  15.488  0.5255 -1.2600  0.9601
13619TIP3    H262273   1.633   1.725  15.342  1.1831 -0.3521  0.6841
13620TIP3   OH262274   4.263   1.455   0.282 -0.3087 -0.4292 -0.3312
13620TIP3    H162275   4.348   1.496   0.265  0.5242 -1.5354  1.0019
13620TIP3    H262276   4.239   1.415   0.199  0.1442  0.4643 -0.9106
13621TIP3   OH262277   3.826   0.151  10.843  0.6912 -0.9512  0.4228
13621TIP3    H162278   3.788   0.144  10.756  0.6912 -3.0488  0.5211
13621TIP3    H262279   3.887   0.077  10.848  0.5260 -1.0082  2.2519
13622TIP3   OH262280   6.108   3.880  11.389  0.4740 -0.1480  0.5401
13622TIP3    H162281   6.050   3.942  11.345  1.2288  1.0866  1.2378
13622TIP3    H262282   6.055   3.801  11.399 -0.9167  0.7621  0.6460
13623TIP3   OH262283   6.452   2.282  12.436  0.1386 -0.0848  0.1190
13623TIP3    H162284   6.477   2.194  12.466 -1.1873 -0.2534  0.7774
13623TIP3    H262285   6.357   2.282  12.437  0.0814  0.7929 -1.6152
13624TIP3   OH262286   4.030   2.913  17.095 -0.1350 -0.5317  0.5966
13624TIP3    H162287   3.945   2.906  17.137 -0.8277 -0.9606 -0.8235
13624TIP3    H262288   4.023   2.859  17.017  1.2500 -0.1124  0.1526
13625TIP3   OH262289   1.200   3.744   3.053  0.1662 -0.2585 -0.3143
13625TIP3    H162290   1.116   3.754   3.007 -0.8555  0.3698  1.5409
13625TIP3    H262291   1.245   3.827   3.038  0.8229 -0.8520 -1.8921
13626TIP3   OH262292   3.563   6.570  15.184 -0.1031  0.2749 -0.3900
13626TIP3    H162293   3.485   6.624  15.190 -0.6210 -0.2051 -2.1982
13626TIP3    H262294   3.552   6.521  15.102  2.4832  0.8840 -1.2056
13627TIP3   OH262295   3.337   1.242  11.827  0.0105 -0.2020 -0.0992
13627TIP3    H162296   3.261   1.185  11.819  0.2880 -0.6159  0.1590
13627TIP3    H262297   3.323   1.311  11.761 -0.7138 -0.1190  0.1400
13628TIP3   OH262298   6.741   5.788  12.879  0.1107  0.2997 -0.3601
13628TIP3    H162299   6.738   5.834  12.795  1.0277 -0.0692 -0.6064
13628TIP3    H262300   6.712   5.853  12.943 -0.5863  0.5869 -0.9552
13629TIP3   OH262301   3.077   1.285  13.073  0.7467 -0.2721 -0.1290
13629TIP3    H162302   3.091   1.303  12.980 -0.2025  1.5874  0.0559
13629TIP3    H262303   2.989   1.249  13.078  0.1055  1.2695  0.2032
13630TIP3   OH262304   6.422   1.137  14.227 -1.0684  0.6332  0.0574
13630TIP3    H162305   6.380   1.076  14.167  0.7281 -1.2354  0.5837
13630TIP3    H262306   6.427   1.219  14.178 -1.7705 -0.1900 -1.4484
13631TIP3   OH262307   5.876   2.643   5.465 -0.4601 -0.0095  0.0123
13631TIP3    H162308   5.801   2.661   5.408 -1.4483 -1.8017  0.6379
13631TIP3    H262309   5.870   2.708   5.535  0.3442  1.7493 -1.4687
13632TIP3   OH262310   2.451   6.157   2.082  0.4306 -0.4255  0.3592
13632TIP3    H162311   2.530   6.109   2.057 -0.4360 -3.2661  2.6192
13632TIP3    H262312   2.446   6.148   2.177 -2.2837  0.1778  0.3612
13633TIP3   OH262313   1.458   2.124   6.447  0.3010 -0.0671 -0.0518
13633TIP3    H162314   1.536   2.166   6.482  2.1020 -4.3036  1.6324
13633TIP3    H262315   1.486   2.088   6.363 -0.3761 -0.2120 -0.2247
13634TIP3   OH262316   4.242   3.817  14.830 -0.7472  0.4699  0.6170
13634TIP3    H162317   4.229   3.896  14.779  0.7804  0.8818  0.8030
13634TIP3    H262318   4.250   3.747  14.765 -1.9966  0.4691  0.4490
13635TIP3   OH262319   0.373   2.359  14.044  0.2582 -0.5435 -0.2303
13635TIP3    H162320   0.330   2.364  13.959  1.3678 -0.6282 -0.8109
13635TIP3    H262321   0.333   2.429  14.095  0.5837  0.4556 -1.3013
13636TIP3   OH262322   5.590   0.238  14.588 -0.0908  0.8431  0.0537
13636TIP3    H162323   5.618   0.302  14.654  1.4075  0.8390 -0.5289
13636TIP3    H262324   5.554   0.166  14.639  0.7972  0.9513  0.8644
13637TIP3   OH262325   1.675   3.610  12.711 -0.6439 -0.0555 -0.3010
13637TIP3    H162326   1.653   3.694  12.670  3.0878  1.6376  0.7770
13637TIP3    H262327   1.766   3.594  12.687  0.5026 -0.9810  3.8415
13638TIP3   OH262328   6.690   4.620  17.059 -0.4187  0.0667 -0.1056
13638TIP3    H162329   6.782   4.602  17.079 -0.1745  0.5379 -0.7784
13638TIP3    H262330   6.673   4.704  17.102 -0.5527 -0.0452  0.0629
13639TIP3   OH262331   2.264   4.904   4.635  0.1929  0.4233  0.2363
13639TIP3    H162332   2.216   4.969   4.585  0.7831  1.1064  0.5352
13639TIP3    H262333   2.198   4.857   4.685 -0.6437 -1.4056 -2.3633
13640TIP3   OH262334   3.479   3.503  16.356  0.2144 -0.7840  0.1383
13640TIP3    H162335   3.432   3.525  16.276 -0.4700  0.2853  0.8041
13640TIP3    H262336   3.564   3.547  16.346 -0.3838  0.5337  0.5647
13641TIP3   OH262337   5.680   3.176   3.596 -0.0509  0.3756  0.5133
13641TIP3    H162338   5.592   3.161   3.561  0.2230 -0.4427  0.1715
13641TIP3    H262339   5.687   3.272   3.602 -0.3346  0.5119 -1.0498
13642TIP3   OH262340   4.325   5.968  13.006 -0.3501  0.2546 -0.5916
13642TIP3    H162341   4.304   5.975  12.913 -0.6748  4.2592 -0.3805
13642TIP3    H262342   4.262   6.025  13.050 -0.4904 -1.8343  2.2354
13643TIP3   OH262343   4.570   2.768  11.740  0.3574  0.1650 -0.6363
13643TIP3    H162344   4.489   2.718  11.734 -0.1233  0.9978 -1.2230
13643TIP3    H262345   4.593   2.763  11.833 -1.1234  1.0609 -0.1787
13644TIP3   OH262346   2.526   4.764  14.125 -0.2977  0.0500 -0.6825
13644TIP3    H162347   2.618   4.752  14.099  0.0746 -0.1970  0.6829
13644TIP3    H262348   2.477   4.757  14.043  0.7817 -1.1933 -1.2670
13645TIP3   OH262349   2.079   0.076   5.354  0.0223 -0.0692  0.3438
13645TIP3    H162350   2.089   0.152   5.411 -0.2636 -0.6816  1.2262
13645TIP3    H262351   2.169   0.046   5.339  0.0492 -0.5534  1.3822
13646TIP3   OH262352   2.534   3.362  15.947 -0.5502  0.3557  0.1622
13646TIP3    H162353   2.532   3.331  15.856 -0.9337  0.3757  0.1591
13646TIP3    H262354   2.559   3.286  15.998 -2.3336 -0.2222  0.2471
13647TIP3   OH262355   0.269   0.366   1.280 -0.0293  0.3208  0.1526
13647TIP3    H162356   0.254   0.445   1.330 -0.0894 -0.5347  1.5310
13647TIP3    H262357   0.182   0.330   1.263 -0.0425  0.8870 -1.0679
13648TIP3   OH262358   4.794   0.449  13.668  0.2709 -0.2667  0.0925
13648TIP3    H162359   4.768   0.358  13.655  1.0088 -0.7043  1.4732
13648TIP3    H262360   4.889   0.447  13.671  0.3069  0.6081 -0.2359
13649TIP3   OH262361   0.376   1.532   1.219 -0.1579 -0.0407  0.4983
13649TIP3    H162362   0.424   1.572   1.292  0.4492  1.9355 -0.9177
13649TIP3    H262363   0.441   1.518   1.151 -0.6078 -2.4169  0.4526
13650TIP3   OH262364   4.570   1.815  16.946 -0.7042 -0.0435  0.2687
13650TIP3    H162365   4.558   1.765  17.027  0.0262 -1.0565 -0.2339
13650TIP3    H262366   4.643   1.874  16.965 -1.9806  1.3612  1.0832
13651TIP3   OH262367   5.637   3.727  11.867 -0.1219 -0.1906  0.3800
13651TIP3    H162368   5.732   3.723  11.881 -0.3168 -0.1783  1.9362
13651TIP3    H262369   5.601   3.673  11.938 -1.2440 -1.3043 -0.9897
13652TIP3   OH262370   0.456   1.065   0.936  0.2490 -0.5219  0.3824
13652TIP3    H162371   0.527   1.112   0.893  1.1685 -1.8509  0.4101
13652TIP3    H262372   0.421   1.007   0.869  1.1186 -1.9726  1.1378
13653TIP3   OH262373   1.148   5.354  10.604 -0.5910  0.9301 -0.7147
13653TIP3    H162374   1.207   5.369  10.530 -0.6813  1.0311 -0.7660
13653TIP3    H262375   1.171   5.266  10.635  0.7422  1.6170  0.3328
13654TIP3   OH262376   4.367   3.283   3.287  0.1210  0.1365 -0.1265
13654TIP3    H162377   4.291   3.225   3.285  0.9713 -1.0123 -2.0073
13654TIP3    H262378   4.441   3.224   3.304  0.9321  0.7317 -1.4306
13655TIP3   OH262379   5.065   4.486   0.429  0.1567  0.5251  0.5200
13655TIP3    H162380   4.996   4.514   0.369  0.1961 -0.1343  0.1560
13655TIP3    H262381   5.019   4.451   0.505 -0.0734 -2.7652 -0.9571
13656TIP3   OH262382   2.375   3.843   2.840 -0.0469  0.0232  0.2957
13656TIP3    H162383   2.464   3.810   2.827  0.6161  1.9067 -0.1582
13656TIP3    H262384   2.340   3.852   2.751 -1.0427 -1.5031  0.4897
13657TIP3   OH262385   6.116   1.845  12.000 -0.1752  0.1273  0.0482
13657TIP3    H162386   6.119   1.882  11.912 -0.9289  0.1082  0.0064
13657TIP3    H262387   6.106   1.921  12.057  0.4930  0.1547  0.1414
13658TIP3   OH262388   4.514   2.010   2.706 -0.6368 -0.5709 -0.3222
13658TIP3    H162389   4.501   2.066   2.630 -0.6356  0.4370  0.3953
13658TIP3    H262390   4.604   2.028   2.734 -0.5911 -1.0324 -0.1690
13659TIP3   OH262391   2.269   0.624   4.460  0.4964  0.4071 -0.3163
13659TIP3    H162392   2.216   0.658   4.532 -0.4684  0.5407 -1.0662
13659TIP3    H262393   2.289   0.701   4.407  1.3532  0.3364 -0.1077
13660TIP3   OH262394   3.833   0.247   6.929  0.6838  0.0706 -0.4529
13660TIP3    H162395   3.752   0.203   6.955  0.0177  1.5763  0.1593
13660TIP3    H262396   3.880   0.183   6.876 -1.7008 -0.2731 -2.3298
13661TIP3   OH262397   2.294   3.077  14.695 -0.3163  0.0831 -0.2981
13661TIP3    H162398   2.218   3.130  14.671 -0.7881  0.2840  1.5355
13661TIP3    H262399   2.257   2.995  14.727  0.0438  0.9538  2.6116
13662TIP3   OH262400   2.599   4.883  16.167  0.1912 -0.5868  0.1430
13662TIP3    H162401   2.531   4.897  16.232 -1.0358  2.4244 -1.5943
13662TIP3    H262402   2.670   4.943  16.191  0.4885 -0.7475 -0.3058
13663TIP3   OH262403   3.869   4.828   0.299 -0.1061  0.6272 -0.3161
13663TIP3    H162404   3.865   4.915   0.260 -0.1208  0.5144 -0.5687
13663TIP3    H262405   3.866   4.844   0.393  0.7169  0.9535 -0.3297
13664TIP3   OH262406   1.724   6.739   2.567  0.1645 -0.1578 -0.5315
13664TIP3    H162407   1.694   6.756   2.656  1.1976  0.6977 -0.3258
13664TIP3    H262408   1.720   6.643   2.558 -1.4211 -0.1583 -0.1237
13665TIP3   OH262409   2.583   1.693   5.287 -0.2447  0.1654 -1.0750
13665TIP3    H162410   2.528   1.717   5.212  0.1832  1.8145 -0.8941
13665TIP3    H262411   2.671   1.690   5.252 -0.1816 -0.3101 -0.8895
13666TIP3   OH262412   6.622   3.793   1.803  0.3549 -0.1589  0.0496
13666TIP3    H162413   6.634   3.872   1.751 -1.9229  0.9212  1.0516
13666TIP3    H262414   6.542   3.754   1.769  1.1159 -1.7675 -0.0300
13667TIP3   OH262415   3.635   0.136  13.511  0.2955  0.3406 -0.2801
13667TIP3    H162416   3.709   0.112  13.568  1.2098  0.2578 -1.4607
13667TIP3    H262417   3.568   0.169  13.571  1.3479  0.5631  0.8118
13668TIP3   OH262418   4.988   5.459  16.289  0.4518  0.0557  0.0034
13668TIP3    H162419   4.986   5.401  16.213 -0.5331 -0.2705  0.2620
13668TIP3    H262420   4.930   5.532  16.265  0.0984 -0.0722  0.4468
13669TIP3   OH262421   1.342   1.903   4.917  0.0676 -0.6485  0.0456
13669TIP3    H162422   1.320   1.821   4.961 -0.3592 -1.1996 -1.1615
13669TIP3    H262423   1.311   1.892   4.827 -0.3242  0.9711 -0.0594
13670TIP3   OH262424   0.946   5.158   5.878  0.2573 -0.2470  0.0248
13670TIP3    H162425   0.892   5.125   5.806  1.5745 -2.0133 -0.2164
13670TIP3    H262426   0.886   5.163   5.953 -0.4292 -1.3515 -0.4378
13671TIP3   OH262427   1.279   0.323   1.277  0.6174 -0.5885  0.0999
13671TIP3    H162428   1.197   0.304   1.231  1.2073 -0.6355 -0.9612
13671TIP3    H262429   1.270   0.278   1.361  0.2558 -2.0622 -0.6881
13672TIP3   OH262430   2.622   1.878  12.119  0.4347 -0.5326  0.3437
13672TIP3    H162431   2.648   1.789  12.094  1.9507 -0.3895  1.2890
13672TIP3    H262432   2.694   1.934  12.089 -0.5862  0.4338 -0.4082
13673TIP3   OH262433   3.898   2.489   2.906  0.2553  0.3763  0.3207
13673TIP3    H162434   3.823   2.547   2.902 -0.0048  0.0010 -1.2070
13673TIP3    H262435   3.972   2.544   2.881  0.1431  0.2595 -0.2821
13674TIP3   OH262436   6.727   2.310  17.057  0.0073 -0.3140 -0.0594
13674TIP3    H162437   6.807   2.351  17.022 -0.6777  1.0069 -0.1156
13674TIP3    H262438   6.719   2.229  17.006 -0.6460  1.2684 -2.6939
13675TIP3   OH262439   4.248   4.346  11.469 -0.6524 -0.3470 -0.3806
13675TIP3    H162440   4.202   4.395  11.400 -1.2371 -0.3760 -0.0205
13675TIP3    H262441   4.275   4.264  11.427 -0.4224 -0.0820 -0.7530
13676TIP3   OH262442   6.189   2.409   2.210 -0.0627 -0.2257 -0.0410
13676TIP3    H162443   6.276   2.444   2.228  0.3852 -1.4397  0.2911
13676TIP3    H262444   6.131   2.458   2.267  0.6673 -0.6046  1.0760
13677TIP3   OH262445   0.558   1.309   4.851 -0.3081 -0.0716  0.6600
13677TIP3    H162446   0.549   1.217   4.825 -1.4101  0.2982 -0.3791
13677TIP3    H262447   0.471   1.333   4.883 -0.6557  1.1733 -1.0773
13678TIP3   OH262448   6.423   1.987   1.490 -0.0129  0.0905 -0.0444
13678TIP3    H162449   6.490   2.042   1.450  0.1899 -2.1370 -3.0544
13678TIP3    H262450   6.473   1.927   1.546  0.3429 -0.3810 -0.8512
13679TIP3   OH262451   5.379   4.113   4.151  0.0806  0.4938  0.1641
13679TIP3    H162452   5.293   4.122   4.191  0.6704  1.1749  1.3240
13679TIP3    H262453   5.428   4.056   4.209  0.7493  0.9807  0.0971
13680TIP3   OH262454   5.968   6.095  15.294  0.5369 -0.6933 -0.7886
13680TIP3    H162455   5.962   6.131  15.206 -0.8508 -0.7914 -0.7510
13680TIP3    H262456   6.046   6.136  15.331  0.4687  0.2625 -1.6518
13681TIP3   OH262457   3.063   0.354  15.235  0.0508  0.0136  0.0127
13681TIP3    H162458   3.059   0.351  15.140  1.2995  0.6833 -0.0815
13681TIP3    H262459   3.127   0.422  15.255 -1.3262  0.9762  1.3710
13682TIP3   OH262460   2.443   2.452   2.606  0.0903  0.9303 -0.1180
13682TIP3    H162461   2.392   2.405   2.541  0.6806 -1.6971  1.1775
13682TIP3    H262462   2.378   2.501   2.656 -0.7117  0.5958 -0.8012
13683TIP3   OH262463   0.756   0.275  15.183 -0.5298 -0.1331  0.3345
13683TIP3    H162464   0.787   0.251  15.270 -1.4946 -0.0779  0.6955
13683TIP3    H262465   0.802   0.356  15.162  2.1565 -1.7408 -0.5601
13684TIP3   OH262466   2.276   3.252  14.448  0.4591  0.6149 -0.5261
13684TIP3    H162467   2.337   3.306  14.399  0.2854 -0.1162 -1.5715
13684TIP3    H262468   2.219   3.315  14.493 -0.1711  1.3341 -2.2546
13685TIP3   OH262469   2.534   6.633  15.256  0.1394 -0.1010  0.3116
13685TIP3    H162470   2.585   6.697  15.305 -0.7390 -0.1722  1.3475
13685TIP3    H262471   2.584   6.551  15.262  0.8387  0.2675 -0.3057
13686TIP3   OH262472   6.349   3.235  13.201  0.4678 -0.4240 -0.2959
13686TIP3    H162473   6.282   3.207  13.139  1.3593 -1.4049 -0.8446
13686TIP3    H262474   6.375   3.155  13.246  1.1383 -0.0254  0.0496
13687TIP3   OH262475   6.205   5.178   3.159  0.7941  0.6942 -0.4645
13687TIP3    H162476   6.111   5.188   3.142  0.5900  1.0001  0.7206
13687TIP3    H262477   6.237   5.123   3.088 -0.4594 -0.1601 -0.3999
13688TIP3   OH262478   4.777   3.944   5.857  0.5152  0.0773  0.1685
13688TIP3    H162479   4.816   3.883   5.919  0.6760 -1.6945 -1.5385
13688TIP3    H262480   4.745   3.888   5.786 -0.7074  1.8879 -0.8025
13689TIP3   OH262481   1.623   0.301   5.204  0.2594  0.5121 -0.3235
13689TIP3    H162482   1.683   0.348   5.262 -1.5232  2.0761  0.3378
13689TIP3    H262483   1.571   0.245   5.263 -0.1480  0.5363 -0.6555
13690TIP3   OH262484   4.040   1.427  16.330  0.4741 -0.2786 -0.2426
13690TIP3    H162485   4.067   1.460  16.415  0.3000 -2.5024  0.7406
13690TIP3    H262486   3.967   1.483  16.304  1.0356  0.9189  0.6617
13691TIP3   OH262487   5.654   1.396   5.809  0.0679 -0.6857  0.1532
13691TIP3    H162488   5.562   1.412   5.832  0.7257  3.5095  0.7048
13691TIP3    H262489   5.694   1.367   5.891 -0.1823  0.7153  0.7901
13692TIP3   OH262490   2.702   0.568  11.288 -0.1914  0.4879 -0.7760
13692TIP3    H162491   2.630   0.518  11.251 -1.1099  1.3232 -0.1799
13692TIP3    H262492   2.729   0.518  11.365 -0.1485  0.1871 -0.9865
13693TIP3   OH262493   1.859   4.774  11.924 -0.4301 -0.0406  0.0302
13693TIP3    H162494   1.878   4.862  11.957  0.5311 -0.6555  1.1888
13693TIP3    H262495   1.911   4.767  11.843  0.3447  0.0844  0.5078
13694TIP3   OH262496   4.684   6.159   2.635  0.1257  0.2568  0.1364
13694TIP3    H162497   4.742   6.089   2.604 -0.0014  0.0931  0.2616
13694TIP3    H262498   4.676   6.142   2.729  0.7955  0.9567  0.3280
13695TIP3   OH262499   2.312   0.310   2.751  0.5126  0.1076  0.1031
13695TIP3    H162500   2.392   0.327   2.700  1.1838  0.6109  1.2809
13695TIP3    H262501   2.309   0.382   2.815 -0.2522 -0.5517  0.8311
13696TIP3   OH262502   6.016   2.761  12.945  0.1710 -0.5563  0.5657
13696TIP3    H162503   6.039   2.697  12.877  0.1877  0.0219  0.0089
13696TIP3    H262504   5.970   2.710  13.011  2.0821 -1.5611  1.2077
13697TIP3   OH262505   1.419   2.612  16.988  0.3390  0.3445 -0.3304
13697TIP3    H162506   1.441   2.623  16.895  0.0755 -1.7764 -0.6846
13697TIP3    H262507   1.388   2.698  17.016  1.3838  1.2903 -1.9301
13698TIP3   OH262508   1.445   4.989  15.541  0.0132  0.1918 -0.1564
13698TIP3    H162509   1.440   4.956  15.631 -3.1703  1.1567  0.1489
13698TIP3    H262510   1.369   4.952  15.498 -0.6507  2.7243 -1.3238
13699TIP3   OH262511   3.362   3.933   1.981  0.6130 -0.1846  0.0938
13699TIP3    H162512   3.308   3.928   2.060 -0.0908 -0.2552 -0.3817
13699TIP3    H262513   3.300   3.926   1.909  1.0261  1.6385 -0.5101
13700TIP3   OH262514   2.521   0.416  12.087  0.2378  0.3900 -0.2564
13700TIP3    H162515   2.557   0.415  11.998  1.4068 -0.1354  0.2026
13700TIP3    H262516   2.598   0.417  12.144 -0.3996 -2.2557  0.7905
13701TIP3   OH262517   3.864   0.309   3.760 -0.5291 -0.1817  0.0383
13701TIP3    H162518   3.798   0.322   3.692  0.4336  1.1019 -0.7015
13701TIP3    H262519   3.948   0.325   3.716  0.1360  0.5757  1.4808
13702TIP3   OH262520   6.608   1.156  12.018  0.1213 -0.0624  0.0228
13702TIP3    H162521   6.596   1.175  11.925 -1.6566 -1.8956 -0.1946
13702TIP3    H262522   6.530   1.191  12.060  0.2256 -0.5048  0.6021
13703TIP3   OH262523   5.777   5.232   3.869 -0.2007  0.7587  0.2242
13703TIP3    H162524   5.732   5.316   3.859 -2.0119 -0.0689  0.9249
13703TIP3    H262525   5.783   5.219   3.964 -0.5452 -0.2022  0.1243
13704TIP3   OH262526   6.230   6.426   4.723  0.8744  0.2054 -0.2607
13704TIP3    H162527   6.203   6.430   4.814 -0.0893  0.9392 -0.5655
13704TIP3    H262528   6.301   6.362   4.722  0.0392 -0.7903  0.7953
13705TIP3   OH262529   2.484   4.443   2.722  0.2533 -0.6809  0.7169
13705TIP3    H162530   2.563   4.495   2.737 -0.1265 -0.1460  0.9214
13705TIP3    H262531   2.497   4.364   2.774  0.6436 -0.5799  0.7763
13706TIP3   OH262532   2.042   1.191  16.255  0.3040 -0.6541  0.3351
13706TIP3    H162533   2.122   1.164  16.209  0.8237  0.3779  0.6280
13706TIP3    H262534   2.067   1.266  16.307 -1.0962  0.3776 -0.3932
13707TIP3   OH262535   5.104   4.822  13.299 -0.4721 -0.0317 -0.0341
13707TIP3    H162536   5.163   4.826  13.374 -0.4650 -1.9534  0.0963
13707TIP3    H262537   5.016   4.818  13.337 -0.7070  2.1598 -0.2196
13708TIP3   OH262538   5.334   3.402   0.497 -0.0532  0.7610 -0.0531
13708TIP3    H162539   5.274   3.454   0.443 -0.4074  0.5236  0.1119
13708TIP3    H262540   5.292   3.317   0.504  1.1320  0.0262 -1.3905
13709TIP3   OH262541   1.910   5.571   4.779  0.4014 -0.0658  0.7117
13709TIP3    H162542   1.949   5.650   4.816  1.4979  1.0729 -2.5139
13709TIP3    H262543   1.926   5.503   4.844  3.6729  1.3693  1.6078
13710TIP3   OH262544   2.006   1.661  16.785  0.4540  0.1874 -0.3456
13710TIP3    H162545   2.005   1.669  16.880  1.3100  1.5267 -0.4240
13710TIP3    H262546   1.943   1.726  16.755  1.5715  1.1142 -0.7457
13711TIP3   OH262547   4.529   5.441  12.931 -0.2392  0.5132 -0.3283
13711TIP3    H162548   4.496   5.378  12.995 -3.3263 -0.7162 -2.9052
13711TIP3    H262549   4.473   5.518  12.941  0.9848  1.3901  0.1394
13712TIP3   OH262550   1.747   4.257   5.781  0.2042  0.2670  0.2777
13712TIP3    H162551   1.735   4.188   5.847  0.4794  0.1314  0.1866
13712TIP3    H262552   1.838   4.247   5.753  0.1821  0.5379  0.1161
13713TIP3   OH262553   2.658   5.169  15.999  0.6491  0.1213 -0.1150
13713TIP3    H162554   2.681   5.090  15.951  1.0290  0.0354  0.1990
13713TIP3    H262555   2.718   5.170  16.074 -2.6940 -2.1800  3.0044
13714TIP3   OH262556   4.666   0.859  10.769 -0.0960 -0.1379 -0.3811
13714TIP3    H162557   4.701   0.868  10.858 -3.2799 -0.4693  1.0644
13714TIP3    H262558   4.738   0.886  10.712  1.8980  0.6905  2.2937
13715TIP3   OH262559   5.411   1.462   4.172  0.6570 -0.1258  0.3726
13715TIP3    H162560   5.345   1.397   4.198 -0.3545  1.1530  1.0989
13715TIP3    H262561   5.367   1.516   4.107  1.4040  0.0331 -0.0134
13716TIP3   OH262562   2.733   5.084  12.269  0.0631  0.6110 -0.1462
13716TIP3    H162563   2.740   5.081  12.174 -1.8937 -0.5495 -0.3016
13716TIP3    H262564   2.733   5.177  12.290  0.7473  0.8749 -1.2399
13717TIP3   OH262565   4.779   5.593  17.165  0.0272  0.2288  0.0807
13717TIP3    H162566   4.770   5.529  17.236 -0.0782  1.0021  0.7794
13717TIP3    H262567   4.770   5.541  17.085  1.7125 -0.9191  0.5796
13718TIP3   OH262568   3.466   1.844  15.919 -0.6347 -0.2022  0.5592
13718TIP3    H162569   3.417   1.878  15.994  1.8702  3.5918  0.7609
13718TIP3    H262570   3.403   1.844  15.847 -1.2377  4.8409  0.7001
13719TIP3   OH262571   4.536   6.463   5.698 -0.2046 -0.0665  1.1938
13719TIP3    H162572   4.464   6.424   5.648  2.0088 -0.7909 -1.6615
13719TIP3    H262573   4.581   6.389   5.738  0.5772  0.0834  0.6144
13720TIP3   OH262574   5.206   5.554  11.562 -0.0050 -0.1723 -0.2213
13720TIP3    H162575   5.117   5.586  11.575  0.0435  0.1814 -0.7517
13720TIP3    H262576   5.197   5.485  11.495 -0.2483 -1.9676  1.5427
13721TIP3   OH262577   1.686   6.753   0.760  1.3152  0.2458 -0.3649
13721TIP3    H162578   1.748   6.800   0.815  0.8723 -0.2498  0.5779
13721TIP3    H262579   1.607   6.744   0.814  0.4687  0.7196 -1.4811
13722TIP3   OH262580   0.767   6.433  12.625 -0.0470  0.7911  0.1974
13722TIP3    H162581   0.832   6.497  12.654  0.3326  0.2150  0.6478
13722TIP3    H262582   0.737   6.391  12.705 -1.7525  1.7529  0.0979
13723TIP3   OH262583   3.932   3.189  11.659 -0.0556  0.2353 -0.8257
13723TIP3    H162584   3.916   3.139  11.579 -2.4296  0.1670 -0.3791
13723TIP3    H262585   3.974   3.269  11.629 -2.1319  0.8268 -2.3919
13724TIP3   OH262586   6.707   0.583  11.036 -0.1059 -0.4858  0.1076
13724TIP3    H162587   6.651   0.643  11.085 -0.6162 -1.2555  0.4978
13724TIP3    H262588   6.655   0.560  10.959  1.0975  1.5075 -1.3607
13725TIP3   OH262589   4.696   3.833  12.400  0.4466  0.3498 -0.6346
13725TIP3    H162590   4.726   3.834  12.309 -3.1624 -0.0229 -2.0012
13725TIP3    H262591   4.744   3.905  12.442  2.3193  0.4370 -2.7517
13726TIP3   OH262592   4.365   1.929   3.449 -0.4316 -0.6545  0.2425
13726TIP3    H162593   4.357   1.985   3.525  0.4757  0.0678 -0.1662
13726TIP3    H262594   4.344   1.985   3.375  0.0218 -0.9776 -0.1397
13727TIP3   OH262595   3.920   6.533   6.075  0.3109 -0.2584 -0.4914
13727TIP3    H162596   3.929   6.441   6.100  2.0260 -0.2469 -0.9376
13727TIP3    H262597   3.903   6.579   6.157  0.0447 -0.8949 -0.1827
13728TIP3   OH262598   3.869   0.276   4.293 -0.1060 -0.0563 -0.2818
13728TIP3    H162599   3.855   0.273   4.198 -0.4357 -0.0901 -0.2298
13728TIP3    H262600   3.791   0.319   4.328  0.2942  0.5311 -0.0889
13729TIP3   OH262601   0.369   2.825   4.792 -0.7932 -0.0274 -0.2276
13729TIP3    H162602   0.448   2.825   4.846 -1.0564  0.2848  0.1601
13729TIP3    H262603   0.314   2.756   4.830 -0.4522 -0.6789 -0.8845
13730TIP3   OH262604   4.233   0.776  16.292  0.3683 -0.2375 -0.4919
13730TIP3    H162605   4.150   0.791  16.339  0.8651  1.4916 -0.0802
13730TIP3    H262606   4.207   0.738  16.209 -0.8969  0.6034 -0.5144
13731TIP3   OH262607   0.376   4.260   3.993 -0.3018 -0.4439  0.1487
13731TIP3    H162608   0.397   4.186   3.936 -1.9976 -1.2605  0.5373
13731TIP3    H262609   0.354   4.331   3.932 -0.3168 -0.7573 -0.2148
13732TIP3   OH262610   0.950   2.042  17.098  0.0862  0.2270 -0.6550
13732TIP3    H162611   0.913   1.969  17.148  2.0907  0.0141  0.6443
13732TIP3    H262612   0.962   2.007  17.010 -0.6299 -0.4076 -0.5158
13733TIP3   OH262613   5.133   5.059   4.268 -0.1329 -0.1150  0.7811
13733TIP3    H162614   5.166   4.969   4.261  2.5673  0.8926 -1.1137
13733TIP3    H262615   5.202   5.113   4.230 -1.4406  2.8600  2.2984
13734TIP3   OH262616   5.299   2.911   1.248  0.2243 -0.0606 -0.5559
13734TIP3    H162617   5.370   2.940   1.305 -0.9412  0.5590  0.6326
13734TIP3    H262618   5.235   2.982   1.251 -0.3660 -0.5076 -1.7739
13735TIP3   OH262619   1.934   4.052  13.146 -0.2597  0.0582  0.0627
13735TIP3    H162620   2.015   4.002  13.135 -0.2606  0.1340 -0.3085
13735TIP3    H262621   1.957   4.124  13.204 -0.2747 -0.4124  0.6662
13736TIP3   OH262622   5.330   2.104   0.401  0.4571  0.0831  0.2805
13736TIP3    H162623   5.313   2.125   0.493 -0.9725 -0.1444  0.0839
13736TIP3    H262624   5.243   2.096   0.361  1.0494  0.4061 -1.1501
13737TIP3   OH262625   3.150   2.826   3.120  0.4171 -0.3572 -0.5190
13737TIP3    H162626   3.196   2.798   3.199 -1.6093  0.4127  1.0450
13737TIP3    H262627   3.147   2.748   3.065 -1.2908 -2.0799  1.7975
13738TIP3   OH262628   4.760   2.369   2.042  0.1442 -0.3763 -0.1569
13738TIP3    H162629   4.714   2.301   1.992  0.2163  0.0659 -0.8462
13738TIP3    H262630   4.732   2.451   2.001 -1.4764  0.1686  1.9141
13739TIP3   OH262631   2.625   0.903  11.044  0.3537  0.4261 -0.1362
13739TIP3    H162632   2.588   0.982  11.005  0.7593  0.7971  0.2070
13739TIP3    H262633   2.668   0.934  11.124 -0.1828 -0.2613  0.4372
13740TIP3   OH262634   0.411   5.857  11.960  0.0960 -0.0552 -0.3015
13740TIP3    H162635   0.482   5.913  11.928  1.0931 -0.3731  1.2437
13740TIP3    H262636   0.348   5.918  11.999  0.2271  0.1264 -0.3726
13741TIP3   OH262637   3.262   3.351   2.165  0.0780  0.8739  0.0946
13741TIP3    H162638   3.192   3.345   2.099 -0.0569 -0.4371  0.3273
13741TIP3    H262639   3.316   3.425   2.136 -1.2167  1.7149 -0.2600
13742TIP3   OH262640   2.806   2.936   2.388  0.2367 -0.4549 -0.4035
13742TIP3    H162641   2.723   2.950   2.433  0.9816  0.9070  0.6115
13742TIP3    H262642   2.871   2.932   2.457  1.1483 -0.4704 -1.2351
13743TIP3   OH262643   4.543   2.793   3.229 -0.3083 -0.0066 -0.7236
13743TIP3    H162644   4.534   2.698   3.230  3.8756 -0.5888  0.0047
13743TIP3    H262645   4.628   2.810   3.271 -0.5932  4.0280 -1.3430
13744TIP3   OH262646   1.552   0.036   4.736  0.1169  0.0951 -0.0454
13744TIP3    H162647   1.628  -0.022   4.741  0.5391  0.6387  0.0191
13744TIP3    H262648   1.514   0.033   4.823 -0.3190 -0.6783 -0.2573
13745TIP3   OH262649   3.834   4.489  16.711 -0.3363 -0.4555  0.0146
13745TIP3    H162650   3.869   4.507  16.623 -0.0122 -2.0735 -0.2322
13745TIP3    H262651   3.756   4.544  16.718  1.8730  2.9244  0.3810
13746TIP3   OH262652   3.908   3.111   4.909  0.6278 -0.4866  0.1053
13746TIP3    H162653   3.881   3.163   4.985  1.5713  0.8779 -0.4533
13746TIP3    H262654   3.876   3.160   4.833 -0.7651 -2.0982 -0.4042
13747TIP3   OH262655   5.254   2.637   0.943  0.3441  0.1240  0.7113
13747TIP3    H162656   5.219   2.646   1.032 -0.2860  0.6852  0.4134
13747TIP3    H262657   5.227   2.550   0.915 -2.5140  1.1856 -0.2050
13748TIP3   OH262658   4.545   6.435   1.500 -0.5990 -0.0050 -0.3062
13748TIP3    H162659   4.531   6.529   1.518 -1.0632 -0.0687 -0.3093
13748TIP3    H262660   4.631   6.431   1.459 -0.6375  0.4385 -0.4369
13749TIP3   OH262661   1.862   6.502   0.252  0.0848 -0.6605 -0.6426
13749TIP3    H162662   1.864   6.419   0.299 -0.2962  0.3643  1.2772
13749TIP3    H262663   1.779   6.542   0.278  1.7147  1.8093  1.2190
13750TIP3   OH262664   2.461   0.604   2.786 -0.1231  0.1253 -0.1159
13750TIP3    H162665   2.473   0.666   2.858 -0.8296 -0.5570  0.5920
13750TIP3    H262666   2.368   0.609   2.764  0.1987  0.8247 -1.4520
13751TIP3   OH262667   2.138   4.107   1.821  0.3643  0.2883 -0.1121
13751TIP3    H162668   2.084   4.153   1.885  1.5040  0.7634  0.5403
13751TIP3    H262669   2.090   4.026   1.803  0.4604 -0.3387  2.1027
13752TIP3   OH262670   3.952   5.965   4.505  0.0594 -0.5991 -0.0496
13752TIP3    H162671   3.950   6.024   4.580 -0.2534 -0.0068 -0.5118
13752TIP3    H262672   3.945   6.023   4.428 -1.3966 -1.2757 -0.4845
13753TIP3   OH262673   2.054   0.912   4.300  0.0920  0.0663 -0.1499
13753TIP3    H162674   2.037   0.848   4.369 -1.2480  1.1132  0.5447
13753TIP3    H262675   2.149   0.910   4.288  0.2476 -0.8252  1.0557
13754TIP3   OH262676   0.451   2.542   2.959 -0.1337  0.3177 -0.1638
13754TIP3    H162677   0.543   2.515   2.951 -0.0523  0.6147 -0.2360
13754TIP3    H262678   0.401   2.463   2.938  0.1042  0.1741 -0.1979
13755TIP3   OH262679   3.386   5.538  12.049 -0.0418 -0.0863  0.3997
13755TIP3    H162680   3.408   5.623  12.087 -1.7512  0.3108  0.6169
13755TIP3    H262681   3.458   5.518  11.989  1.2635  0.6494  1.6799
13756TIP3   OH262682   5.168   4.148  13.347 -0.3236  0.3366  0.0769
13756TIP3    H162683   5.080   4.180  13.327 -0.0470  0.6278 -0.6929
13756TIP3    H262684   5.163   4.122  13.439 -1.0004  1.0977  0.2734
13757TIP3   OH262685   5.176   0.924  10.398 -0.2951  0.0515  0.3537
13757TIP3    H162686   5.197   0.929  10.491 -1.9399 -0.9206  0.8367
13757TIP3    H262687   5.108   0.856  10.394 -1.2944  1.1095 -1.3633
13758TIP3   OH262688   4.831   6.139  16.525  0.3716 -1.0001 -0.9326
13758TIP3    H162689   4.834   6.196  16.603  0.1830 -1.4802 -0.5697
13758TIP3    H262690   4.845   6.199  16.452  0.5685 -0.5398 -0.5300
13759TIP3   OH262691   1.094   5.589   2.161 -0.0213  0.1810 -0.0168
13759TIP3    H162692   1.125   5.678   2.144 -0.2517  0.2529 -0.0709
13759TIP3    H262693   1.151   5.557   2.230  1.5233 -0.4482 -1.5111
13760TIP3   OH262694   5.270   3.663   2.807  0.3290  0.0211  0.3620
13760TIP3    H162695   5.324   3.733   2.842 -0.7729  1.1797 -0.1764
13760TIP3    H262696   5.330   3.609   2.757  1.1561  0.7429  0.5609
13761TIP3   OH262697   5.479   1.839  16.780  0.1483  0.1494 -0.5874
13761TIP3    H162698   5.510   1.753  16.809  0.4686  0.6054  0.4747
13761TIP3    H262699   5.394   1.822  16.740 -2.0300 -0.1865  3.6765
13762TIP3   OH262700   3.103   3.695   5.046 -0.1770 -0.1000  1.1298
13762TIP3    H162701   3.179   3.644   5.018 -0.4742  0.9409 -1.9981
13762TIP3    H262702   3.061   3.640   5.112  0.7080 -2.9002 -0.4427
13763TIP3   OH262703   6.167   3.167  15.885 -0.3487  0.0227  0.2056
13763TIP3    H162704   6.174   3.089  15.830 -0.3461  1.1310 -1.4422
13763TIP3    H262705   6.119   3.230  15.831  1.2196  1.7781  0.7612
13764TIP3   OH262706   3.873   4.610  10.654  0.0834  0.6280  0.5211
13764TIP3    H162707   3.823   4.653  10.585  0.6204  2.2764  1.1182
13764TIP3    H262708   3.920   4.681  10.698  2.8977 -0.8181  0.0689
13765TIP3   OH262709   5.800   0.229  13.104 -0.0195  0.3016  0.4796
13765TIP3    H162710   5.804   0.134  13.104  2.8924  0.3302  1.1691
13765TIP3    H262711   5.793   0.254  13.012 -1.2180 -0.5429  0.3226
13766TIP3   OH262712   4.500   2.474  16.307 -0.0626 -0.7290 -0.0967
13766TIP3    H162713   4.459   2.401  16.355 -1.0762  0.9309  1.7227
13766TIP3    H262714   4.539   2.528  16.376  0.8346  0.3569 -1.4223
13767TIP3   OH262715   3.203   1.907  14.747  0.3871  0.1751 -0.7521
13767TIP3    H162716   3.207   2.002  14.750  0.1445  0.2270 -1.7373
13767TIP3    H262717   3.148   1.883  14.822  2.5550  0.6228  1.0768
13768TIP3   OH262718   6.457   0.628  11.620  0.0470  0.6149  0.1160
13768TIP3    H162719   6.495   0.571  11.553 -2.3543 -0.2709 -0.6262
13768TIP3    H262720   6.398   0.570  11.669  0.6033  1.5979  2.0210
13769TIP3   OH262721   3.414   1.164  16.662  0.0006 -0.2352  0.3988
13769TIP3    H162722   3.405   1.088  16.719 -1.5054 -0.4006 -0.0354
13769TIP3    H262723   3.377   1.137  16.579  1.2911  0.3219 -0.3939
13770TIP3   OH262724   4.770   5.433  11.376  0.0712  0.1804 -0.1231
13770TIP3    H162725   4.762   5.528  11.360 -0.3113  0.1249 -0.2758
13770TIP3    H262726   4.784   5.396  11.289 -1.5645 -0.0778 -0.3150
13771TIP3   OH262727   0.293   1.227  13.797  0.0481  0.1606 -0.9168
13771TIP3    H162728   0.387   1.211  13.795  0.1805  0.8660 -0.7744
13771TIP3    H262729   0.260   1.183  13.719  0.5051 -0.0509 -0.9964
13772TIP3   OH262730   0.442   6.753   3.316  0.1266 -0.3397 -0.1517
13772TIP3    H162731   0.535   6.767   3.331  0.0959  2.2427 -1.5939
13772TIP3    H262732   0.402   6.757   3.403  1.1868  0.5824  0.3178
13773TIP3   OH262733   0.410   5.339  15.232 -0.2215  0.6990  0.2148
13773TIP3    H162734   0.399   5.312  15.323 -2.9501  1.3761  0.1573
13773TIP3    H262735   0.503   5.358  15.224 -0.0990  1.8673  3.2202
13774TIP3   OH262736   3.740   5.847   5.315  0.4569 -0.2936  0.1797
13774TIP3    H162737   3.692   5.822   5.394  0.3850 -1.8355 -0.3135
13774TIP3    H262738   3.684   5.819   5.243  1.0909 -0.0532 -0.4227
13775TIP3   OH262739   4.640   4.823   3.691 -0.2912 -0.4912  0.0475
13775TIP3    H162740   4.715   4.841   3.748  0.8143 -2.4293 -0.7144
13775TIP3    H262741   4.660   4.868   3.609 -0.8367  0.4539  0.4122
13776TIP3   OH262742   0.595   3.157   1.837  0.2522 -0.6530  0.4452
13776TIP3    H162743   0.663   3.175   1.902  0.0224  0.2003  0.4546
13776TIP3    H262744   0.535   3.231   1.843  1.4002  0.6414 -2.2821
13777TIP3   OH262745   1.095   4.808  16.827 -0.4062  0.2123  0.0609
13777TIP3    H162746   1.117   4.825  16.919  1.0209  1.1810 -0.4184
13777TIP3    H262747   1.165   4.852  16.777 -1.5843  0.3939 -1.5130
13778TIP3   OH262748   4.643   0.389  10.841 -0.2814 -0.2768 -0.2827
13778TIP3    H162749   4.666   0.301  10.810 -2.8319 -1.1577  0.0778
13778TIP3    H262750   4.697   0.402  10.919 -1.0480 -2.2727  0.6502
13779TIP3   OH262751   3.753   4.708   0.081  0.1333  0.3816  0.0989
13779TIP3    H162752   3.803   4.759   0.144  0.2787  0.9124 -0.4325
13779TIP3    H262753   3.814   4.642   0.048  0.7190  1.4356 -1.0303
13780TIP3   OH262754   6.050   6.418   1.253 -0.0386 -0.2392 -0.5000
13780TIP3    H162755   6.113   6.369   1.200  0.1221  1.3129 -1.8387
13780TIP3    H262756   6.078   6.509   1.245  0.1050  0.0638  2.5070
13781TIP3   OH262757   6.430   3.787   3.722  0.0374 -0.2300 -0.3312
13781TIP3    H162758   6.485   3.861   3.750  0.5565 -1.2883  1.6690
13781TIP3    H262759   6.349   3.798   3.772  0.4843 -1.4759  0.7421
13782TIP3   OH262760   4.470   0.269  13.111 -0.3901  0.2287  0.0005
13782TIP3    H162761   4.535   0.231  13.170  0.2310 -0.3926 -1.0549
13782TIP3    H262762   4.464   0.361  13.139  1.7267  0.5966 -0.5068
13783TIP3   OH262763   1.894   1.801  16.220  0.2091 -0.5229  0.9132
13783TIP3    H162764   1.843   1.735  16.173 -0.4379 -0.4424  1.4891
13783TIP3    H262765   1.983   1.789  16.187 -0.2584 -0.3192 -0.4929
13784TIP3   OH262766   3.417   6.470  16.878  0.3265 -0.1914  1.2391
13784TIP3    H162767   3.363   6.391  16.872  0.5314 -0.2957  0.7253
13784TIP3    H262768   3.358   6.542  16.857  0.0343 -0.1576  2.1186
13785TIP3   OH262769   2.438   5.400   3.776 -0.0063 -0.0545 -0.4125
13785TIP3    H162770   2.524   5.441   3.773 -0.0600  0.1096  0.2572
13785TIP3    H262771   2.381   5.466   3.815  0.0747 -1.0442  1.4627
13786TIP3   OH262772   2.881   5.375  17.209  0.0484 -0.2086 -0.4311
13786TIP3    H162773   2.965   5.374  17.255 -0.3316  0.5909  0.3042
13786TIP3    H262774   2.816   5.363  17.277 -0.4834  0.1836 -0.8601
13787TIP3   OH262775   4.711   6.679  16.865 -0.6281 -0.1927 -0.2983
13787TIP3    H162776   4.618   6.686  16.842 -0.5789 -0.3771 -0.5671
13787TIP3    H262777   4.716   6.705  16.956 -0.7032  1.5340 -0.7489
13788TIP3   OH262778   2.278   0.055   5.866 -0.2155  0.2690 -0.2794
13788TIP3    H162779   2.199   0.042   5.919  1.5989 -3.1960  1.9439
13788TIP3    H262780   2.254   0.025   5.779 -1.8486  1.0997 -0.1449
13789TIP3   OH262781   0.625   4.439  12.221 -0.4294  0.6168  0.2413
13789TIP3    H162782   0.530   4.451  12.229 -0.5857 -0.8621  0.9625
13789TIP3    H262783   0.650   4.394  12.302  0.3759 -1.8512 -1.2894
13790TIP3   OH262784   4.069   4.375  13.848 -0.2085 -0.0939 -0.4083
13790TIP3    H162785   4.033   4.326  13.922 -2.1902 -1.0170 -1.8996
13790TIP3    H262786   4.124   4.312  13.802  1.1404  0.5199  0.3164
13791TIP3   OH262787   1.088   6.129   4.898 -0.2830 -0.3341 -0.5640
13791TIP3    H162788   1.162   6.127   4.959 -1.4802  0.3440  1.0072
13791TIP3    H262789   1.125   6.102   4.814  1.1988 -2.6130  0.7110
13792TIP3   OH262790   3.082   0.188  11.179  0.1312  0.0238  0.1294
13792TIP3    H162791   3.110   0.196  11.088  0.6522 -0.0109  0.2834
13792TIP3    H262792   2.990   0.215  11.178  0.9943  3.5612  0.1526
13793TIP3   OH262793   0.254   3.297   1.019 -0.1062 -0.2193 -0.3891
13793TIP3    H162794   0.215   3.379   0.990  1.2827 -0.3132 -2.7714
13793TIP3    H262795   0.279   3.313   1.110 -3.1706  0.6856  0.4026
13794TIP3   OH262796   4.531   0.202   2.317 -0.2503  0.0367  0.0686
13794TIP3    H162797   4.438   0.183   2.302 -0.6332  0.2677  1.9699
13794TIP3    H262798   4.549   0.278   2.262 -2.0798  2.0567  2.1109
13795TIP3   OH262799   1.557   3.502   5.539 -0.9656  0.3736  0.3413
13795TIP3    H162800   1.511   3.536   5.615  0.3477  1.4041  0.7022
13795TIP3    H262801   1.627   3.565   5.522 -0.0337 -0.8332 -0.5278
13796TIP3   OH262802   0.684   4.470   2.430  0.1551  0.0507 -0.2765
13796TIP3    H162803   0.611   4.479   2.491  1.7221  0.5951  1.6417
13796TIP3    H262804   0.727   4.388   2.456  1.5735  0.9203  0.2478
13797TIP3   OH262805   3.058   0.447   2.939 -0.1459 -0.2581 -0.1137
13797TIP3    H162806   3.020   0.463   3.025 -1.4567  0.5877 -0.7980
13797TIP3    H262807   3.052   0.532   2.895  0.7010 -0.6252 -0.9660
13798TIP3   OH262808   4.345   1.848  16.813 -0.0509  0.1405  0.2773
13798TIP3    H162809   4.433   1.834  16.850  0.7447  1.8127 -0.8623
13798TIP3    H262810   4.287   1.841  16.889  1.2875  1.0526  1.4556
13799TIP3   OH262811   1.726   2.559  16.995  0.1812 -0.6263 -0.3644
13799TIP3    H162812   1.759   2.477  16.958  0.7830  0.5342 -2.5170
13799TIP3    H262813   1.632   2.544  17.005  0.4029 -1.8569  0.1078
13800TIP3   OH262814   1.379   5.690  13.365  0.2962 -0.0126 -0.5338
13800TIP3    H162815   1.460   5.657  13.326 -0.2043 -2.1173  0.0463
13800TIP3    H262816   1.388   5.673  13.459 -0.9883 -0.7950 -0.5171
13801TIP3   OH262817   3.266   4.871   3.965 -0.3758  0.0603  0.3308
13801TIP3    H162818   3.325   4.946   3.959 -0.3415 -0.0097 -0.3906
13801TIP3    H262819   3.182   4.904   3.936 -0.4965 -0.0373  0.5717
13802TIP3   OH262820   5.203   2.672   1.209  0.1547 -0.5058  0.0481
13802TIP3    H162821   5.231   2.763   1.215  0.0186 -0.1902 -2.9916
13802TIP3    H262822   5.257   2.626   1.274  0.3031  1.6573  1.5603
13803TIP3   OH262823   6.081   6.269   1.898  0.2098  0.2068  0.3053
13803TIP3    H162824   6.017   6.218   1.948 -0.8981  0.0001 -1.2395
13803TIP3    H262825   6.029   6.341   1.860  1.4173  1.5330  1.0765
13804TIP3   OH262826   6.036   2.009  15.890  0.4510 -0.2428  0.1204
13804TIP3    H162827   6.096   1.946  15.850 -0.5141  0.4514 -2.6516
13804TIP3    H262828   5.962   1.957  15.919  1.0499 -0.7417  0.7726
13805TIP3   OH262829   0.052   1.314  14.170  0.4340  0.1908  0.2549
13805TIP3    H162830   0.079   1.401  14.139  3.6405 -0.1490  1.7427
13805TIP3    H262831  -0.029   1.331  14.219  0.1458  2.0775 -0.7680
13806TIP3   OH262832   4.597   1.037   1.352  0.0086 -0.2261 -0.5579
13806TIP3    H162833   4.675   1.025   1.406 -0.2358 -0.7592 -0.3098
13806TIP3    H262834   4.619   1.109   1.294  0.0902  0.7147  0.6066
13807TIP3   OH262835   3.562   0.770  16.603  0.0337  0.5606 -0.2070
13807TIP3    H162836   3.579   0.769  16.697 -0.0889  0.9912 -0.1773
13807TIP3    H262837   3.472   0.801  16.595  0.9371  3.3212 -0.5720
13808TIP3   OH262838   2.073   2.175   1.446  0.1176 -0.0051  0.4706
13808TIP3    H162839   2.039   2.170   1.357 -0.9459  1.3812  0.7599
13808TIP3    H262840   2.167   2.159   1.438  1.0004  4.6389 -1.5953
13809TIP3   OH262841   4.744   1.803  12.804 -0.0151 -0.7268  0.6084
13809TIP3    H162842   4.813   1.853  12.848 -0.3617  0.3384 -0.0205
13809TIP3    H262843   4.778   1.714  12.799  0.8460 -0.4489  1.2901
13810TIP3   OH262844   4.262   6.438   1.579 -0.1833 -0.0334  0.1212
13810TIP3    H162845   4.334   6.495   1.552 -0.5121  1.1587  1.6215
13810TIP3    H262846   4.186   6.468   1.530  0.1771 -0.8702 -0.9811
13811TIP3   OH262847   0.069   1.281   6.687 -0.2676  0.0170 -0.3696
13811TIP3    H162848   0.134   1.213   6.706  1.1399  1.3543 -0.2332
13811TIP3    H262849   0.114   1.363   6.706 -2.2166  0.9793  0.3223
13812TIP3   OH262850   5.539   1.908  11.332 -0.7496  0.4553 -0.3912
13812TIP3    H162851   5.591   1.940  11.259 -1.4214  0.1739 -1.0133
13812TIP3    H262852   5.576   1.950  11.409 -0.2785  1.0616 -0.9437
13813TIP3   OH262853   5.564   1.576  16.837 -0.3598 -0.8596 -0.8654
13813TIP3    H162854   5.650   1.545  16.865  0.0325  0.1843 -0.8639
13813TIP3    H262855   5.548   1.533  16.753  0.7403 -0.1037 -1.4811
13814TIP3   OH262856   5.414   2.103   5.353  0.5601 -0.1212  0.1089
13814TIP3    H162857   5.460   2.062   5.280  0.2448 -1.8558  0.8500
13814TIP3    H262858   5.344   2.154   5.312  2.3142  1.5972 -0.9617
13815TIP3   OH262859   4.303   3.367  14.194  0.3654  0.0479 -0.2495
13815TIP3    H162860   4.208   3.379  14.205  0.2751 -0.1076 -0.8391
13815TIP3    H262861   4.330   3.320  14.273 -0.1831 -0.6128 -0.4400
13816TIP3   OH262862   1.319   1.889  12.142  0.2761  0.0571 -0.3809
13816TIP3    H162863   1.355   1.929  12.063 -0.5591  1.2262 -0.1939
13816TIP3    H262864   1.389   1.894  12.206  1.2013 -1.5156 -1.2061
13817TIP3   OH262865   3.048   6.165  13.573  0.6670  0.3355 -0.2604
13817TIP3    H162866   2.963   6.124  13.555  0.2415  0.6293  0.9213
13817TIP3    H262867   3.092   6.105  13.633  0.2058  1.3526  1.1598
13818TIP3   OH262868   0.388   3.188   0.261 -0.4791 -1.0715 -0.2462
13818TIP3    H162869   0.423   3.164   0.347 -1.0311  1.3781  0.7423
13818TIP3    H262870   0.294   3.170   0.268 -0.6976  0.0983  0.0795
13819TIP3   OH262871   4.689   0.132  13.274 -0.0044 -0.2728  0.0181
13819TIP3    H162872   4.741   0.163  13.200  1.2646  0.1640  1.0523
13819TIP3    H262873   4.714   0.040  13.284 -0.8615 -0.5967 -0.6290
13820TIP3   OH262874   0.838   3.861  16.427  0.7295  0.8007  0.8951
13820TIP3    H162875   0.785   3.937  16.402  1.6453  1.0412 -0.4343
13820TIP3    H262876   0.834   3.803  16.352  1.2437  0.2071  1.3176
13821TIP3   OH262877   3.406   4.645   1.336  0.2699 -0.1464  0.2182
13821TIP3    H162878   3.462   4.652   1.413 -0.4771  2.4263  0.6263
13821TIP3    H262879   3.466   4.631   1.263  0.9978 -2.4894  1.1739
13822TIP3   OH262880   0.394   1.630   4.952 -0.0045  0.3317 -0.0092
13822TIP3    H162881   0.456   1.703   4.948  0.7389 -0.2525  0.7016
13822TIP3    H262882   0.421   1.579   5.028  0.6679 -1.7606 -1.5580
13823TIP3   OH262883   0.032   5.717  14.835 -0.1562 -0.8183 -0.3743
13823TIP3    H162884   0.079   5.656  14.892  0.1662 -1.0493 -0.8778
13823TIP3    H262885   0.081   5.715  14.753  1.0267  1.6063  0.1929
13824TIP3   OH262886   4.033   1.125   5.922  0.1377 -0.6598 -0.0415
13824TIP3    H162887   4.018   1.220   5.916 -0.8107 -0.6643  1.6397
13824TIP3    H262888   4.087   1.104   5.846 -1.4663  0.8662 -1.6933
13825TIP3   OH262889   5.174   5.638   2.757 -0.2347 -0.0785  0.1415
13825TIP3    H162890   5.185   5.638   2.662 -0.0175 -1.3388  0.1451
13825TIP3    H262891   5.097   5.692   2.773 -0.2559  0.1666 -0.7476
13826TIP3   OH262892   5.512   5.793  14.631  0.1198 -0.0064 -0.5564
13826TIP3    H162893   5.462   5.711  14.635 -0.2911  0.2663  0.1516
13826TIP3    H262894   5.476   5.846  14.702  2.3043 -0.2896  0.8696
13827TIP3   OH262895   5.133   2.718   2.445  0.0490 -0.1448  0.4757
13827TIP3    H162896   5.177   2.747   2.366 -1.3898 -0.7776 -0.6089
13827TIP3    H262897   5.195   2.658   2.487  1.1348  0.7962  0.2501
13828TIP3   OH262898   5.197   0.714  13.316  0.3006 -0.4057  0.1908
13828TIP3    H162899   5.105   0.687  13.307  0.6382 -2.0867  1.3113
13828TIP3    H262900   5.243   0.665  13.248  0.4467  0.0585 -0.0479
13829TIP3   OH262901   1.122   0.553  12.824 -0.1190  0.0629  0.1223
13829TIP3    H162902   1.130   0.492  12.897  1.1220 -1.2649 -1.0338
13829TIP3    H262903   1.117   0.496  12.747  1.5376  1.3926 -1.0454
13830TIP3   OH262904   4.001   1.358  11.175  0.1391  0.2643  0.1889
13830TIP3    H162905   4.089   1.337  11.206 -0.3714 -0.5526  1.1494
13830TIP3    H262906   3.993   1.311  11.092  0.4578 -0.0336  0.3233
13831TIP3   OH262907   4.819   0.550  14.362  0.2275 -0.5488  0.2923
13831TIP3    H162908   4.897   0.599  14.388 -0.9852  4.8235 -4.2254
13831TIP3    H262909   4.851   0.483  14.302  1.5488  0.8683 -0.6488
13832TIP3   OH262910   1.010   0.807  16.274  0.2118  0.4336  0.8382
13832TIP3    H162911   1.059   0.851  16.344  0.3624 -0.4957  1.3316
13832TIP3    H262912   1.007   0.715  16.301 -1.5089  0.4036  0.6495
13833TIP3   OH262913   4.313   0.454   3.211 -0.7934 -0.0280 -0.3104
13833TIP3    H162914   4.391   0.403   3.188 -0.9786 -0.4626  0.0188
13833TIP3    H262915   4.283   0.490   3.127  0.5165  1.2513 -0.2858
13834TIP3   OH262916   1.075   2.726   1.189 -0.2585 -0.7567  0.0100
13834TIP3    H162917   1.160   2.748   1.227 -0.7159  0.1996  0.5332
13834TIP3    H262918   1.093   2.657   1.126  1.0855  0.2873 -0.7957
13835TIP3   OH262919   4.589   1.859   0.182  0.2544 -1.0253 -0.1245
13835TIP3    H162920   4.641   1.914   0.123 -0.4831 -1.2706 -1.0230
13835TIP3    H262921   4.584   1.909   0.263  2.2908 -1.1952  0.1698
13836TIP3   OH262922   1.231   4.374  14.972  0.1796  0.0390 -0.3941
13836TIP3    H162923   1.281   4.316  14.915  1.7185  0.4700  0.4805
13836TIP3    H262924   1.268   4.461  14.957 -0.7053  0.4780 -0.1425
13837TIP3   OH262925   1.623   4.261   5.537 -0.2010  0.6325 -0.3195
13837TIP3    H162926   1.644   4.241   5.628 -2.7424  0.9301  0.3851
13837TIP3    H262927   1.676   4.199   5.487 -0.1094 -0.7829  1.4272
13838TIP3   OH262928   3.155   5.972   2.872 -0.3444  0.1256 -0.4925
13838TIP3    H162929   3.157   5.971   2.968  0.3426 -1.1916 -0.5016
13838TIP3    H262930   3.244   5.949   2.846 -0.4855  0.6177 -1.4657
13839TIP3   OH262931   6.650   0.310   1.496  0.2406 -0.1092  0.5882
13839TIP3    H162932   6.580   0.296   1.559  1.2584 -0.3793  1.7069
13839TIP3    H262933   6.606   0.343   1.418 -1.1047 -0.1658  1.2886
13840TIP3   OH262934   6.594   3.731  12.341 -0.6028 -0.3284 -0.5691
13840TIP3    H162935   6.633   3.647  12.361 -2.8786 -1.1822  0.6286
13840TIP3    H262936   6.556   3.760  12.423 -1.0938  1.2029 -1.2970
13841TIP3   OH262937   0.665   3.033   5.623 -0.4082 -0.6431 -0.4261
13841TIP3    H162938   0.668   3.035   5.719 -2.1245 -0.0714 -0.3391
13841TIP3    H262939   0.671   2.940   5.601  1.7143 -0.6886  0.1020
13842TIP3   OH262940   1.761   2.811  13.821  0.3325 -0.0794  0.1793
13842TIP3    H162941   1.761   2.715  13.814 -0.5453  0.0341 -2.4348
13842TIP3    H262942   1.802   2.841  13.740  0.3241  1.7732  0.8278
13843TIP3   OH262943   1.616   0.876   6.001  0.0155  0.3883  0.0394
13843TIP3    H162944   1.566   0.948   5.961 -1.5088 -1.7878 -2.2815
13843TIP3    H262945   1.550   0.823   6.045  0.7120 -0.9048 -0.4253
13844TIP3   OH262946   5.614   1.580  14.312  0.0879 -0.2131  0.1969
13844TIP3    H162947   5.606   1.601  14.405 -1.7111 -1.0861  0.2836
13844TIP3    H262948   5.707   1.588  14.294  0.3036  1.4219  1.7061
13845TIP3   OH262949   3.474   1.911   0.851  0.2219 -0.3054 -0.2219
13845TIP3    H162950   3.435   1.853   0.916  0.8149 -0.4622  0.0053
13845TIP3    H262951   3.423   1.897   0.771  0.8666 -1.7608 -0.4067
13846TIP3   OH262952   4.609   6.226   5.798  0.2037  0.0903 -0.1440
13846TIP3    H162953   4.676   6.184   5.744  1.7447  0.9012  1.0209
13846TIP3    H262954   4.645   6.223   5.887 -1.7258 -0.1930  0.6793
13847TIP3   OH262955   3.107   6.504  13.396  0.2743 -0.1596 -0.1099
13847TIP3    H162956   3.044   6.551  13.449  0.6897  0.1968  0.0732
13847TIP3    H262957   3.054   6.452  13.335 -0.1868  0.1966 -0.0107
13848TIP3   OH262958   5.630   3.533  16.440 -0.2935 -0.1759  0.6309
13848TIP3    H162959   5.672   3.455  16.475  0.3176  0.2938  0.9524
13848TIP3    H262960   5.677   3.606  16.479 -2.3447  0.3931  2.2161
13849TIP3   OH262961   3.977   5.551   4.759 -0.1644  0.5372 -0.0215
13849TIP3    H162962   3.970   5.479   4.696 -2.6541  2.2784 -1.9303
13849TIP3    H262963   3.909   5.533   4.824  0.5700  0.1694  0.6657
13850TIP3   OH262964   3.604   1.643  15.632  0.0033 -0.2287  0.8610
13850TIP3    H162965   3.524   1.611  15.673 -0.2447  1.9828  2.2891
13850TIP3    H262966   3.607   1.599  15.547 -2.6506 -0.4492  0.8013
13851TIP3   OH262967   6.186   1.932   3.786  0.6908 -0.7777  0.9050
13851TIP3    H162968   6.268   1.979   3.773  0.4624 -0.9621 -1.7977
13851TIP3    H262969   6.149   1.924   3.698 -1.7446 -1.5883  1.9193
13852TIP3   OH262970   0.559   6.265  13.723  0.2367 -0.1883 -0.0668
13852TIP3    H162971   0.476   6.272  13.676  0.0957  0.0189  0.2115
13852TIP3    H262972   0.621   6.314  13.669  0.2911 -0.7583 -0.5280
13853TIP3   OH262973   1.084   0.714  14.146 -0.3617 -0.4181 -0.4911
13853TIP3    H162974   1.155   0.776  14.155 -0.2824 -0.5000 -0.5516
13853TIP3    H262975   1.012   0.764  14.109 -0.9883  0.1506  1.3662
13854TIP3   OH262976   0.161   0.452   1.885 -0.2283  0.2188  0.0149
13854TIP3    H162977   0.136   0.528   1.938 -0.7580 -0.1607  0.3153
13854TIP3    H262978   0.083   0.432   1.833  0.7189  1.4805 -2.0222
13855TIP3   OH262979   2.685   2.263  13.563 -0.3023  0.2409 -0.2681
13855TIP3    H162980   2.605   2.220  13.532  0.1905  0.0707 -1.3590
13855TIP3    H262981   2.728   2.294  13.483  1.0225 -0.2078  0.2373
13856TIP3   OH262982   3.831   4.960   3.584 -0.6469 -0.4672 -0.6121
13856TIP3    H162983   3.773   5.030   3.555 -0.7121  0.2274  1.0490
13856TIP3    H262984   3.908   4.967   3.529 -0.3426  1.4109 -0.0088
13857TIP3   OH262985   1.795   3.425  13.961  0.3997 -0.2010  0.0958
13857TIP3    H162986   1.822   3.511  13.993  0.4588  0.0418 -0.6107
13857TIP3    H262987   1.725   3.399  14.021 -0.2659  0.7537 -0.2483
13858TIP3   OH262988   2.592   6.409   3.301  0.6518 -0.2416  0.2344
13858TIP3    H162989   2.626   6.432   3.214  0.2171  0.3111  0.2110
13858TIP3    H262990   2.509   6.363   3.283  0.2550  0.4134  0.3785
13859TIP3   OH262991   6.601   5.474  13.800  0.3013  0.0132 -0.4812
13859TIP3    H162992   6.638   5.430  13.723 -1.5768 -0.5437 -1.1329
13859TIP3    H262993   6.641   5.560  13.801  1.6320 -0.5734 -1.0812
13860TIP3   OH262994   6.017   5.885  12.651  0.2071  0.1843 -0.1926
13860TIP3    H162995   5.959   5.866  12.725  0.9873  1.3972  0.7668
13860TIP3    H262996   5.988   5.969  12.618  1.7031  1.0899  0.6563
13861TIP3   OH262997   3.186   1.082   5.541  0.5303 -0.2306 -0.5714
13861TIP3    H162998   3.136   1.133   5.478  1.3438  0.9857 -0.2607
13861TIP3    H262999   3.216   1.006   5.492 -0.7172 -0.4436 -1.0330
13862TIP3   OH263000   5.708   4.523   2.636 -0.2866 -0.0044 -0.0545
13862TIP3    H163001   5.670   4.448   2.682 -2.0214  0.2391 -1.0006
13862TIP3    H263002   5.736   4.583   2.705 -0.3313 -0.8308  0.6923
13863TIP3   OH263003   0.548   1.678   3.111 -0.0807  0.3092 -0.0194
13863TIP3    H163004   0.633   1.634   3.111  0.8147  1.8925 -1.9104
13863TIP3    H263005   0.485   1.606   3.112  1.3023 -1.0444 -2.0269
13864TIP3   OH263006   1.197   4.161  13.478  0.4240  0.9244  0.4762
13864TIP3    H163007   1.207   4.181  13.385 -1.9930 -0.1299 -0.1017
13864TIP3    H263008   1.161   4.242  13.516 -0.7695  0.6369 -0.0049
13865TIP3   OH263009   1.367   3.484  12.022  0.3278 -0.4307  0.6950
13865TIP3    H163010   1.337   3.399  11.991 -3.0764  1.2133 -1.0283
13865TIP3    H263011   1.343   3.486  12.115 -1.8014 -0.5405  0.1932
13866TIP3   OH263012   6.392   6.319   4.032  0.2655  0.0698  0.0371
13866TIP3    H163013   6.363   6.387   3.972 -0.1114  0.1949  0.3588
13866TIP3    H263014   6.321   6.309   4.095  1.3108  1.1024  1.4531
13867TIP3   OH263015   1.573   0.791   4.471 -0.3932  0.7918  0.0240
13867TIP3    H163016   1.591   0.820   4.382  1.4329 -0.8765 -0.2218
13867TIP3    H263017   1.527   0.708   4.460 -0.0261  0.5005  0.6179
13868TIP3   OH263018   5.929   5.802  15.722  0.1719  0.7034 -0.5898
13868TIP3    H163019   5.924   5.759  15.636  0.7845  0.4194 -0.4868
13868TIP3    H263020   5.849   5.855  15.727  0.3687  1.1192 -1.5500
13869TIP3   OH263021   5.233   3.588  12.527  0.1140  0.9747 -0.8393
13869TIP3    H163022   5.195   3.541  12.453 -0.7986 -0.6460  0.5838
13869TIP3    H263023   5.163   3.591  12.592  0.9669  2.1222  0.0727
13870TIP3   OH263024   3.673   5.107   6.494  0.1973  0.4830  0.1310
13870TIP3    H163025   3.672   5.154   6.577  1.1212  0.4572  0.1681
13870TIP3    H263026   3.765   5.105   6.469  0.5288 -2.8562  1.0514
13871TIP3   OH263027   2.935   3.777  14.379  0.1435 -0.4758  0.0320
13871TIP3    H163028   2.963   3.860  14.342 -2.1441  0.0636 -0.6186
13871TIP3    H263029   2.888   3.800  14.459  1.4247 -1.3474  1.0904
13872TIP3   OH263030   1.005   2.589   4.604 -0.7051 -0.0993 -0.0455
13872TIP3    H163031   0.971   2.659   4.548  1.6289  0.5632 -0.7518
13872TIP3    H263032   1.093   2.618   4.628 -0.4490 -1.8626  1.3650
13873TIP3   OH263033   5.599   4.022  13.741 -0.2338  0.2921  0.0642
13873TIP3    H163034   5.654   4.092  13.777 -2.3101  1.6801  0.7863
13873TIP3    H263035   5.587   4.045  13.649  1.2077 -0.6106 -0.3724
13874TIP3   OH263036   1.934   1.850   3.605  0.1006  0.1625 -0.1934
13874TIP3    H163037   1.920   1.784   3.537 -1.0003  0.6740 -0.4813
13874TIP3    H263038   1.977   1.923   3.560  0.7539 -0.1060 -0.0090
13875TIP3   OH263039   1.970   5.683   4.532 -0.4455 -0.3884  0.2195
13875TIP3    H163040   1.948   5.667   4.624 -0.5436  0.0916  0.2824
13875TIP3    H263041   1.890   5.659   4.484 -0.1506 -1.3429  0.1854
13876TIP3   OH263042   1.331   1.677   1.462  0.0318  0.0347  1.0924
13876TIP3    H163043   1.265   1.649   1.399  0.0758 -0.1482  1.1260
13876TIP3    H263044   1.289   1.746   1.513  0.5902  1.4675 -0.3164
13877TIP3   OH263045   0.607   3.281   6.342  0.1955 -0.2984  0.1395
13877TIP3    H163046   0.581   3.210   6.401  1.5691 -0.6120  0.4018
13877TIP3    H263047   0.602   3.242   6.255  0.8054 -0.6820  0.2711
13878TIP3   OH263048   1.079   0.209  11.181 -0.0324  0.2749 -0.0669
13878TIP3    H163049   1.055   0.219  11.088 -0.3362  0.4579  0.0297
13878TIP3    H263050   1.136   0.132  11.183  0.2192  0.4447 -0.4507
13879TIP3   OH263051   1.728   1.309  14.394  0.1900  0.0783 -0.4252
13879TIP3    H163052   1.733   1.265  14.309 -0.9281  1.0955 -1.0526
13879TIP3    H263053   1.756   1.399  14.376 -0.1382  0.3274  0.2597
13880TIP3   OH263054   6.647   5.200  17.130 -0.0153  0.1681  0.5166
13880TIP3    H163055   6.553   5.196  17.148 -0.4615  0.0924 -1.5832
13880TIP3    H263056   6.676   5.108  17.132 -0.2085  0.0982  0.1463
13881TIP3   OH263057   5.871   4.131  13.443  0.1863 -0.1865 -0.0271
13881TIP3    H163058   5.783   4.098  13.429  0.3485 -2.2344  2.9871
13881TIP3    H263059   5.893   4.107  13.532  2.3924  3.6837  0.7396
13882TIP3   OH263060   3.529   6.260  11.108  0.0785  0.3352 -0.0993
13882TIP3    H163061   3.591   6.187  11.101 -1.5435 -1.2429  1.2887
13882TIP3    H263062   3.558   6.308  11.186 -0.5549 -0.5452  0.6967
13883TIP3   OH263063   3.908   5.725  14.633  0.0721  0.1052  0.0140
13883TIP3    H163064   3.992   5.768  14.653  0.8793 -1.9859  1.3813
13883TIP3    H263065   3.859   5.792  14.584  1.4784  2.3359  1.4537
13884TIP3   OH263066   2.334   0.256  11.846  0.0981 -0.0854  0.4786
13884TIP3    H163067   2.397   0.327  11.848  1.5232 -1.2951  0.3573
13884TIP3    H263068   2.316   0.243  11.752 -1.5284  1.2356  0.5708
13885TIP3   OH263069   1.054   4.645   4.122 -0.2535  0.3363 -0.6073
13885TIP3    H163070   1.010   4.687   4.196 -0.5165  1.3058 -1.3088
13885TIP3    H263071   1.109   4.578   4.163 -2.2464 -0.8514  0.3269
13886TIP3   OH263072   4.933   2.603  15.797  0.2445  0.1472  0.0049
13886TIP3    H163073   5.011   2.602  15.853 -0.0379 -0.2053  0.3929
13886TIP3    H263074   4.921   2.512  15.770 -1.7279 -0.3843  2.3309
13887TIP3   OH263075   5.531   4.303   4.967  0.0024 -0.6783 -0.0100
13887TIP3    H163076   5.463   4.244   4.933 -0.7485 -0.0520  0.3474
13887TIP3    H263077   5.483   4.383   4.990  0.8664 -0.2356  0.2947
13888TIP3   OH263078   6.488   0.862  11.787  0.1857 -0.0401  0.7654
13888TIP3    H163079   6.507   0.781  11.739 -0.8926 -0.3923  0.8946
13888TIP3    H263080   6.539   0.855  11.867  2.3276  0.7406 -0.4600
13889TIP3   OH263081   2.217   4.321  13.368 -0.2387 -0.0131  0.2482
13889TIP3    H163082   2.289   4.353  13.423 -1.5445  1.8135  1.0194
13889TIP3    H263083   2.174   4.401  13.337 -1.3677 -1.0493 -0.9582
13890TIP3   OH263084   4.101   1.591  14.977 -0.1714 -0.2916 -0.0755
13890TIP3    H163085   4.196   1.593  14.983 -0.0568  3.0359 -1.1644
13890TIP3    H263086   4.083   1.540  14.898  0.6976 -0.6897 -0.0241
13891TIP3   OH263087   3.161   4.397   5.322 -0.3536 -0.8974  0.0728
13891TIP3    H163088   3.128   4.350   5.399  1.2386  0.5378  1.6986
13891TIP3    H263089   3.105   4.474   5.315 -0.8829 -1.3255 -0.6277
13892TIP3   OH263090   2.038   4.921   2.951  0.3022 -0.0889 -0.1834
13892TIP3    H163091   2.075   4.902   2.865  1.0121  0.4760 -0.0179
13892TIP3    H263092   2.103   4.978   2.993 -0.4274  0.3381  0.4005
13893TIP3   OH263093   2.001   3.807  12.877  0.3638  0.0412  0.3247
13893TIP3    H163094   2.061   3.837  12.945 -0.0673  0.1178  0.6765
13893TIP3    H263095   1.946   3.883  12.858  0.7098  0.1298 -0.3723
13894TIP3   OH263096   5.234   2.268   2.680  0.4549  0.5334 -0.2595
13894TIP3    H163097   5.258   2.271   2.773 -0.4446 -0.5470  0.0326
13894TIP3    H263098   5.309   2.225   2.638  0.5761  0.4165  0.0737
13895TIP3   OH263099   5.283   5.917   4.780 -0.1150  0.0555 -0.2655
13895TIP3    H163100   5.200   5.919   4.734 -1.5643  0.2351  2.2057
13895TIP3    H263101   5.313   6.008   4.781 -2.5265  1.0261  3.1053
13896TIP3   OH263102   4.985   4.726  12.042  0.4344  0.2654  0.0543
13896TIP3    H163103   4.911   4.739  11.983 -0.6937  0.9617  1.5436
13896TIP3    H263104   5.058   4.773  12.001 -0.4295  1.0709 -0.5828
13897TIP3   OH263105   3.342   4.308  12.313  0.3765  0.2568  0.2479
13897TIP3    H163106   3.267   4.248  12.305 -0.3520  1.1714  0.0086
13897TIP3    H263107   3.419   4.251  12.305 -0.2800 -0.7396  0.7382
13898TIP3   OH263108   5.793   1.583   0.176  0.0658 -0.3328 -0.3305
13898TIP3    H163109   5.707   1.610   0.146  0.3510  0.3215 -0.5696
13898TIP3    H263110   5.786   1.488   0.187 -0.6493 -0.2962 -0.4415
13899TIP3   OH263111   3.421   4.744   2.038 -0.5142  0.3479 -0.1179
13899TIP3    H163112   3.469   4.666   2.066 -0.8711 -0.0953 -0.7236
13899TIP3    H263113   3.331   4.714   2.024 -0.3424  0.5161 -1.8017
13900TIP3   OH263114   1.597   2.000   0.333 -0.0265  0.4322  0.0386
13900TIP3    H163115   1.572   1.908   0.343  1.8098 -0.2493 -1.0292
13900TIP3    H263116   1.657   2.016   0.406 -0.2069  0.7252  0.1218
13901TIP3   OH263117   1.546   0.750  16.915 -0.0893 -0.1746  0.5994
13901TIP3    H163118   1.551   0.666  16.960  0.9580 -0.3783  0.1348
13901TIP3    H263119   1.515   0.729  16.827  2.1501 -0.3945 -0.2089
13902TIP3   OH263120   2.495   5.814  12.291 -0.3508 -0.5857 -0.0462
13902TIP3    H163121   2.403   5.814  12.316 -0.8102 -0.5536 -1.6363
13902TIP3    H263122   2.529   5.897  12.323 -0.6581 -0.9302  1.2281
13903TIP3   OH263123   3.947   0.283  16.036  0.3782 -0.4461 -0.4749
13903TIP3    H163124   3.929   0.377  16.029 -2.8769 -1.0329 -2.7471
13903TIP3    H263125   3.926   0.260  16.126  0.9493  0.9561  0.0256
13904TIP3   OH263126   3.135   3.395  14.780 -0.1308 -0.4925  0.7136
13904TIP3    H163127   3.042   3.374  14.784 -0.2051 -0.3673 -0.1014
13904TIP3    H263128   3.141   3.486  14.808 -0.2883 -0.4145  0.4920
13905TIP3   OH263129   3.802   6.044  17.045  0.3444  0.8323 -0.3662
13905TIP3    H163130   3.769   6.100  16.976 -0.2751  0.0405 -0.7310
13905TIP3    H263131   3.739   6.054  17.117  0.3434  0.7595 -0.3562
13906TIP3   OH263132   5.459   2.688   2.712  0.3661 -0.3351 -0.3965
13906TIP3    H163133   5.382   2.743   2.699  1.8210  1.4609 -2.0530
13906TIP3    H263134   5.481   2.656   2.625  0.6870 -2.0041  0.2639
13907TIP3   OH263135   0.119   6.658   3.859 -0.4424  0.5001 -0.3146
13907TIP3    H163136   0.094   6.603   3.785 -2.1558 -1.1589  1.3869
13907TIP3    H263137   0.047   6.649   3.921  0.7031  2.2191  1.3692
13908TIP3   OH263138   5.024   4.025   2.527  0.4477  0.0573 -0.1320
13908TIP3    H163139   4.933   4.054   2.528  0.1471 -0.6953 -1.7368
13908TIP3    H263140   5.018   3.930   2.513  1.4715 -0.2547  1.3232
13909TIP3   OH263141   5.467   0.158  16.524 -0.4136  0.4199 -0.4604
13909TIP3    H163142   5.396   0.212  16.489 -1.7213 -0.5462  0.5972
13909TIP3    H263143   5.546   0.193  16.483 -1.7958 -1.0558 -5.0034
13910TIP3   OH263144   5.583   1.683   0.363 -0.5577 -0.7850 -0.4100
13910TIP3    H163145   5.648   1.751   0.385 -0.1110 -0.7267 -1.8337
13910TIP3    H263146   5.632   1.601   0.371 -0.5852 -0.8117 -0.5254
13911TIP3   OH263147   1.702   3.084   1.211 -0.4405 -0.1956 -0.3442
13911TIP3    H163148   1.738   2.999   1.187 -0.4279  0.3490 -2.4561
13911TIP3    H263149   1.709   3.137   1.131 -1.2414  1.5197  0.6551
13912TIP3   OH263150   4.248   4.635  13.233 -0.0368  0.7107  0.4203
13912TIP3    H163151   4.319   4.698  13.224 -0.4523  1.2124  0.6502
13912TIP3    H263152   4.181   4.680  13.285 -1.2542  0.8568 -1.2044
13913TIP3   OH263153   0.280   1.854  17.123  0.5171  0.3799  0.2353
13913TIP3    H163154   0.191   1.823  17.111  1.2144 -1.1739 -1.2302
13913TIP3    H263155   0.335   1.791  17.077  2.1547  2.9497 -1.6276
13914TIP3   OH263156   0.732   1.914  16.860  0.2440  0.0152  0.5121
13914TIP3    H163157   0.748   1.955  16.775 -0.1044  0.6319  0.7421
13914TIP3    H263158   0.815   1.872  16.881  0.7241  0.8809  0.4205
13915TIP3   OH263159   1.616   1.048   4.910  0.2454  0.7372 -0.2719
13915TIP3    H163160   1.707   1.034   4.938  0.3040  1.4486 -0.0663
13915TIP3    H263161   1.616   1.026   4.817  0.5017  0.2181 -0.1548
13916TIP3   OH263162   1.642   6.439   1.335 -0.2480 -0.2624  0.1951
13916TIP3    H163163   1.656   6.521   1.289  2.2228 -0.2521  0.8230
13916TIP3    H263164   1.605   6.464   1.419  3.0220  0.6189  1.5373
13917TIP3   OH263165   4.034   1.657  14.287  0.1109 -0.1220  0.2949
13917TIP3    H163166   4.080   1.701  14.216 -1.0710 -0.3519 -0.6491
13917TIP3    H263167   4.051   1.564  14.273  0.7811 -0.1154  0.9845
13918TIP3   OH263168   4.718   3.539   4.880  0.0715 -0.2677 -0.2694
13918TIP3    H163169   4.718   3.450   4.844 -0.2840 -0.2920 -0.2152
13918TIP3    H263170   4.700   3.595   4.805  0.4163 -0.2297 -0.3251
13919TIP3   OH263171   0.587   1.984   0.043  0.6449 -0.3290  0.3163
13919TIP3    H163172   0.632   2.040   0.106  0.0730  0.9347 -0.3622
13919TIP3    H263173   0.524   2.042  -0.001 -0.8386 -1.7736  0.4288
13920TIP3   OH263174   0.526   5.641  14.062  0.0328  0.7440 -0.2981
13920TIP3    H163175   0.512   5.732  14.036 -2.4168  0.7076  0.6189
13920TIP3    H263176   0.445   5.616  14.107  1.4668 -1.2301  1.3957
13921TIP3   OH263177   0.156   0.772   1.549  0.3349 -0.1995 -0.3491
13921TIP3    H163178   0.165   0.778   1.454 -1.3235 -0.1433 -0.5373
13921TIP3    H263179   0.180   0.859   1.581 -2.6097  1.0350 -1.1154
13922TIP3   OH263180   4.096   5.940  14.696  0.0111 -0.4348  0.0855
13922TIP3    H163181   4.081   6.002  14.767  1.5407  0.2138 -0.1064
13922TIP3    H263182   4.190   5.945  14.680 -0.3842  0.0997 -2.5687
13923TIP3   OH263183   2.657   0.929   6.503 -0.0667 -0.1139  0.1919
13923TIP3    H163184   2.633   0.912   6.412 -2.0127  1.9621  0.2272
13923TIP3    H263185   2.747   0.899   6.510  0.0878 -0.4827 -2.3734
13924TIP3   OH263186   5.632   4.196   3.585 -0.2831  0.1952  0.2989
13924TIP3    H163187   5.627   4.151   3.670 -1.7912 -0.3125 -0.0375
13924TIP3    H263188   5.606   4.286   3.603 -0.7294  0.0552  0.3522
13925TIP3   OH263189   1.964   3.643  11.219 -0.1731 -0.2129  0.3032
13925TIP3    H163190   2.053   3.660  11.251 -0.4502 -0.4074  1.1973
13925TIP3    H263191   1.977   3.609  11.131  0.5895  0.7424  0.0241
13926TIP3   OH263192   6.112   1.212  13.650  0.3190 -0.4040  0.5670
13926TIP3    H163193   6.038   1.244  13.701  0.2896 -1.0587  0.9551
13926TIP3    H263194   6.187   1.216  13.710  0.1189 -1.9860  0.9821
13927TIP3   OH263195   3.295   5.928   4.626 -0.3128 -0.0355  0.2982
13927TIP3    H163196   3.368   5.906   4.568  1.3103 -0.4168  2.3370
13927TIP3    H263197   3.219   5.934   4.568  1.1348 -0.6261 -1.7939
13928TIP3   OH263198   6.001   2.975  11.915 -0.5210 -0.4683  0.0232
13928TIP3    H163199   6.063   2.956  11.845  1.5342 -1.2592  1.9607
13928TIP3    H263200   6.036   3.052  11.958 -1.8756  0.1324  0.1165
13929TIP3   OH263201   4.472   2.059  14.431  0.0887  0.3246  0.0736
13929TIP3    H163202   4.393   2.017  14.397  0.4005 -0.2224  0.0088
13929TIP3    H263203   4.457   2.066  14.525  0.0798 -0.0511  0.1044
13930TIP3   OH263204   5.752   3.762   1.194  0.3895  0.2378 -0.7275
13930TIP3    H163205   5.661   3.754   1.166 -0.1115 -0.1012  0.9353
13930TIP3    H263206   5.776   3.674   1.224  0.6582  0.7395  0.5776
13931TIP3   OH263207   0.367   2.231   4.757  0.3948 -0.2663 -0.5157
13931TIP3    H163208   0.343   2.183   4.836  0.1840  0.1676 -0.3170
13931TIP3    H263209   0.300   2.298   4.748  1.3063  0.7158 -0.1669
13932TIP3   OH263210   0.130   1.004   6.429  0.0863 -0.1918  0.4977
13932TIP3    H163211   0.207   0.951   6.410 -1.4179 -1.8718 -1.2848
13932TIP3    H263212   0.148   1.088   6.388 -0.0993 -1.4542 -2.3829
13933TIP3   OH263213   4.996   0.342  11.703 -0.1624 -0.0269  0.4902
13933TIP3    H163214   4.940   0.303  11.636 -0.6627  0.4591  0.6161
13933TIP3    H263215   5.073   0.372  11.656 -0.7483  0.7895  0.0454
13934TIP3   OH263216   2.693   6.212   1.832 -0.2392 -0.4030  0.1475
13934TIP3    H163217   2.704   6.135   1.888 -0.3358  0.6489  1.6746
13934TIP3    H263218   2.625   6.186   1.770 -0.0813 -1.6355  0.4495
13935TIP3   OH263219   3.969   3.980  11.486  0.0767  0.1290  0.1556
13935TIP3    H163220   3.906   3.921  11.445  0.6653  0.4496 -1.2547
13935TIP3    H263221   3.984   4.049  11.421  1.5250  0.3171  0.6491
13936TIP3   OH263222   0.195   2.154   2.760  0.0974 -0.1861  0.3632
13936TIP3    H163223   0.140   2.200   2.697  1.2971 -0.2174 -0.7529
13936TIP3    H263224   0.192   2.062   2.733 -0.6943 -0.4722  1.3726
13937TIP3   OH263225   0.381   5.244  14.446 -0.4561  0.0325  0.5996
13937TIP3    H163226   0.446   5.275  14.383  0.9703 -3.0315  0.3970
13937TIP3    H263227   0.426   5.244  14.530 -1.3023  0.9680  1.0795
13938TIP3   OH263228   3.411   5.183  15.457  0.4529 -0.0628  0.1148
13938TIP3    H163229   3.332   5.140  15.424  0.0247 -0.8196  2.0236
13938TIP3    H263230   3.483   5.129  15.425  0.1578  0.0571 -0.7818
13939TIP3   OH263231   5.467   2.296   5.891  0.4834 -0.4025  0.7294
13939TIP3    H163232   5.513   2.373   5.925 -1.9945  1.7664 -0.4581
13939TIP3    H263233   5.461   2.237   5.967  2.4229  0.5181  1.6929
13940TIP3   OH263234   1.464   1.752   0.428  0.0612  0.1007 -0.6955
13940TIP3    H163235   1.500   1.667   0.456 -0.3676 -0.1516 -0.8983
13940TIP3    H263236   1.372   1.734   0.411 -0.2673  0.8520  0.2560
13941TIP3   OH263237   0.677   4.618   2.054  0.6905  0.2938 -0.5179
13941TIP3    H163238   0.749   4.576   2.006  0.1520 -0.3493 -0.7794
13941TIP3    H263239   0.669   4.704   2.014 -0.3749 -0.5767 -2.2673
13942TIP3   OH263240   0.959   0.438  11.277 -0.1476  0.0590  0.1103
13942TIP3    H163241   0.880   0.449  11.225 -0.6481  0.3830  0.9208
13942TIP3    H263242   1.002   0.361  11.239 -1.2764 -0.6348  0.1900
13943TIP3   OH263243   0.281   6.012  16.739  0.1688  0.4748 -0.0121
13943TIP3    H163244   0.287   5.991  16.832  0.0073 -1.1240 -0.3457
13943TIP3    H263245   0.260   5.929  16.696  0.5508  1.1181 -1.5194
13944TIP3   OH263246   4.267   0.779   0.136  0.1861 -0.7001  0.1031
13944TIP3    H163247   4.252   0.842   0.065  0.0850 -0.5154  0.2889
13944TIP3    H263248   4.362   0.765   0.135  0.2706 -0.1869  0.3647
13945TIP3   OH263249   1.970   5.267  13.125  0.1129 -0.4627  0.5755
13945TIP3    H163250   1.911   5.271  13.200 -0.4632 -0.6768  0.1428
13945TIP3    H263251   1.976   5.173  13.105  2.6303 -0.7472  2.1760
13946TIP3   OH263252   3.314   4.760  12.087  0.0792 -0.0381 -0.4167
13946TIP3    H163253   3.377   4.781  12.156 -0.7530  0.6127  0.1730
13946TIP3    H263254   3.338   4.817  12.014 -0.9004  1.5539  0.4485
13947TIP3   OH263255   6.724   6.604   1.619 -0.1138  0.5164  0.6107
13947TIP3    H163256   6.711   6.515   1.650  1.4815  0.3794  1.0057
13947TIP3    H263257   6.636   6.639   1.606 -0.9541 -2.2903 -3.0688
13948TIP3   OH263258   2.296   5.719   1.867  0.6782  0.3295 -0.8367
13948TIP3    H163259   2.239   5.789   1.834  0.4086 -0.2614 -1.6445
13948TIP3    H263260   2.376   5.765   1.893  0.6465  0.9014 -1.6978
13949TIP3   OH263261   0.247   0.979  14.892 -0.0463  0.1690 -0.0312
13949TIP3    H163262   0.297   1.011  14.966  0.3359  1.0852 -0.6704
13949TIP3    H263263   0.158   1.013  14.905  0.3081  1.3620 -0.6015
13950TIP3   OH263264   2.728   5.918   3.144 -0.5473  0.3628 -0.3952
13950TIP3    H163265   2.702   5.974   3.218  2.7081  1.2108  0.3042
13950TIP3    H263266   2.731   5.830   3.181 -3.2207  0.0127 -0.8152
13951TIP3   OH263267   1.725   4.634  13.183 -0.5343 -0.2631  0.0516
13951TIP3    H163268   1.801   4.660  13.236  0.5463 -1.1992 -0.9928
13951TIP3    H263269   1.659   4.701  13.202  1.0193  1.3811 -0.0736
13952TIP3   OH263270   2.174   1.112   2.186 -0.5447  0.0540  0.7687
13952TIP3    H163271   2.191   1.027   2.147  0.7966  0.6553 -0.0258
13952TIP3    H263272   2.251   1.164   2.165 -0.9120  1.1875  2.0573
13953TIP3   OH263273   1.789   0.549  16.851  0.4699 -0.1563 -0.2024
13953TIP3    H163274   1.735   0.535  16.929  0.7093 -1.4538 -0.2482
13953TIP3    H263275   1.733   0.522  16.778 -0.3104  2.4641 -0.6865
13954TIP3   OH263276   4.561   0.542  14.697  0.4465 -0.5412  0.1148
13954TIP3    H163277   4.585   0.574  14.610 -0.2167 -0.8580 -0.1947
13954TIP3    H263278   4.527   0.619  14.742  0.8034 -0.3726  0.0992
13955TIP3   OH263279   0.284   2.613  16.671  0.1899  0.4399  0.1815
13955TIP3    H163280   0.261   2.598  16.763 -1.5094  1.9206  0.0478
13955TIP3    H263281   0.296   2.526  16.635  0.1474 -0.1987  1.6328
13956TIP3   OH263282   4.041   4.509  15.424  0.2554 -0.1478 -0.1086
13956TIP3    H163283   4.102   4.565  15.375 -0.3179  0.8512  0.3084
13956TIP3    H263284   4.092   4.430  15.442  0.4705 -0.6049 -2.3659
13957TIP3   OH263285   4.969   3.401  14.612 -0.3503  0.1838 -0.1935
13957TIP3    H163286   4.949   3.414  14.520 -1.4438  0.2292  0.0301
13957TIP3    H263287   5.031   3.470  14.634  0.6368 -0.3913 -1.1091
13958TIP3   OH263288   0.429   5.253   4.908  0.3231  0.1264  0.5030
13958TIP3    H163289   0.496   5.216   4.850 -0.3462  0.5261 -0.5567
13958TIP3    H263290   0.437   5.348   4.898 -1.4418  0.1789 -0.9209
13959TIP3   OH263291   2.985   0.065   2.249 -0.4286  0.1047  0.1245
13959TIP3    H163292   2.974  -0.022   2.288 -0.0634  0.4746  1.0984
13959TIP3    H263293   2.897   0.088   2.218 -0.5269 -0.6058 -0.1383
13960TIP3   OH263294   4.398   6.491  11.865 -0.3196 -0.7564 -0.1039
13960TIP3    H163295   4.380   6.398  11.851  0.5816 -1.0267  0.4758
13960TIP3    H263296   4.419   6.498  11.958  3.0377 -0.5915 -0.7410
13961TIP3   OH263297   1.253   2.017   4.190  0.2643  0.3548  0.2077
13961TIP3    H163298   1.170   1.972   4.202 -0.0576  0.6441 -0.8263
13961TIP3    H263299   1.311   1.950   4.154 -0.3479  0.8416 -1.7798
13962TIP3   OH263300   5.866   1.369   4.634  0.8818  0.3565  0.5343
13962TIP3    H163301   5.859   1.463   4.620  2.3938  0.4078 -0.1558
13962TIP3    H263302   5.878   1.332   4.547 -2.0053 -0.7835  0.5255
13963TIP3   OH263303   2.758   3.815   4.601  0.0082 -0.1338 -0.3564
13963TIP3    H163304   2.681   3.850   4.556 -0.2186  0.7841  0.6942
13963TIP3    H263305   2.831   3.839   4.545 -0.3383  0.3480 -0.6147
13964TIP3   OH263306   6.340   2.918   1.076  0.6034 -0.1791  0.4138
13964TIP3    H163307   6.270   2.892   1.136 -1.0626 -0.0598 -1.3804
13964TIP3    H263308   6.363   2.838   1.029 -0.5147  0.3232 -1.0994
13965TIP3   OH263309   3.080   6.267   1.417  0.1670 -0.1377 -0.0448
13965TIP3    H163310   3.101   6.264   1.510 -1.1581 -1.1482  0.2561
13965TIP3    H263311   3.048   6.356   1.402  1.5593  0.4186  0.1691
13966TIP3   OH263312   3.377   6.561   3.675 -0.1247 -0.0097 -0.2606
13966TIP3    H163313   3.460   6.600   3.703 -0.8621  0.5429  1.2086
13966TIP3    H263314   3.315   6.582   3.744 -1.9395  1.0398 -2.0726
13967TIP3   OH263315   2.306   2.002   0.436  0.2790  0.6970 -0.0595
13967TIP3    H163316   2.280   1.995   0.527 -0.6733  1.4052 -0.2560
13967TIP3    H263317   2.224   1.991   0.387  1.0708 -1.7386 -0.9376
13968TIP3   OH263318   4.615   1.482  11.629  0.1852  0.2261  0.4822
13968TIP3    H163319   4.667   1.549  11.673  1.2837 -0.4716  0.2734
13968TIP3    H263320   4.527   1.520  11.623  0.8593  1.7845  0.0494
13969TIP3   OH263321   6.024   2.292  13.953  0.6018 -0.2309 -0.2187
13969TIP3    H163322   6.032   2.380  13.990  2.1499 -0.6886  0.6188
13969TIP3    H263323   5.930   2.277  13.948  0.3132  1.2708  0.0865
13970TIP3   OH263324   5.424   4.228   0.350  1.0825  0.4779 -0.3578
13970TIP3    H163325   5.481   4.152   0.354  0.1866 -0.2417 -0.8535
13970TIP3    H263326   5.483   4.303   0.355  2.0855 -0.2409 -1.1628
13971TIP3   OH263327   3.322   6.180  11.537  0.3894 -0.3675 -0.1110
13971TIP3    H163328   3.266   6.188  11.460  0.4401  0.0055 -0.1115
13971TIP3    H263329   3.261   6.173  11.610  0.2809 -3.0490 -0.3538
13972TIP3   OH263330   1.779   3.170  14.165 -0.2898 -0.0757 -0.1861
13972TIP3    H163331   1.708   3.233  14.153 -0.1798  0.1133  0.1407
13972TIP3    H263332   1.782   3.155  14.260 -0.3298 -0.5928 -0.2627
13973TIP3   OH263333   2.075   2.789   5.561  0.0625 -0.2428 -0.1823
13973TIP3    H163334   2.024   2.869   5.578  0.5700  0.3609 -1.3887
13973TIP3    H263335   2.031   2.748   5.487 -1.1860 -2.0007  1.4465
13974TIP3   OH263336   4.335   3.508   5.219  0.1314 -0.4711 -0.4684
13974TIP3    H163337   4.404   3.445   5.198 -0.0058 -0.5685 -0.6285
13974TIP3    H263338   4.354   3.583   5.162  0.4728 -0.2417 -0.0599
13975TIP3   OH263339   3.592   4.892  11.307 -0.0001  0.8367 -0.1255
13975TIP3    H163340   3.596   4.854  11.219 -1.8813  0.3317 -0.0260
13975TIP3    H263341   3.499   4.894  11.328  0.4286  0.6197  2.0008
13976TIP3   OH263342   1.042   0.813  12.749 -0.1364 -0.4817 -0.4241
13976TIP3    H163343   1.082   0.729  12.774  1.5965  0.1440 -0.9410
13976TIP3    H263344   1.063   0.823  12.656 -1.7377 -0.2108 -0.7781
13977TIP3   OH263345   1.398   2.640   4.376  0.0977 -0.0221  0.2032
13977TIP3    H163346   1.342   2.694   4.320 -1.4231 -0.1034  1.5675
13977TIP3    H263347   1.390   2.552   4.342 -0.7561 -0.0572  0.4747
13978TIP3   OH263348   4.892   4.378   1.391  0.0044 -0.0611 -0.2873
13978TIP3    H163349   4.976   4.332   1.389 -0.9722 -1.9277 -1.4479
13978TIP3    H263350   4.904   4.452   1.331  0.8619 -0.1890 -0.2934
13979TIP3   OH263351   3.720   2.613   2.471  0.1774  0.1632 -0.2416
13979TIP3    H163352   3.736   2.527   2.433 -1.1213 -0.4718  0.5795
13979TIP3    H263353   3.639   2.603   2.522 -0.5966  2.1301 -0.9693
13980TIP3   OH263354   2.180   4.434   2.030  0.3679  0.4142 -0.0267
13980TIP3    H163355   2.146   4.345   2.042  1.4843 -0.1215 -0.6983
13980TIP3    H263356   2.147   4.461   1.943  0.1812  0.5961  0.0983
13981TIP3   OH263357   5.218   1.935   2.234  0.2522 -0.6150  0.4445
13981TIP3    H163358   5.294   1.899   2.188 -0.2887  0.1080 -1.0958
13981TIP3    H263359   5.163   1.970   2.164 -2.8854 -3.6017  1.1452
13982TIP3   OH263360   5.173   3.891  15.283  0.0610  0.1162 -0.5149
13982TIP3    H163361   5.171   3.878  15.377  1.9081 -0.0975 -0.4771
13982TIP3    H263362   5.198   3.983  15.272  4.1713 -0.8391 -0.6980
13983TIP3   OH263363   4.582   4.753  16.066  0.0612  0.2210  0.0398
13983TIP3    H163364   4.508   4.801  16.031  0.5145  0.1625 -1.0227
13983TIP3    H263365   4.636   4.731  15.990  0.5182 -0.8549  0.6430
13984TIP3   OH263366   5.191   4.472  14.704  0.5245  0.0011  0.1368
13984TIP3    H163367   5.163   4.508  14.788 -0.0366 -2.2664  1.0176
13984TIP3    H263368   5.125   4.406  14.684  2.6788 -2.2387 -0.0851
13985TIP3   OH263369   0.899   5.372  15.159  0.2876 -0.8617 -0.0310
13985TIP3    H163370   0.895   5.278  15.173  1.6182 -0.9764 -0.2972
13985TIP3    H263371   0.992   5.391  15.152  0.0350  0.4833  0.0491
13986TIP3   OH263372   1.701   3.506  13.442  0.5897  0.3245  0.3356
13986TIP3    H163373   1.718   3.470  13.530  0.1913  1.5230  0.9223
13986TIP3    H263374   1.760   3.581  13.435  0.3588  0.4533 -0.2889
13987TIP3   OH263375   4.100   0.476  12.676  0.0200  0.1231 -0.6342
13987TIP3    H163376   4.093   0.483  12.771 -1.4532 -2.0134 -0.4988
13987TIP3    H263377   4.182   0.520  12.654  0.6502  0.2286  1.6915
13988TIP3   OH263378   1.652   4.545  15.531  0.0951 -1.1849 -0.2573
13988TIP3    H163379   1.643   4.625  15.582 -1.1439 -0.7273 -1.1409
13988TIP3    H263380   1.684   4.574  15.445  0.4546 -1.7274 -0.3091
13989TIP3   OH263381   2.639   1.456  14.613 -0.2451  0.0685 -0.1939
13989TIP3    H163382   2.631   1.370  14.654  0.1878  0.4838  0.8037
13989TIP3    H263383   2.549   1.488  14.607 -0.3340 -0.0856  0.2638
13990TIP3   OH263384   4.244   3.612  13.294 -0.0366 -0.0552  0.4845
13990TIP3    H163385   4.306   3.568  13.235 -0.2305  1.3742 -0.8508
13990TIP3    H263386   4.160   3.608  13.248 -0.5923 -0.4746  1.5061
13991TIP3   OH263387   0.021   5.961   0.529  0.0640  0.2663  0.0162
13991TIP3    H163388   0.001   5.919   0.445  0.4305  1.6003 -0.7680
13991TIP3    H263389  -0.035   6.039   0.530  1.4409  1.2765  0.1355
13992TIP3   OH263390   4.940   4.346   5.638 -0.2228 -0.2374  0.3106
13992TIP3    H163391   5.015   4.309   5.685  0.4297 -0.4813 -0.8687
13992TIP3    H263392   4.886   4.270   5.616 -0.3049 -0.1791  0.3135
13993TIP3   OH263393   5.203   5.563   2.483  0.2099 -0.0478 -0.3032
13993TIP3    H163394   5.141   5.491   2.478 -0.0248 -0.0069  1.2501
13993TIP3    H263395   5.288   5.522   2.501  0.1644  0.0218  0.0901
13994TIP3   OH263396   1.658   6.239  17.247 -0.2312 -0.0244  0.4728
13994TIP3    H163397   1.606   6.318  17.232  1.7710  1.6675  1.7652
13994TIP3    H263398   1.640   6.216  17.339  0.0767 -0.3756  0.4490
13995TIP3   OH263399   0.354   2.129  17.104 -0.1156  0.5596 -0.0308
13995TIP3    H163400   0.283   2.144  17.166  0.7292  1.2131  0.7928
13995TIP3    H263401   0.352   2.034  17.089 -0.3555  0.3923  0.9607
13996TIP3   OH263402   2.643   0.940  15.229  0.3415 -0.4049  0.3666
13996TIP3    H163403   2.640   0.922  15.323 -1.2996 -1.4353  0.1646
13996TIP3    H263404   2.714   1.004  15.219  0.8813 -0.6442  2.2249
13997TIP3   OH263405   0.694   5.271   3.981  0.6851 -0.2302  0.3106
13997TIP3    H163406   0.696   5.291   4.074  0.8041  0.9252  0.0701
13997TIP3    H263407   0.607   5.299   3.952  0.6604 -0.5551  0.0576
13998TIP3   OH263408   3.398   1.164   0.639 -0.6320  0.2566 -0.4847
13998TIP3    H163409   3.472   1.222   0.661  1.3149 -2.5969  1.2044
13998TIP3    H263410   3.321   1.211   0.671  0.8960  1.6599  1.4053
13999TIP3   OH263411   3.292   4.234   0.952 -0.6865  1.0893  0.7286
13999TIP3    H163412   3.247   4.227   1.036  1.9968 -1.3331  2.1732
13999TIP3    H263413   3.374   4.280   0.972  0.7246 -0.8910 -0.0883
14000TIP3   OH263414   2.362   0.671   4.796  0.0090 -0.1587 -0.3153
14000TIP3    H163415   2.382   0.664   4.703  0.6699 -1.0379 -0.1210
14000TIP3    H263416   2.420   0.607   4.838 -2.2078 -1.7996  0.4282
14001TIP3   OH263417   1.902   6.151  14.073 -0.1980  0.0647  0.2885
14001TIP3    H163418   1.840   6.113  14.011 -0.0548  0.4860 -0.1262
14001TIP3    H263419   1.891   6.100  14.153 -1.1911  0.2302  0.2721
14002TIP3   OH263420   3.057   1.372   5.242  0.2388 -0.6576  0.3499
14002TIP3    H163421   3.150   1.348   5.246 -0.1277 -2.2546  0.2408
14002TIP3    H263422   3.016   1.320   5.311 -0.3198  1.5446  1.7454
14003TIP3   OH263423   6.694   4.632  14.727 -0.0686  0.6437  0.2170
14003TIP3    H163424   6.736   4.617  14.643  0.0611  2.3366 -0.0614
14003TIP3    H263425   6.670   4.545  14.758  0.0075 -0.0245 -1.4957
14004TIP3   OH263426   1.005   6.203   2.628 -0.0853  0.6467  0.3371
14004TIP3    H163427   0.939   6.269   2.608 -1.1803 -0.7537 -0.9209
14004TIP3    H263428   1.073   6.215   2.561 -1.5512 -1.1075 -1.5800
14005TIP3   OH263429   0.234   1.567   5.802  0.2299  0.2267 -0.7226
14005TIP3    H163430   0.235   1.595   5.894 -0.7072  1.0485 -0.9378
14005TIP3    H263431   0.232   1.648   5.752  0.8621 -0.2131 -1.4851
14006TIP3   OH263432   6.195   3.923  13.590 -0.0038  0.3667 -0.6441
14006TIP3    H163433   6.162   3.841  13.554 -0.4100  0.9578 -1.6390
14006TIP3    H263434   6.226   3.972  13.514 -1.5244  1.9377 -0.3232
14007TIP3   OH263435   3.267   2.699  13.120  0.3792  0.0460 -0.0425
14007TIP3    H163436   3.239   2.775  13.069  0.3942  1.0464  1.3822
14007TIP3    H263437   3.326   2.735  13.186 -1.2849 -0.8471  2.0303
14008TIP3   OH263438   5.374   4.875  14.776 -0.3555 -0.3857  0.0775
14008TIP3    H163439   5.284   4.896  14.750 -0.5126 -0.7581  0.3103
14008TIP3    H263440   5.396   4.799  14.722 -0.2868 -0.4776  0.2379
14009TIP3   OH263441   3.678   5.390   6.097  0.5586 -0.3524 -0.7780
14009TIP3    H163442   3.727   5.362   6.175  1.2647  0.1242 -1.0397
14009TIP3    H263443   3.692   5.319   6.034  0.6929 -0.3381 -0.7641
14010TIP3   OH263444   3.757   5.363  14.335  0.0412 -0.3058  0.2277
14010TIP3    H163445   3.769   5.434  14.398 -0.0772  0.5482 -0.6877
14010TIP3    H263446   3.846   5.336  14.312  0.1279  0.7873 -0.7761
14011TIP3   OH263447   3.527   6.558  16.625  0.3449 -0.0098  0.3562
14011TIP3    H163448   3.505   6.520  16.710 -0.5839  0.7315  0.4639
14011TIP3    H263449   3.599   6.619  16.643  1.2191 -0.9985  0.3297
14012TIP3   OH263450   2.883   4.783   0.525  0.2540  0.4369 -0.3909
14012TIP3    H163451   2.847   4.742   0.604 -0.3073  1.8616  0.1280
14012TIP3    H263452   2.868   4.877   0.537  2.8344  0.9996 -0.8258
14013TIP3   OH263453   2.232   4.569   6.168  0.1724  0.1605 -0.5375
14013TIP3    H163454   2.171   4.620   6.221 -0.9640 -1.1496 -0.5018
14013TIP3    H263455   2.234   4.483   6.210  0.4669 -0.4258 -1.6983
14014TIP3   OH263456   4.232   4.698  14.521 -0.0418 -0.0677  0.0478
14014TIP3    H163457   4.293   4.666  14.455  1.3826  0.9760  0.8114
14014TIP3    H263458   4.161   4.738  14.471  0.8142  0.3569 -0.8560
14015TIP3   OH263459   4.478   4.995  11.568 -0.0424 -0.3636 -0.2338
14015TIP3    H163460   4.395   5.012  11.612 -0.4254  0.1198 -1.1219
14015TIP3    H263461   4.477   5.052  11.492  0.4393 -1.4597 -1.0826
14016TIP3   OH263462   4.161   0.841   2.594 -0.0725 -0.3352  0.0975
14016TIP3    H163463   4.230   0.781   2.623 -0.1927 -0.2248  0.6166
14016TIP3    H263464   4.118   0.794   2.522  0.6501 -0.3322 -0.3524
14017TIP3   OH263465   5.567   6.415  11.231  0.6923 -0.2123  0.2838
14017TIP3    H163466   5.538   6.326  11.214  2.4673 -0.8171  0.1277
14017TIP3    H263467   5.556   6.426  11.326  0.2825 -0.5376  0.2736
14018TIP3   OH263468   0.245   3.539  12.362 -0.4058  0.3500  0.6728
14018TIP3    H163469   0.229   3.445  12.363  0.4125  0.1990  1.6347
14018TIP3    H263470   0.320   3.550  12.303 -1.6642  0.6339 -0.9263
14019TIP3   OH263471   3.216   3.946   3.011 -0.1711 -0.3769  0.4791
14019TIP3    H163472   3.293   3.992   3.046  0.3197  0.2741 -1.3610
14019TIP3    H263473   3.246   3.856   2.997 -0.5474 -0.8050  2.2040
14020TIP3   OH263474   4.372   4.041  13.481 -0.3092 -0.1198 -0.6578
14020TIP3    H163475   4.429   4.114  13.455 -1.1531  0.3647 -1.1806
14020TIP3    H263476   4.429   3.984  13.534  0.2654  1.1009  0.0855
14021TIP3   OH263477   3.692   6.019   6.195 -0.2025  0.5541  0.1385
14021TIP3    H163478   3.690   6.015   6.099  2.2800  1.9786 -0.0770
14021TIP3    H263479   3.768   5.966   6.219 -2.9194 -2.9849  1.7397
14022TIP3   OH263480   4.992   1.818  13.223  0.7450  0.2423  0.3245
14022TIP3    H163481   4.908   1.791  13.260  0.8736  0.7879  1.0373
14022TIP3    H263482   4.974   1.901  13.180  0.6579 -0.2534 -0.6281
14023TIP3   OH263483   4.849   0.767   5.225 -0.6037 -0.6037 -0.3482
14023TIP3    H163484   4.776   0.756   5.286 -0.5476 -0.5109 -0.2650
14023TIP3    H263485   4.927   0.747   5.276 -0.6193 -1.3253 -0.6064
14024TIP3   OH263486   4.267   4.278  12.566  0.6608 -0.2206 -0.1755
14024TIP3    H163487   4.318   4.359  12.577 -0.3592  0.4093  0.0831
14024TIP3    H263488   4.287   4.226  12.643 -0.5296  0.8528  0.9082
14025TIP3   OH263489   3.736   4.349  17.253  0.5768 -0.0681  0.8424
14025TIP3    H163490   3.811   4.398  17.287  0.5482 -0.5666  1.6506
14025TIP3    H263491   3.665   4.414  17.249  1.4649  0.8587 -1.6236
14026TIP3   OH263492   5.962   4.139  15.731  0.4600 -0.7247  0.0226
14026TIP3    H163493   5.897   4.205  15.709  0.9113 -0.3409 -0.1735
14026TIP3    H263494   6.013   4.177  15.802  0.6597 -0.8977 -0.0258
14027TIP3   OH263495   6.031   6.307  15.734 -0.7374  0.8552  0.4387
14027TIP3    H163496   5.974   6.265  15.669 -0.4252  1.2301 -0.0822
14027TIP3    H263497   5.985   6.294  15.817 -0.9558  0.0321  0.2049
14028TIP3   OH263498   1.846   4.199  12.308  0.0306 -0.1964 -0.3295
14028TIP3    H163499   1.835   4.190  12.213  1.8054 -0.8783 -0.5071
14028TIP3    H263500   1.934   4.236  12.319 -1.1774  2.6246  0.9940
14029TIP3   OH263501   5.801   1.782  15.718 -0.8092  0.0435 -0.6001
14029TIP3    H163502   5.770   1.721  15.785  1.5053 -0.0744  0.4477
14029TIP3    H263503   5.774   1.868  15.750  2.2755  0.2794  1.9039
14030TIP3   OH263504   5.635   5.438  12.656 -0.2008  0.4454  0.4481
14030TIP3    H163505   5.711   5.432  12.714  0.2672  0.6751 -0.1376
14030TIP3    H263506   5.590   5.354  12.667  0.5406  0.0083  0.2376
14031TIP3   OH263507   0.414   2.991  15.016  0.5600 -0.1405  0.5154
14031TIP3    H163508   0.426   3.042  14.937  0.4858  0.7779  1.0807
14031TIP3    H263509   0.502   2.959  15.038  0.6814  0.1190  0.4049
14032TIP3   OH263510   5.340   1.059   3.739 -0.2965  0.3408  0.2324
14032TIP3    H163511   5.294   1.143   3.739  0.1193  0.5721  0.0100
14032TIP3    H263512   5.294   1.006   3.804 -0.0063  1.0447  1.0307
14033TIP3   OH263513   2.136   0.708  11.938 -0.5336 -0.4137 -0.6977
14033TIP3    H163514   2.058   0.762  11.943  0.8304  1.4980  1.4171
14033TIP3    H263515   2.105   0.619  11.954 -2.1538  0.4318  1.1277
14034TIP3   OH263516   3.512   2.093   4.271  0.0985  0.2097  0.3781
14034TIP3    H163517   3.597   2.076   4.313 -0.7453 -0.4959  1.8767
14034TIP3    H263518   3.451   2.102   4.344 -1.0234  1.3752 -0.6571
14035TIP3   OH263519   6.710   6.095  12.086 -0.4469  0.7707  0.4049
14035TIP3    H163520   6.691   6.078  11.994  0.5876  2.0168 -0.0695
14035TIP3    H263521   6.642   6.047  12.134 -0.9477  0.0267 -0.9875
14036TIP3   OH263522   4.959   6.478  16.349 -0.1916 -0.6661  0.2912
14036TIP3    H163523   4.939   6.477  16.443  0.8594 -0.5339  0.5283
14036TIP3    H263524   5.030   6.542  16.341  1.2522 -2.2847 -0.2642
14037TIP3   OH263525   2.341   2.194   1.498 -0.2798 -0.2437 -0.0657
14037TIP3    H163526   2.430   2.162   1.483 -0.3240 -0.2227 -0.3766
14037TIP3    H263527   2.346   2.288   1.480 -0.2173 -0.1262  0.5525
14038TIP3   OH263528   2.617   0.153  13.117 -0.1347  0.2177 -0.4859
14038TIP3    H163529   2.691   0.175  13.173 -1.0531 -1.3847  1.4849
14038TIP3    H263530   2.653   0.094  13.051  0.4788  0.0212  0.0210
14039TIP3   OH263531   1.264   4.342   0.619  0.3932  0.3658 -0.2327
14039TIP3    H163532   1.337   4.284   0.597  0.4563 -0.2373  1.4093
14039TIP3    H263533   1.202   4.285   0.665  0.3326  1.5099  1.1749
14040TIP3   OH263534   0.764   3.901  14.091  0.4561 -0.1281 -0.4296
14040TIP3    H163535   0.767   3.932  14.000  0.9109 -2.2790 -1.2219
14040TIP3    H263536   0.714   3.819  14.086 -2.7880  1.4870  1.8921
14041TIP3   OH263537   2.575   4.573   0.200  0.3307  0.4216  0.4685
14041TIP3    H163538   2.654   4.527   0.171 -1.0400 -2.2459  0.5891
14041TIP3    H263539   2.570   4.557   0.294 -1.8219 -2.1844  0.0463
14042TIP3   OH263540   3.690   2.249  14.164  0.7125  0.1279 -0.6724
14042TIP3    H163541   3.690   2.203  14.080 -0.5479  1.5662 -1.5345
14042TIP3    H263542   3.603   2.233  14.200  1.0192  0.0572  0.0548
14043TIP3   OH263543   6.234   6.196   4.519 -0.2667  0.4487 -0.8142
14043TIP3    H163544   6.176   6.157   4.584  0.1723  0.0116 -0.6784
14043TIP3    H263545   6.262   6.279   4.558  1.4180 -0.6170  0.3843
14044TIP3   OH263546   4.319   0.319  15.358 -0.0635 -0.0078 -0.3372
14044TIP3    H163547   4.396   0.270  15.332 -1.2925 -1.6347 -1.0806
14044TIP3    H263548   4.253   0.297  15.291 -1.0696  1.6150  0.0606
14045TIP3   OH263549   0.565   6.697   1.199 -0.1151  0.0702  0.2319
14045TIP3    H163550   0.595   6.647   1.122 -1.5115  0.4982 -0.6326
14045TIP3    H263551   0.595   6.786   1.183  0.6659 -0.0856  0.8034
14046TIP3   OH263552   6.102   3.907   3.123  0.1814 -0.0570  0.4326
14046TIP3    H163553   6.014   3.923   3.158 -0.2894  0.1027 -0.8023
14046TIP3    H263554   6.106   3.813   3.108  0.5851 -0.2120  1.3814
14047TIP3   OH263555   6.162   3.768   5.060  0.3824 -0.6963  0.4750
14047TIP3    H163556   6.189   3.857   5.038  0.7679 -0.7218  0.8190
14047TIP3    H263557   6.124   3.776   5.148 -0.8838 -0.6386 -0.0599
14048TIP3   OH263558   0.744   4.217   2.205 -0.5055 -0.3001  0.4274
14048TIP3    H163559   0.682   4.287   2.225 -0.7159 -0.6108  0.8900
14048TIP3    H263560   0.800   4.212   2.283 -0.3223 -0.4656  0.2855
14049TIP3   OH263561   2.988   6.302   4.879 -0.0403 -0.0251  0.4887
14049TIP3    H163562   3.066   6.248   4.885  1.3797  2.0887  2.7274
14049TIP3    H263563   2.952   6.282   4.792  2.1911 -2.0465 -0.0827
14050TIP3   OH263564   4.684   3.138   1.545 -0.3817 -0.3266  0.1438
14050TIP3    H163565   4.683   3.052   1.502  0.7105  0.4100 -1.4508
14050TIP3    H263566   4.667   3.119   1.637 -1.3636 -2.1276 -0.3649
14051TIP3   OH263567   0.248   6.498   5.555 -0.0432 -0.1199 -1.1042
14051TIP3    H163568   0.294   6.526   5.634 -1.2027 -0.9762 -0.0614
14051TIP3    H263569   0.245   6.576   5.500 -1.0179  1.1434  0.6130
14052TIP3   OH263570   6.643   0.830  14.262 -0.8097  0.1118 -0.1605
14052TIP3    H163571   6.680   0.742  14.267 -2.7314 -0.7589 -0.2632
14052TIP3    H263572   6.629   0.855  14.354  0.6646  0.7773 -0.0836
14053TIP3   OH263573   0.825   1.199  14.185  0.0000  0.2185 -0.0869
14053TIP3    H163574   0.850   1.220  14.095  1.2170 -0.8521 -0.0400
14053TIP3    H263575   0.905   1.163  14.224 -0.6542  0.1483  1.2612
14054TIP3   OH263576   3.858   3.563  15.608  0.7197  0.3636 -0.3040
14054TIP3    H163577   3.905   3.516  15.539 -1.0651 -0.4764 -0.9941
14054TIP3    H263578   3.826   3.495  15.666  0.8171  0.9648  0.4754
14055TIP3   OH263579   5.518   2.471   2.888 -0.2076 -0.2840  0.0668
14055TIP3    H163580   5.458   2.461   2.961 -0.0573 -1.6153  0.0290
14055TIP3    H263581   5.475   2.535   2.831 -3.0337 -3.0862 -1.3086
14056TIP3   OH263582   0.849   5.484  13.279 -0.6753 -0.4677  0.1997
14056TIP3    H163583   0.780   5.549  13.284 -0.2397  0.2119 -1.6023
14056TIP3    H263584   0.924   5.531  13.242  0.8307 -1.1376  2.2258
14057TIP3   OH263585   2.567   5.784  14.738 -0.5642  0.3734  0.1151
14057TIP3    H163586   2.575   5.715  14.672  0.7678  1.0730 -0.4920
14057TIP3    H263587   2.578   5.866  14.688 -0.0356  0.9301  1.1186
14058TIP3   OH263588   0.749   0.714  16.465  0.3173  0.3867 -0.3912
14058TIP3    H163589   0.835   0.679  16.490  0.0903  0.4127  0.4533
14058TIP3    H263590   0.699   0.637  16.437  0.2535  0.2070  0.1957
14059TIP3   OH263591   1.000   6.221  15.735  0.2975 -0.1088 -0.4022
14059TIP3    H163592   0.974   6.294  15.792  0.5789 -0.9926  0.8949
14059TIP3    H263593   1.083   6.190  15.772  0.2726 -0.9779 -1.0508
14060TIP3   OH263594   3.152   4.657   1.999  0.6414  0.1026 -0.1279
14060TIP3    H163595   3.129   4.698   1.916 -0.5579 -1.1254 -0.4458
14060TIP3    H263596   3.102   4.704   2.065  0.6399  0.2781 -0.2555
14061TIP3   OH263597   5.100   0.523   4.456 -0.1269  0.1691  0.2114
14061TIP3    H163598   5.111   0.433   4.486  0.8017 -0.5697 -2.0815
14061TIP3    H263599   5.167   0.572   4.503 -1.0095 -0.1839  1.9127
14062TIP3   OH263600   6.543   3.186   0.572 -0.1771  0.1292 -0.0573
14062TIP3    H163601   6.545   3.153   0.482  0.0284 -0.0695  0.0181
14062TIP3    H263602   6.457   3.158   0.605 -0.1012 -0.1275 -0.0717
14063TIP3   OH263603   2.108   5.635  12.432  0.6729  0.0158  0.2992
14063TIP3    H163604   2.165   5.708  12.405 -0.6779  0.5603 -1.2820
14063TIP3    H263605   2.084   5.656  12.522  0.6043  1.3610 -0.0038
14064TIP3   OH263606   1.387   6.481   3.148  0.1790 -0.0318 -0.5084
14064TIP3    H163607   1.368   6.551   3.086  1.6029  1.2413  0.4391
14064TIP3    H263608   1.355   6.514   3.232 -1.6728 -1.7069 -0.4746
14065TIP3   OH263609   0.266   5.498  14.235  0.2927  0.1591  0.5167
14065TIP3    H163610   0.248   5.486  14.142  2.0724 -0.0868  0.1646
14065TIP3    H263611   0.198   5.448  14.279 -0.5372  0.2175 -0.6395
14066TIP3   OH263612   1.139   6.759  12.085 -0.4048  0.4241 -0.1208
14066TIP3    H163613   1.193   6.758  12.164 -2.0347 -0.0485  1.0450
14066TIP3    H263614   1.132   6.851  12.061  1.2154  0.4580 -0.5354
14067TIP3   OH263615   2.559   2.229  12.204 -0.6032 -0.4698  0.4977
14067TIP3    H163616   2.548   2.324  12.209  0.1705 -0.4067  1.1207
14067TIP3    H263617   2.591   2.214  12.115  2.0356  0.1765  1.2423
14068TIP3   OH263618   2.239   0.891  14.577 -0.0101  0.0162 -0.2012
14068TIP3    H163619   2.203   0.808  14.609 -0.3504  0.3793  0.3861
14068TIP3    H263620   2.193   0.907  14.495 -0.4997 -0.0016  0.0656
14069TIP3   OH263621   6.627   0.334  11.800  0.4125 -0.0957 -0.2464
14069TIP3    H163622   6.646   0.421  11.765 -0.7323  0.0418 -0.5833
14069TIP3    H263623   6.711   0.289  11.800  1.4124  1.6156  1.7228
14070TIP3   OH263624   6.060   0.525   2.116 -0.5130  0.4671 -0.4099
14070TIP3    H163625   6.130   0.542   2.179  1.5391 -1.0779 -2.0951
14070TIP3    H263626   6.098   0.549   2.031 -1.3397 -2.0886 -1.5900
14071TIP3   OH263627   2.271   5.074   3.065  0.0489 -0.2469  0.0696
14071TIP3    H163628   2.316   5.055   3.148  1.4360 -1.7096 -0.9609
14071TIP3    H263629   2.305   5.009   3.004 -0.7266  0.9748 -1.7451
14072TIP3   OH263630   4.818   3.219  16.504 -0.4571 -0.0422 -0.0893
14072TIP3    H163631   4.887   3.157  16.482 -0.7563 -1.6849  3.0027
14072TIP3    H263632   4.865   3.297  16.534  0.0179 -0.1927 -0.4352
14073TIP3   OH263633   5.992   0.220   1.886 -0.0054 -0.0613 -0.4812
14073TIP3    H163634   5.986   0.146   1.946 -1.6678 -0.7439 -1.4343
14073TIP3    H263635   5.925   0.281   1.916  0.7261  0.6624 -0.2705
14074TIP3   OH263636   5.731   1.396  11.781  0.5600 -0.0045 -0.7085
14074TIP3    H163637   5.682   1.317  11.802  1.4832 -0.4263 -0.0293
14074TIP3    H263638   5.764   1.427  11.865  0.3657  1.0075 -0.9882
14075TIP3   OH263639   2.046   6.088  15.355 -0.2204 -0.1222  0.5573
14075TIP3    H163640   2.139   6.073  15.368 -0.3797 -0.5452  1.2253
14075TIP3    H263641   2.032   6.178  15.384 -0.2326 -0.4513  1.6149
14076TIP3   OH263642   3.381   6.410  16.220 -0.5193  0.3219  0.1330
14076TIP3    H163643   3.401   6.504  16.230  0.6141  0.3895 -2.0119
14076TIP3    H263644   3.442   6.366  16.280 -0.5419  0.9277  0.6099
14077TIP3   OH263645   3.461   4.893  16.252 -0.2084  0.0593 -0.0272
14077TIP3    H163646   3.404   4.962  16.286  0.5857  0.4998  0.4434
14077TIP3    H263647   3.483   4.840  16.328  1.1876  0.7645  0.1081
14078TIP3   OH263648   0.470   4.035   1.030 -0.2761  0.5628  0.2302
14078TIP3    H163649   0.432   3.990   1.105  2.3488 -0.7110  0.9242
14078TIP3    H263650   0.500   3.965   0.972  0.6977  1.4548 -0.3893
14079TIP3   OH263651   1.039   1.494  12.206 -0.2294 -0.1387 -0.2845
14079TIP3    H163652   0.974   1.565  12.196 -0.6037 -0.6375 -1.5191
14079TIP3    H263653   1.035   1.473  12.300 -1.7724 -0.0642 -0.2930
14080TIP3   OH263654   2.701   2.923  16.884  0.6213  0.3558  0.0942
14080TIP3    H163655   2.737   2.846  16.927  2.5692  0.9573 -0.3713
14080TIP3    H263656   2.616   2.937  16.927  1.4564 -0.4084  2.1139
14081TIP3   OH263657   4.750   4.995  16.231  0.3696  0.4582 -0.7880
14081TIP3    H163658   4.704   5.033  16.157 -0.6886  0.8174  0.0299
14081TIP3    H263659   4.688   4.934  16.270  0.8737  0.3395 -0.1400
14082TIP3   OH263660   3.434   5.157   6.994  0.0474  0.0423  0.5615
14082TIP3    H163661   3.425   5.129   6.902  0.0051 -1.4199  0.9806
14082TIP3    H263662   3.505   5.222   6.992  1.5316 -1.5078 -0.2388
14083TIP3   OH263663   6.075   5.995   4.642  0.0505 -0.2796  0.2174
14083TIP3    H163664   6.114   5.911   4.667  0.4087  0.0168  0.6811
14083TIP3    H263665   6.003   5.972   4.584 -1.8893 -1.1586  2.7842
14084TIP3   OH263666   3.171   5.064  11.287 -0.7376 -0.0196  0.5210
14084TIP3    H163667   3.177   5.139  11.347 -2.3085  1.4542 -1.0371
14084TIP3    H263668   3.220   5.093  11.209 -0.6633 -0.9621  0.2118
14085TIP3   OH263669   1.177   3.299   5.545  0.2798  0.1266  0.1176
14085TIP3    H163670   1.120   3.223   5.559  0.3354 -0.1295 -0.9786
14085TIP3    H263671   1.256   3.279   5.596  1.0077 -1.3769 -1.5098
14086TIP3   OH263672   4.173   4.807   0.241 -0.1602 -0.0301  0.4431
14086TIP3    H163673   4.124   4.737   0.285 -0.3586 -1.0152 -1.2662
14086TIP3    H263674   4.105   4.860   0.199  0.0944  0.1818  0.3023
14087TIP3   OH263675   4.018   6.767   3.997 -0.5676 -0.2262  0.1399
14087TIP3    H163676   4.034   6.856   4.030  1.3492 -1.1420  1.8729
14087TIP3    H263677   4.052   6.769   3.907 -0.3754  0.7331  0.2155
14088TIP3   OH263678   1.052   1.490  10.504  0.4502 -0.6749  0.1955
14088TIP3    H163679   1.092   1.566  10.461  1.0356 -1.1211 -0.0618
14088TIP3    H263680   0.966   1.482  10.464  0.0836  0.2906  0.7447
14089TIP3   OH263681   1.863   4.178  11.652  0.3823  0.2660  0.0024
14089TIP3    H163682   1.777   4.220  11.656  0.5716  0.6454  0.2334
14089TIP3    H263683   1.914   4.234  11.594 -0.3886 -1.5891 -2.6189
14090TIP3   OH263684   1.462   3.183  13.008  0.2441 -0.1956  1.0037
14090TIP3    H163685   1.475   3.159  12.916 -0.3789 -0.1339  0.8929
14090TIP3    H263686   1.491   3.106  13.058  1.5875  0.1625  0.8125
14091TIP3   OH263687   0.674   0.600  13.560 -0.6952 -0.0573 -0.1264
14091TIP3    H163688   0.716   0.678  13.523  0.7930 -0.5559  0.4120
14091TIP3    H263689   0.653   0.546  13.484  0.0284  0.0398 -0.4084
14092TIP3   OH263690   1.896   2.671   4.164  0.1511 -0.2861  0.8485
14092TIP3    H163691   1.832   2.639   4.229 -0.3383  0.1527  0.5964
14092TIP3    H263692   1.858   2.646   4.080  1.4073 -1.9918  0.7376
14093TIP3   OH263693   3.745   1.420   2.777 -0.5855 -0.1012  0.3537
14093TIP3    H163694   3.779   1.394   2.692  0.1312  0.8922  0.3206
14093TIP3    H263695   3.723   1.338   2.821 -0.7960 -0.6215 -0.7172
14094TIP3   OH263696   3.484   2.868  15.071 -0.2766  0.1202 -0.7017
14094TIP3    H163697   3.389   2.859  15.065 -0.1496 -2.1704 -0.3117
14094TIP3    H263698   3.500   2.887  15.163 -0.4110  2.2238 -1.0757
14095TIP3   OH263699   0.595   0.698  16.049  0.0833  0.2642  0.0234
14095TIP3    H163700   0.679   0.741  16.064 -0.1595  1.2838 -1.3830
14095TIP3    H263701   0.607   0.651  15.966 -0.4829 -0.2822  0.2405
14096TIP3   OH263702   5.181   0.271  17.197  0.3411  0.0560  0.6964
14096TIP3    H163703   5.179   0.179  17.223 -0.0675 -0.1955 -0.1725
14096TIP3    H263704   5.257   0.279  17.141 -0.6039 -0.1782 -0.6626
14097TIP3   OH263705   3.142   3.657   1.897 -0.1988 -0.0359 -0.7137
14097TIP3    H163706   3.169   3.740   1.859  0.7838  0.3117  0.6944
14097TIP3    H263707   3.047   3.666   1.908  0.0411  1.4376  0.5961
14098TIP3   OH263708   3.780   2.700   3.172  0.0184 -0.0852 -0.1977
14098TIP3    H163709   3.791   2.605   3.173 -2.3054 -0.4167 -0.4054
14098TIP3    H263710   3.782   2.725   3.264  0.3556 -0.3788 -0.1227
14099TIP3   OH263711   2.477   2.817  12.698  0.2706 -0.1396 -0.3155
14099TIP3    H163712   2.539   2.746  12.681 -0.8842 -1.3624  0.4150
14099TIP3    H263713   2.458   2.854  12.612  0.3655 -1.1679 -0.7854
14100TIP3   OH263714   2.833   4.749   3.398  0.4441  0.2559 -0.2362
14100TIP3    H163715   2.791   4.666   3.376 -1.0265  1.2549 -1.4716
14100TIP3    H263716   2.782   4.815   3.350  2.2443  1.7680 -0.1924
14101TIP3   OH263717   1.919   4.709   2.574  0.1707 -0.6646 -0.2696
14101TIP3    H163718   1.916   4.613   2.572 -1.1412 -0.6462  0.2008
14101TIP3    H263719   1.993   4.731   2.517  1.6121 -2.0024  0.9953
14102TIP3   OH263720   5.871   4.152   0.411 -0.0965  0.5290 -0.3575
14102TIP3    H163721   5.779   4.130   0.425 -0.1835  0.4833 -0.9841
14102TIP3    H263722   5.901   4.089   0.346  0.2271  0.8956 -0.5676
14103TIP3   OH263723   0.539   1.839   2.312 -0.2144 -0.0744 -0.5293
14103TIP3    H163724   0.611   1.837   2.250  0.4639 -1.0507  0.2455
14103TIP3    H263725   0.470   1.787   2.270 -0.1569  0.1548 -0.9115
14104TIP3   OH263726   4.578   2.570  15.186 -0.2698 -0.4238  0.1042
14104TIP3    H163727   4.651   2.624  15.216 -0.8329  1.1313 -1.1712
14104TIP3    H263728   4.614   2.520  15.113 -0.6114  0.8519 -0.9718
14105TIP3   OH263729   1.047   5.360   1.953 -0.0701 -0.8029 -0.1865
14105TIP3    H163730   1.050   5.434   2.014  0.3866 -1.0952  0.1479
14105TIP3    H263731   0.959   5.324   1.964 -0.7296  0.4220 -1.2308
14106TIP3   OH263732   6.719   6.402   5.579  0.1420  0.2865 -0.2745
14106TIP3    H163733   6.664   6.433   5.651  1.3537 -0.0393  0.8557
14106TIP3    H263734   6.788   6.351   5.623 -0.5263 -2.1412 -1.8509
14107TIP3   OH263735   3.027   5.529  11.318  0.1390  0.3979  0.1956
14107TIP3    H163736   3.003   5.501  11.229 -0.6010 -1.3897  0.8985
14107TIP3    H263737   2.965   5.600  11.338 -0.2518  0.2359 -0.4100
14108TIP3   OH263738   3.513   5.634   3.118 -0.4286 -0.8067  0.2918
14108TIP3    H163739   3.417   5.626   3.116 -0.5108 -0.0544  0.7364
14108TIP3    H263740   3.541   5.607   3.031 -1.4002  2.8850 -1.3647
14109TIP3   OH263741   0.326   4.423   0.142  0.1382 -0.3195  0.0457
14109TIP3    H163742   0.346   4.514   0.119 -1.1676 -0.1861 -0.7033
14109TIP3    H263743   0.399   4.373   0.106  1.1187  0.4654  0.8879
14110TIP3   OH263744   0.102   2.604   0.849 -0.6099 -0.1323  1.2916
14110TIP3    H163745   0.154   2.539   0.897  1.4506 -0.4914 -1.2081
14110TIP3    H263746   0.166   2.653   0.797 -2.4815  1.6233  0.4828
14111TIP3   OH263747   5.536   2.651  13.373  0.2187  0.0602 -0.3973
14111TIP3    H163748   5.467   2.589  13.351  0.0909 -0.8309  2.2161
14111TIP3    H263749   5.617   2.611  13.340 -0.1979 -0.0491 -1.3117
14112TIP3   OH263750   1.305   3.195  15.269 -0.3240 -0.5224 -0.2319
14112TIP3    H163751   1.255   3.257  15.322 -0.2261  0.0457 -0.7934
14112TIP3    H263752   1.239   3.137  15.231 -0.4456 -0.5474  0.0139
14113TIP3   OH263753   5.268   3.999  11.776  0.3220  0.3733 -0.2635
14113TIP3    H163754   5.263   3.993  11.681  0.9225 -1.0344 -0.2322
14113TIP3    H263755   5.358   3.976  11.797 -0.2780 -1.2187  0.7376
14114TIP3   OH263756   2.707   2.575  11.473  0.2852 -0.1114 -0.0917
14114TIP3    H163757   2.740   2.490  11.445  0.1100  0.0953 -0.9692
14114TIP3    H263758   2.624   2.585  11.427  0.8063  0.9738 -0.8552
14115TIP3   OH263759   4.260   0.931   2.881 -0.3816  0.0332  0.2294
14115TIP3    H163760   4.275   0.932   2.975 -0.4444 -0.7270  0.2575
14115TIP3    H263761   4.297   0.847   2.852 -1.9033 -0.5347 -0.1563
14116TIP3   OH263762   0.296   1.993   4.482 -0.8785  0.1840  0.1064
14116TIP3    H163763   0.224   1.935   4.508  0.9444 -1.4981  1.7920
14116TIP3    H263764   0.344   2.009   4.564  0.8590  0.9348 -1.0038
14117TIP3   OH263765   0.933   4.486   5.033  0.1192 -0.1702 -0.3933
14117TIP3    H163766   0.952   4.436   5.113  0.8308  0.1357 -0.3642
14117TIP3    H263767   0.867   4.549   5.059  0.9167  0.4586  0.1683
14118TIP3   OH263768   0.266   6.260  15.663 -0.4086  0.1865  0.5806
14118TIP3    H163769   0.171   6.265  15.674 -0.2900  0.6917  1.4494
14118TIP3    H263770   0.294   6.350  15.649  0.0011  0.1091  0.8751
14119TIP3   OH263771   4.680   6.607  12.531  0.3035 -0.2144 -0.4011
14119TIP3    H163772   4.657   6.687  12.579 -1.5090 -2.0426  2.1011
14119TIP3    H263773   4.772   6.593  12.552 -0.0989 -0.2424  1.6156
14120TIP3   OH263774   0.595   4.784  13.009  0.7169  0.3244 -0.0888
14120TIP3    H163775   0.565   4.871  13.033  1.1105  0.5503 -0.4052
14120TIP3    H263776   0.534   4.755  12.941  2.4338  1.6835 -2.3636
14121TIP3   OH263777   3.729   6.160  14.170  0.0883  0.0766 -0.0921
14121TIP3    H163778   3.779   6.078  14.163 -1.3124 -0.7021 -1.4914
14121TIP3    H263779   3.729   6.179  14.264  0.0463 -1.7959  0.3333
14122TIP3   OH263780   2.737   5.684  10.982  0.9441 -0.1692 -0.3113
14122TIP3    H163781   2.706   5.596  10.963 -0.0798 -0.1453  1.1066
14122TIP3    H263782   2.750   5.724  10.896 -0.4140 -1.0697 -0.9666
14123TIP3   OH263783   2.003   0.994  12.937 -0.0269 -0.1289 -0.0156
14123TIP3    H163784   2.050   0.912  12.918  2.8734  0.8462  2.2228
14123TIP3    H263785   1.977   0.986  13.029 -1.8978  0.5246 -0.4499
14124TIP3   OH263786   5.219   2.437  12.290  0.0349 -0.9292  0.2356
14124TIP3    H163787   5.277   2.460  12.362 -1.0066 -0.0141  0.8162
14124TIP3    H263788   5.184   2.351  12.314  0.7228 -1.2527  0.1287
14125TIP3   OH263789   2.783   2.506  15.011  0.7019 -0.1051  0.3531
14125TIP3    H163790   2.725   2.431  15.009  1.8244 -1.0492  1.3480
14125TIP3    H263791   2.856   2.482  14.953  1.0374  0.2425  0.6207
14126TIP3   OH263792   2.557   1.241  12.355 -0.3957 -0.3666  0.1685
14126TIP3    H163793   2.581   1.195  12.274  2.5054  0.6095  0.3681
14126TIP3    H263794   2.472   1.282  12.335  0.1310 -0.3315 -2.3224
14127TIP3   OH263795   2.120   3.211   0.457  0.3075 -0.1764  0.2759
14127TIP3    H163796   2.091   3.124   0.486  0.3117 -0.1741  0.2867
14127TIP3    H263797   2.208   3.197   0.424  0.4759 -0.0976  0.6828
14128TIP3   OH263798   0.323   4.659   0.649  0.4187 -0.2767  0.2520
14128TIP3    H163799   0.377   4.709   0.710  0.2017  1.4954 -0.9232
14128TIP3    H263800   0.357   4.682   0.562 -2.5863  1.5186 -0.6055
14129TIP3   OH263801   1.557   1.234   3.643 -0.0356 -0.1746 -0.4208
14129TIP3    H163802   1.465   1.258   3.652 -0.1288 -0.2152 -1.1612
14129TIP3    H263803   1.600   1.313   3.611  0.5853  0.4742  1.8397
14130TIP3   OH263804   5.113   3.722   4.107 -0.9788  0.1098 -0.1438
14130TIP3    H163805   5.188   3.705   4.164 -0.6134  2.1107  0.0291
14130TIP3    H263806   5.039   3.681   4.152 -0.1195 -1.3801 -0.0217
14131TIP3   OH263807   0.568   3.586   1.101 -1.0729 -0.2334 -1.0642
14131TIP3    H163808   0.615   3.661   1.138  0.4144 -1.2728 -0.7415
14131TIP3    H263809   0.626   3.551   1.034 -0.4616 -2.6569  0.5804
14132TIP3   OH263810   1.293   6.126   5.941 -0.8800  0.0030 -0.2245
14132TIP3    H163811   1.270   6.202   5.889 -2.3332 -0.4025 -0.2039
14132TIP3    H263812   1.222   6.064   5.927 -1.2050 -0.2303  2.0105
14133TIP3   OH263813   6.331   3.713  15.153  0.1678  0.0885  0.0081
14133TIP3    H163814   6.287   3.756  15.079 -0.5103  0.5479  0.6675
14133TIP3    H263815   6.277   3.734  15.229 -0.9553 -2.9640  0.2127
14134TIP3   OH263816   5.226   5.375  13.338 -0.2575  0.0123 -0.0798
14134TIP3    H163817   5.245   5.283  13.355 -0.4217  0.3018  1.9261
14134TIP3    H263818   5.217   5.414  13.425  0.3763  2.0468 -0.8637
14135TIP3   OH263819   4.303   3.344   0.532  0.1279  0.1360 -0.7710
14135TIP3    H163820   4.254   3.338   0.449  2.4719  0.8994 -2.3060
14135TIP3    H263821   4.327   3.437   0.538 -0.7721  0.2819  1.2871
14136TIP3   OH263822   3.886   2.589   1.299  0.4057 -0.0189  0.0146
14136TIP3    H163823   3.885   2.511   1.353 -2.0579  0.1587  0.3464
14136TIP3    H263824   3.978   2.616   1.296  0.8781 -1.1570  2.4290
14137TIP3   OH263825   2.687   3.010   0.103  0.4235 -0.1193  0.0143
14137TIP3    H163826   2.609   2.954   0.101  0.1365  0.3006 -0.5941
14137TIP3    H263827   2.759   2.948   0.116  0.0649 -0.5822 -0.1390
14138TIP3   OH263828   5.245   2.562  13.686  0.2046  0.3586 -0.0073
14138TIP3    H163829   5.308   2.506  13.642 -0.5952  0.7237 -1.6752
14138TIP3    H263830   5.297   2.609  13.751  1.1557 -1.1905  0.4198
14139TIP3   OH263831   2.488   3.395   4.117 -0.1747  0.0873  0.0503
14139TIP3    H163832   2.571   3.394   4.068 -0.8926 -0.4867 -1.1864
14139TIP3    H263833   2.423   3.427   4.054 -0.8655  0.7691  1.0818
14140TIP3   OH263834   0.607   3.990   2.280 -0.0099  0.3640  0.6434
14140TIP3    H163835   0.677   4.053   2.300 -0.5023  1.0315  0.3142
14140TIP3    H263836   0.536   4.013   2.340 -0.5647  0.7741 -0.1481
14141TIP3   OH263837   4.490   5.210   0.921  0.0163 -0.1615 -0.0748
14141TIP3    H163838   4.564   5.163   0.959  0.4180  0.3735 -0.1852
14141TIP3    H263839   4.527   5.258   0.847 -0.4675 -0.0019 -0.2183
14142TIP3   OH263840   3.925   6.505  16.463 -0.1152 -0.3014  0.0128
14142TIP3    H163841   3.916   6.595  16.432 -2.8158 -0.1873  0.8920
14142TIP3    H263842   3.951   6.455  16.385 -0.5309  0.9358 -0.9477
14143TIP3   OH263843   6.071   3.064   0.550 -0.2428  0.9660  0.3754
14143TIP3    H163844   6.133   3.098   0.485 -0.2292 -0.8835 -0.6477
14143TIP3    H263845   5.995   3.036   0.499 -0.3764 -0.2153  1.1767
14144TIP3   OH263846   2.371   0.485   3.589 -0.6915 -0.2250  0.0131
14144TIP3    H163847   2.401   0.410   3.537 -1.0304  0.0146 -0.5371
14144TIP3    H263848   2.308   0.530   3.532  1.3984  1.9878 -0.7710
14145TIP3   OH263849   4.425   2.563   4.552  0.0885 -0.0522 -0.5964
14145TIP3    H163850   4.465   2.518   4.478  0.1992  0.1239 -0.6433
14145TIP3    H263851   4.349   2.608   4.514  0.6398  0.7519 -0.7704
14146TIP3   OH263852   1.185   3.462  12.684 -0.7077 -0.0367  0.4025
14146TIP3    H163853   1.258   3.521  12.705  0.6138 -0.3183 -2.7594
14146TIP3    H263854   1.141   3.446  12.767  1.3444  2.1557  2.0192
14147TIP3   OH263855   1.730   4.748  16.385  0.1627 -0.8631 -0.0829
14147TIP3    H163856   1.698   4.703  16.307 -0.5323 -0.4188 -0.0693
14147TIP3    H263857   1.693   4.836  16.378  1.0248 -0.4749  0.1798
14148TIP3   OH263858   5.914   3.847  11.603  0.3439  0.4294 -0.1488
14148TIP3    H163859   5.921   3.942  11.593  1.1702  0.6453  1.9653
14148TIP3    H263860   5.832   3.824  11.559  0.4218  2.0160 -1.1900
14149TIP3   OH263861   2.574   2.707  16.441  0.4212 -0.1581 -0.1798
14149TIP3    H163862   2.563   2.633  16.381  1.2459 -0.5017  0.0877
14149TIP3    H263863   2.659   2.693  16.481 -0.4370 -0.3574  1.6762
14150TIP3   OH263864   0.254   5.041  11.453  0.3655  0.3132  0.2485
14150TIP3    H163865   0.281   5.051  11.544  1.1513 -0.1744  0.0725
14150TIP3    H263866   0.202   4.961  11.452  0.1959  0.4206  0.2945
14151TIP3   OH263867   0.600   4.617   4.379 -0.3272  0.1023 -0.5254
14151TIP3    H163868   0.537   4.685   4.405 -1.6051 -1.1618 -0.1831
14151TIP3    H263869   0.552   4.535   4.390  0.9662 -0.8292 -1.5490
14152TIP3   OH263870   4.467   2.057   5.076  0.0107 -0.0662  0.1710
14152TIP3    H163871   4.560   2.043   5.097 -0.4231 -2.1750  0.8724
14152TIP3    H263872   4.469   2.096   4.988  1.5472 -0.5070 -0.0316
14153TIP3   OH263873   0.032   5.373   0.372  0.0751 -0.3159 -0.1450
14153TIP3    H163874   0.047   5.430   0.448 -2.3275 -0.1497  0.2821
14153TIP3    H263875   0.031   5.285   0.408  1.2974 -0.4423 -0.3955
14154TIP3   OH263876   4.742   1.104  12.632 -0.2137 -0.6308 -0.2930
14154TIP3    H163877   4.825   1.057  12.631 -0.2169 -0.6574  0.4236
14154TIP3    H263878   4.682   1.048  12.584 -0.4200 -1.7526  1.2129
14155TIP3   OH263879   3.452   0.007  12.493 -0.0335  0.4354  0.5448
14155TIP3    H163880   3.406  -0.063  12.540 -0.2143  0.6280  0.6585
14155TIP3    H263881   3.543  -0.020  12.491 -0.2617 -0.3290 -0.3528
14156TIP3   OH263882   2.058   0.581  16.025 -0.2878 -0.7011  0.0369
14156TIP3    H163883   2.042   0.601  15.933 -1.0084 -2.7548 -0.3524
14156TIP3    H263884   1.977   0.605  16.069 -0.1656 -0.2856  0.0387
14157TIP3   OH263885   3.167   3.944  16.171 -0.5342 -0.2726  0.3556
14157TIP3    H163886   3.227   3.923  16.242  0.5010 -1.3775 -0.8162
14157TIP3    H263887   3.101   3.875  16.174  0.2219 -1.0554 -0.5263
14158TIP3   OH263888   6.064   5.166   0.696 -0.0833 -0.0297  0.2484
14158TIP3    H163889   6.144   5.173   0.643  0.3453 -1.4655  0.6672
14158TIP3    H263890   6.069   5.239   0.757  0.0080  0.9519 -0.8951
14159TIP3   OH263891   3.736   3.314  12.981 -0.5152  0.4543 -0.1762
14159TIP3    H163892   3.657   3.319  12.928 -0.9474 -0.1331  0.4076
14159TIP3    H263893   3.787   3.243  12.942 -0.4895  0.5133 -0.2522
14160TIP3   OH263894   2.440   4.289  14.724  0.3461  0.0230 -0.4792
14160TIP3    H163895   2.434   4.381  14.697  0.8254  0.6562  1.4533
14160TIP3    H263896   2.355   4.270  14.763 -0.4328 -0.9667 -2.4925
14161TIP3   OH263897   6.377   5.962   1.615  0.4565  0.2790 -0.1248
14161TIP3    H163898   6.335   6.043   1.643  2.3437  0.7872  1.4128
14161TIP3    H263899   6.304   5.902   1.599 -0.9636  2.0828 -0.7935
14162TIP3   OH263900   0.097   6.577  14.119  0.4680 -0.1658  0.1119
14162TIP3    H163901   0.092   6.656  14.172  0.9375  0.0405 -0.1416
14162TIP3    H263902   0.181   6.538  14.141  0.3530 -0.4537  0.0440
14163TIP3   OH263903   1.528   6.581   2.333  0.2260 -0.0651 -0.0066
14163TIP3    H163904   1.582   6.525   2.388  0.6830  0.8642  0.5154
14163TIP3    H263905   1.551   6.670   2.359 -0.8460  0.3700 -0.4593
14164TIP3   OH263906   4.925   1.782   0.623 -0.4241 -0.1737 -0.0188
14164TIP3    H163907   4.906   1.777   0.717  2.1305 -0.7770  0.5489
14164TIP3    H263908   4.950   1.873   0.608  1.3396 -0.5420  0.4304
14165TIP3   OH263909   3.050   4.820  11.150  0.2823  0.3146  1.0295
14165TIP3    H163910   3.086   4.907  11.169  0.0721  0.2266  1.8221
14165TIP3    H263911   2.956   4.830  11.161  0.0667  0.4385 -0.6506
14166TIP3   OH263912   6.188   1.299   3.419 -0.2464  0.5996 -0.0785
14166TIP3    H163913   6.141   1.224   3.382  1.5972  0.2616 -1.9550
14166TIP3    H263914   6.152   1.375   3.373  0.0850  0.4898 -0.5282
14167TIP3   OH263915   4.782   4.898  15.172  0.5916  0.3430  0.2140
14167TIP3    H163916   4.710   4.945  15.129 -0.4347 -1.2318  0.1316
14167TIP3    H263917   4.749   4.879  15.259  0.2590 -1.7148 -0.3117
14168TIP3   OH263918   2.898   1.632  13.810 -0.1614 -0.0561  0.2666
14168TIP3    H163919   2.991   1.630  13.785  0.2687  2.9989  1.1469
14168TIP3    H263920   2.852   1.588  13.739  1.9062 -1.3943 -0.3352
14169TIP3   OH263921   6.305   3.648   2.790 -0.3278 -0.4204  0.5306
14169TIP3    H163922   6.250   3.633   2.867 -1.6330 -2.7260 -0.7419
14169TIP3    H263923   6.257   3.712   2.738  0.5106  1.0697  1.4960
14170TIP3   OH263924   2.208   4.405  10.655 -0.1117  0.4910 -0.2033
14170TIP3    H163925   2.298   4.393  10.624  0.0713  0.5786  0.2841
14170TIP3    H263926   2.195   4.500  10.656  0.2794  0.5409  1.0812
14171TIP3   OH263927   0.206   3.771   1.023  0.5635  0.0119 -0.3655
14171TIP3    H163928   0.129   3.826   1.037  0.3965  0.6804 -3.3097
14171TIP3    H263929   0.230   3.741   1.111 -0.6623  2.9783  1.1291
14172TIP3   OH263930   4.581   0.485   5.216  0.3489 -0.5074  0.1777
14172TIP3    H163931   4.583   0.569   5.262  1.7772 -0.9169  0.9193
14172TIP3    H263932   4.642   0.496   5.143 -0.8728 -0.3206 -0.8661
14173TIP3   OH263933   2.448   0.817  13.362  0.1756 -0.1900  0.1780
14173TIP3    H163934   2.424   0.910  13.369 -0.9109 -0.4496 -0.0043
14173TIP3    H263935   2.489   0.797  13.446 -1.6746 -0.1204  1.1542
14174TIP3   OH263936   3.157   2.053  10.728  0.0961 -0.2649  0.0971
14174TIP3    H163937   3.081   2.089  10.682 -0.2062  0.0029  0.8037
14174TIP3    H263938   3.218   2.126  10.735  0.2605 -0.3802 -0.1311
14175TIP3   OH263939   4.125   4.165  11.931  0.4502 -0.1104  0.2980
14175TIP3    H163940   4.210   4.172  11.974  0.5876 -1.3003  0.2468
14175TIP3    H263941   4.145   4.164  11.838  0.0883  3.4966  0.0456
14176TIP3   OH263942   1.293   5.937  16.559  0.3961  0.1467 -0.4517
14176TIP3    H163943   1.359   5.940  16.629  1.6921 -0.8678 -1.5820
14176TIP3    H263944   1.285   5.845  16.537 -1.3078  0.2755 -0.4743
14177TIP3   OH263945   6.051   5.668   0.626  0.1709 -0.0707 -0.4339
14177TIP3    H163946   6.013   5.582   0.642 -2.5298  0.8818 -1.1735
14177TIP3    H263947   6.029   5.719   0.704 -1.2136  0.8209 -1.3580
14178TIP3   OH263948   5.845   5.766  12.851  0.5751  0.3409  0.0843
14178TIP3    H163949   5.754   5.749  12.827  0.6483  0.5877 -0.3827
14178TIP3    H263950   5.848   5.751  12.945  0.3842 -1.1105 -0.1144
14179TIP3   OH263951   4.521   1.378  13.804  0.2767 -0.0902  0.0189
14179TIP3    H163952   4.593   1.391  13.742  0.5719 -1.2244  0.1043
14179TIP3    H263953   4.446   1.356  13.749  0.5107 -0.9815  0.0428
14180TIP3   OH263954   0.880   0.412  14.393 -0.0261 -0.0390  0.2544
14180TIP3    H163955   0.961   0.392  14.345  0.1438 -0.2647  0.6275
14180TIP3    H263956   0.833   0.473  14.337  0.9903  1.1040  0.5842
14181TIP3   OH263957   4.581   1.622   3.043 -0.1174  0.4472  0.3322
14181TIP3    H163958   4.537   1.680   2.981  0.6127  1.3301  0.5969
14181TIP3    H263959   4.601   1.543   2.993  0.0014  0.9392 -0.4119
14182TIP3   OH263960   0.890   1.373   5.866 -0.0641 -0.0943 -0.3251
14182TIP3    H163961   0.927   1.344   5.782  0.2106 -0.8480  0.0540
14182TIP3    H263962   0.947   1.445   5.893  0.6395 -0.6991 -0.1574
14183TIP3   OH263963   5.935   2.041  15.625  0.3440 -0.0968  0.1059
14183TIP3    H163964   5.982   2.003  15.700  0.1060 -1.8074 -0.5699
14183TIP3    H263965   5.986   2.014  15.549 -0.4292  0.0521 -0.4722
14184TIP3   OH263966   1.222   3.900   4.588 -0.2177 -0.2159 -0.3965
14184TIP3    H163967   1.283   3.845   4.636  1.3919  1.0474 -0.8980
14184TIP3    H263968   1.136   3.863   4.606  0.4737 -0.7216  2.1635
14185TIP3   OH263969   4.396   0.097   1.691 -0.2995 -0.1558  0.3673
14185TIP3    H163970   4.386   0.192   1.696 -0.6819  0.0914 -2.9099
14185TIP3    H263971   4.308   0.063   1.706 -0.6285  0.1878 -0.6969
14186TIP3   OH263972   5.145   2.141  16.543  0.7875  0.3276  0.5133
14186TIP3    H163973   5.223   2.117  16.494  0.3349  0.3423 -0.2318
14186TIP3    H263974   5.141   2.237  16.537 -0.6122  0.1917 -1.5766
14187TIP3   OH263975   0.919   0.808   2.488 -0.3803  0.2214 -0.1329
14187TIP3    H163976   0.990   0.831   2.428  0.3506 -1.1257  0.1769
14187TIP3    H263977   0.851   0.771   2.432  0.5796 -1.6901 -0.1282
14188TIP3   OH263978   3.824   4.980  15.967  0.0908  0.5580  0.3041
14188TIP3    H163979   3.729   4.991  15.955  0.4153  0.9794 -2.6974
14188TIP3    H263980   3.861   5.064  15.940  1.3386  0.5100  1.7553
14189TIP3   OH263981   3.117   0.880  12.239 -0.2586  0.0512 -0.6074
14189TIP3    H163982   3.135   0.953  12.298 -2.5444  0.7442 -0.7041
14189TIP3    H263983   3.193   0.822  12.249 -0.0774  0.6682  2.1722
14190TIP3   OH263984   3.870   6.011   1.231  0.4892 -0.2029 -0.1771
14190TIP3    H163985   3.922   6.046   1.159 -1.7782 -0.4274 -2.0211
14190TIP3    H263986   3.807   6.080   1.251 -0.4521 -1.0804 -0.0750
14191TIP3   OH263987   0.540   5.647  15.908  0.3454 -0.6468 -0.7700
14191TIP3    H163988   0.552   5.615  15.819 -0.5464 -1.8106 -0.4985
14191TIP3    H263989   0.481   5.584  15.949  0.6952 -0.1165  0.6380
14192TIP3   OH263990   3.913   6.725  16.306 -0.3627 -0.3583  0.2294
14192TIP3    H163991   3.864   6.794  16.262 -0.2287 -0.8603 -0.7534
14192TIP3    H263992   3.999   6.764  16.324 -0.5192 -0.0531  0.3160
14193TIP3   OH263993   0.606   3.934   1.700 -0.1309  0.1473 -0.3695
14193TIP3    H163994   0.667   3.891   1.760 -0.0723 -1.3959 -1.4534
14193TIP3    H263995   0.522   3.891   1.716 -0.0456 -0.5392 -1.5588
14194TIP3   OH263996   2.101   1.744   4.675  0.5531 -0.9382  0.4183
14194TIP3    H163997   2.163   1.793   4.728  1.4235 -1.6080  0.0552
14194TIP3    H263998   2.156   1.687   4.620 -0.3935 -1.8520  0.3792
14195TIP3   OH263999   2.433   1.741  12.297  0.3909 -0.0241 -0.0290
14195TIP3    H164000   2.498   1.783  12.241  1.3883  0.4524  1.4478
14195TIP3    H264001   2.355   1.796  12.288 -0.5128 -1.5354 -3.1584
14196TIP3   OH264002   4.872   5.616  14.691  0.5157  0.4164 -0.5435
14196TIP3    H164003   4.843   5.678  14.757  0.0217  0.8336 -1.1407
14196TIP3    H264004   4.942   5.662  14.644  1.4005 -0.1613  0.1613
14197TIP3   OH264005   1.564   0.306  15.219  0.1498 -0.7396 -0.2038
14197TIP3    H164006   1.635   0.251  15.250  0.0437 -0.8780 -0.2031
14197TIP3    H264007   1.496   0.244  15.191 -0.1700 -0.6084  0.2698
14198TIP3   OH264008   3.136   4.565  12.048 -0.2133  0.0829 -0.1172
14198TIP3    H164009   3.213   4.618  12.032  0.4354 -0.8782 -0.2884
14198TIP3    H264010   3.125   4.565  12.144 -0.0711  0.3111 -0.1022
14199TIP3   OH264011   2.316   5.559   1.629  0.1244  0.5295 -0.4454
14199TIP3    H164012   2.314   5.609   1.710 -1.0315 -0.0506 -0.0972
14199TIP3    H264013   2.308   5.468   1.657  0.2320  0.2852 -1.1897
14200TIP3   OH264014   0.766   2.463   5.474 -0.2883  0.7322 -0.0668
14200TIP3    H164015   0.704   2.527   5.510 -1.3364  0.6464 -1.6014
14200TIP3    H264016   0.851   2.507   5.478 -0.1770  0.4728  3.0415
14201TIP3   OH264017   5.127   1.609  16.139  0.3393  0.4273 -1.0017
14201TIP3    H164018   5.067   1.553  16.188 -1.1019  0.6563 -2.4044
14201TIP3    H264019   5.176   1.549  16.082  1.8698  0.1839  0.4930
14202TIP3   OH264020   3.505   4.522   3.759  0.4477 -0.0748 -0.3158
14202TIP3    H164021   3.446   4.563   3.695 -0.7543 -0.0951  0.7351
14202TIP3    H264022   3.450   4.507   3.835  2.3476  2.0249  1.6047
14203TIP3   OH264023   0.781   0.764  15.736  0.4634  0.1624 -0.4937
14203TIP3    H164024   0.759   0.686  15.787  0.5733 -0.0879 -0.8317
14203TIP3    H264025   0.717   0.830  15.764  0.6176  0.0734  0.0842
14204TIP3   OH264026   1.089   2.236  15.647  0.2083  0.5332  0.1214
14204TIP3    H164027   1.064   2.163  15.590  0.1082  0.1853  0.6059
14204TIP3    H264028   1.140   2.196  15.716  0.6924  1.0163  0.0502
14205TIP3   OH264029   3.151   2.269   1.534  0.0819  0.4974 -0.2923
14205TIP3    H164030   3.171   2.267   1.440  0.0417  0.4070 -0.2991
14205TIP3    H264031   3.234   2.294   1.575 -0.6064  3.5384 -0.5401
14206TIP3   OH264032   2.411   4.865   6.202  0.1604 -0.2042  0.1601
14206TIP3    H164033   2.321   4.858   6.170 -0.0733  1.3091  0.4070
14206TIP3    H264034   2.459   4.903   6.129  0.9927 -2.5135 -0.5639
14207TIP3   OH264035   0.538   6.023   2.946  0.0489 -0.2691 -0.2440
14207TIP3    H164036   0.523   6.021   2.852  0.4173 -1.4830 -0.3071
14207TIP3    H264037   0.521   5.933   2.974  3.4144 -0.8887  0.2374
14208TIP3   OH264038   2.332   6.138  15.756 -0.1767  0.0527  0.0271
14208TIP3    H164039   2.384   6.161  15.833  0.3801 -1.4327  0.1282
14208TIP3    H264040   2.347   6.209  15.695  0.9608  0.2888  0.5512
14209TIP3   OH264041   2.695   5.754  16.705  0.7099  0.0966  0.0809
14209TIP3    H164042   2.759   5.717  16.643 -0.8622  0.0061 -1.5738
14209TIP3    H264043   2.714   5.848  16.706 -0.0675  0.3078 -1.6253
14210TIP3   OH264044   0.838   0.268   4.659 -0.3059  0.0900  0.1961
14210TIP3    H164045   0.880   0.229   4.582 -2.1592  2.3302 -2.1361
14210TIP3    H264046   0.908   0.316   4.703  0.7211 -0.9702 -0.2142
14211TIP3   OH264047   3.026   3.478  13.098 -0.1174  0.2037  0.3604
14211TIP3    H164048   2.933   3.498  13.097  0.1490  1.5866  1.0865
14211TIP3    H264049   3.044   3.451  13.188  0.3698  0.9353  0.4887
14212TIP3   OH264050   6.238   1.779  12.839 -0.1593  0.0518  0.3719
14212TIP3    H164051   6.217   1.714  12.907 -1.9533  0.5854  0.3615
14212TIP3    H264052   6.324   1.813  12.866 -0.5926 -0.0977  2.1102
14213TIP3   OH264053   4.233   4.688   5.400  0.2305  0.5047  0.4641
14213TIP3    H164054   4.198   4.775   5.419  0.3927  0.7359 -0.2664
14213TIP3    H264055   4.311   4.680   5.455  0.5260  1.0405  0.1236
14214TIP3   OH264056   2.610   0.334   2.952 -0.4259 -0.2473  0.1324
14214TIP3    H164057   2.537   0.273   2.941  0.1491 -0.9289  0.0185
14214TIP3    H264058   2.640   0.352   2.863  1.5282 -2.4441  0.2505
14215TIP3   OH264059   4.649   5.401   1.129 -0.0475  0.0096 -0.8541
14215TIP3    H164060   4.586   5.336   1.161 -2.2840  2.8878  1.2591
14215TIP3    H264061   4.731   5.380   1.174 -0.5015 -1.7008 -0.7625
14216TIP3   OH264062   3.476   2.321  16.843  0.2037  0.2224  0.0679
14216TIP3    H164063   3.404   2.292  16.900  0.4489  1.1759  0.8896
14216TIP3    H264064   3.544   2.351  16.903  1.7133 -1.5494 -0.6743
14217TIP3   OH264065   2.575   4.977  16.686 -0.3172 -0.2285 -0.5322
14217TIP3    H164066   2.642   4.977  16.754 -0.3748 -0.0841 -0.4742
14217TIP3    H264067   2.501   4.932  16.725 -1.3457  2.2049  0.5099
14218TIP3   OH264068   1.076   1.113   3.098 -0.2301 -0.0822 -0.3105
14218TIP3    H164069   1.070   1.052   3.171 -1.6240  0.1395 -0.2201
14218TIP3    H264070   1.150   1.170   3.120 -0.8319  0.1879  1.1025
14219TIP3   OH264071   5.444   1.141  16.247 -0.0479  0.2469 -0.7763
14219TIP3    H164072   5.434   1.049  16.270  2.2523 -0.3840 -1.9397
14219TIP3    H264073   5.483   1.181  16.325 -0.9563  0.2308 -0.3045
14220TIP3   OH264074   5.043   4.994  15.152  0.0889  0.4249  0.2930
14220TIP3    H164075   4.963   4.944  15.166 -0.9530  1.7754 -0.5570
14220TIP3    H264076   5.103   4.963  15.220 -0.9316 -1.0416  0.5733
14221TIP3   OH264077   3.530   1.663  13.605 -0.4461  0.0989 -0.5188
14221TIP3    H164078   3.459   1.672  13.669 -0.1102  0.2225 -0.1575
14221TIP3    H264079   3.610   1.657  13.659 -0.1694  0.1168 -0.9243
14222TIP3   OH264080   6.748   6.642   6.253 -0.6068  0.1971 -0.6139
14222TIP3    H164081   6.702   6.725   6.245 -0.5911  0.4386  1.3636
14222TIP3    H264082   6.685   6.583   6.292 -0.1778 -0.3215 -0.6948
14223TIP3   OH264083   2.505   4.495   5.727  0.2771  0.4558  0.3200
14223TIP3    H164084   2.478   4.493   5.635  1.0353 -1.1602  0.1029
14223TIP3    H264085   2.533   4.585   5.742  0.4858  0.6554 -1.1315
14224TIP3   OH264086   1.075   5.871  13.820  0.1540  0.2893 -0.0748
14224TIP3    H164087   1.133   5.944  13.842  1.1587 -0.3616 -0.5334
14224TIP3    H264088   1.053   5.832  13.905  0.2554  0.6317  0.1109
14225TIP3   OH264089   4.301   5.018   1.113 -0.2274 -0.5341 -0.8780
14225TIP3    H164090   4.227   5.046   1.060  0.4909  0.6608 -1.2960
14225TIP3    H264091   4.357   4.969   1.052  0.4221  0.5299 -1.1647
14226TIP3   OH264092   3.366   0.718  10.478 -0.0861 -0.4695 -0.7351
14226TIP3    H164093   3.291   0.770  10.506  0.1126 -0.6965  0.2748
14226TIP3    H264094   3.371   0.646  10.542  0.3699 -1.0435 -1.3942
14227TIP3   OH264095   5.317   2.223  14.254 -0.3788 -0.5357 -0.3024
14227TIP3    H164096   5.288   2.136  14.225  2.3555 -1.5241 -0.2994
14227TIP3    H264097   5.408   2.228  14.227 -0.2761  2.1135  0.2912
14228TIP3   OH264098   0.279   2.408  14.905 -0.1961  0.3951 -0.3971
14228TIP3    H164099   0.288   2.497  14.872  0.5247  0.5351  0.1429
14228TIP3    H264100   0.225   2.416  14.983  0.6519  0.5090  0.1962
14229TIP3   OH264101   4.660   0.339   1.618 -0.0127  0.3080 -0.2989
14229TIP3    H164102   4.731   0.361   1.559  1.1168  0.4994  1.0829
14229TIP3    H264103   4.580   0.353   1.566  0.9450 -1.0812 -2.2607
14230TIP3   OH264104   3.652   5.022  16.711  0.7768  0.6526  0.0894
14230TIP3    H164105   3.679   4.972  16.634  4.5468  0.2462  1.4946
14230TIP3    H264106   3.649   5.113  16.682 -3.3513  0.1894 -1.7511
14231TIP3   OH264107   1.822   5.008   4.684  0.1105  0.1621  0.4201
14231TIP3    H164108   1.892   5.058   4.642  0.0050  0.0689  0.1253
14231TIP3    H264109   1.859   4.920   4.697 -0.0893 -0.0051 -0.1198
14232TIP3   OH264110   5.716   0.351  10.872  0.3097  0.2550  0.0776
14232TIP3    H164111   5.742   0.351  10.780 -0.0423  1.8114 -0.0611
14232TIP3    H264112   5.777   0.412  10.915  1.2542 -1.3738  1.1509
14233TIP3   OH264113   4.625   3.044  10.558  0.7803 -0.1389 -0.2802
14233TIP3    H164114   4.587   3.130  10.538  0.0002 -0.4211 -0.0267
14233TIP3    H264115   4.719   3.057  10.545  0.8051  1.0728  0.8659
14234TIP3   OH264116   0.742   4.211   2.868 -0.5366  0.4181 -0.2829
14234TIP3    H164117   0.688   4.290   2.873  0.5984  1.2061 -0.1799
14234TIP3    H264118   0.726   4.178   2.779 -0.6456  1.0340 -0.4983
14235TIP3   OH264119   0.647   0.483   1.562  0.6664 -0.3646  0.4646
14235TIP3    H164120   0.699   0.415   1.606 -0.5258 -3.6190 -2.6414
14235TIP3    H264121   0.558   0.469   1.592  0.5856  0.8072  0.8151
14236TIP3   OH264122   3.951   5.756   1.397 -0.2624 -0.1149 -0.7959
14236TIP3    H164123   4.041   5.726   1.384 -0.8549 -2.4632  0.0854
14236TIP3    H264124   3.939   5.825   1.331  2.4340  0.9144 -0.3549
14237TIP3   OH264125   0.297   5.822   1.890  0.0885 -0.3466  0.1766
14237TIP3    H164126   0.277   5.858   1.804 -1.2595 -0.0566  0.5863
14237TIP3    H264127   0.375   5.768   1.876 -0.8519 -1.3536 -1.4961
14238TIP3   OH264128   2.786   4.489   1.415 -0.3768 -0.7466 -0.7774
14238TIP3    H164129   2.706   4.540   1.401  0.6671  0.8423 -1.1937
14238TIP3    H264130   2.769   4.440   1.496 -1.3858  0.3242 -0.3042
14239TIP3   OH264131   6.298   2.369   1.285 -0.1889 -0.2181 -0.2525
14239TIP3    H164132   6.349   2.443   1.251  0.7914 -0.6360  0.2673
14239TIP3    H264133   6.212   2.407   1.305  0.7581  1.1791  1.4684
14240TIP3   OH264134   3.762   1.933  16.303 -0.2286 -0.0325 -0.0496
14240TIP3    H164135   3.747   1.987  16.381 -0.8717  0.5503 -0.5558
14240TIP3    H264136   3.834   1.876  16.326  0.0401  0.6077  0.7361
14241TIP3   OH264137   6.057   0.373   5.205  0.0332 -0.2903 -0.3610
14241TIP3    H164138   6.113   0.330   5.270  0.2291  0.1061 -0.2633
14241TIP3    H264139   5.971   0.332   5.217 -0.3407  0.8191  1.2130
14242TIP3   OH264140   6.493   5.721  14.761  0.7043 -0.3270  0.2809
14242TIP3    H164141   6.585   5.719  14.788  0.6300 -1.3692  0.5156
14242TIP3    H264142   6.451   5.654  14.816  0.5021 -2.4705 -2.2701
14243TIP3   OH264143   2.421   5.089  13.318  0.5856 -0.5149 -0.9557
14243TIP3    H164144   2.436   5.058  13.408  0.2972 -0.2443 -0.8139
14243TIP3    H264145   2.452   5.018  13.263  0.8327 -0.6548 -0.6406
14244TIP3   OH264146   1.897   1.123  14.695 -0.3878  0.8608  0.5073
14244TIP3    H164147   1.852   1.147  14.776 -0.9816  0.6182  0.2636
14244TIP3    H264148   1.969   1.185  14.688  1.1836 -0.6043  2.4559
14245TIP3   OH264149   5.241   1.172  10.244  0.1650 -0.0215 -0.4074
14245TIP3    H164150   5.332   1.181  10.274  0.3700 -0.5136 -0.8718
14245TIP3    H264151   5.213   1.087  10.279 -0.3650  0.4608  0.3642
14246TIP3   OH264152   2.299   0.498   2.008  0.1363 -0.1733  0.5761
14246TIP3    H164153   2.344   0.426   1.964 -0.3375 -0.6223  0.8073
14246TIP3    H264154   2.273   0.556   1.937 -0.5357 -0.8442  0.2536
14247TIP3   OH264155   2.475   5.259   0.900  0.5802 -0.1471  0.4576
14247TIP3    H164156   2.550   5.228   0.950 -0.6400  0.1108  2.5693
14247TIP3    H264157   2.493   5.352   0.886  0.6135 -0.0508  1.0861
14248TIP3   OH264158   6.291   0.108   2.700 -0.5353 -0.2147  0.2824
14248TIP3    H164159   6.370   0.062   2.669  0.3144  0.2373  1.7113
14248TIP3    H264160   6.256   0.051   2.768 -0.8562  0.0937  0.3746
14249TIP3   OH264161   6.258   1.778   2.510  0.7769 -0.4479  0.1201
14249TIP3    H164162   6.330   1.812   2.457 -0.5172  0.8401 -0.8816
14249TIP3    H264163   6.284   1.688   2.530  2.8395  0.1065  0.1530
14250TIP3   OH264164   2.969   5.370  16.536  0.3778 -0.1636  0.1175
14250TIP3    H164165   3.047   5.379  16.592  0.0631  0.8593  0.4231
14250TIP3    H264166   2.953   5.276  16.531  2.5891 -0.5197 -1.3118
14251TIP3   OH264167   2.646   0.846   6.244  0.0367  0.3300 -0.5324
14251TIP3    H164168   2.566   0.828   6.194 -0.5888 -0.6455  0.7609
14251TIP3    H264169   2.714   0.798   6.197 -0.2751  0.5491 -1.2223
14252TIP3   OH264170   3.205   2.080   0.355 -0.0367  0.2474  0.2113
14252TIP3    H164171   3.199   2.136   0.432  1.3497  0.2562  0.3397
14252TIP3    H264172   3.114   2.068   0.327 -0.4264  1.8726  0.6660
14253TIP3   OH264173   2.241   2.730  17.133 -0.2876 -0.0845  0.3231
14253TIP3    H164174   2.162   2.719  17.080 -0.7879  0.9333  0.8246
14253TIP3    H264175   2.211   2.775  17.212  0.9773  1.4170 -0.0016
14254TIP3   OH264176   1.587   1.604  13.637  0.0117 -0.0654 -0.3712
14254TIP3    H164177   1.565   1.512  13.650 -1.5884  0.3765  0.2466
14254TIP3    H264178   1.558   1.647  13.717  0.3836  1.0468 -0.8154
14255TIP3   OH264179   5.443   5.939  17.007 -0.1158 -0.1541 -0.5678
14255TIP3    H164180   5.538   5.937  16.997 -0.1387  0.4878 -0.9939
14255TIP3    H264181   5.417   5.847  17.003  0.4956 -0.3454 -0.3144
14256TIP3   OH264182   0.982   4.778   1.955 -0.2579 -0.7491  0.3089
14256TIP3    H164183   1.052   4.725   1.918 -0.1667 -0.0504 -0.5349
14256TIP3    H264184   1.007   4.869   1.936 -0.7398 -0.4245  1.1478
14257TIP3   OH264185   1.456   5.430   6.613  0.3916 -0.1577  0.0611
14257TIP3    H164186   1.449   5.437   6.517 -2.1640 -0.4988  0.1768
14257TIP3    H264187   1.477   5.338   6.629  0.6855 -0.1307 -0.1484
14258TIP3   OH264188   4.365   0.615  12.365  0.2655 -0.4704  0.0598
14258TIP3    H164189   4.369   0.707  12.390 -0.1384 -1.0213  2.4203
14258TIP3    H264190   4.361   0.568  12.449 -2.4435 -2.4942 -1.0586
14259TIP3   OH264191   0.025   4.664   4.422  0.3733  0.1228 -0.4755
14259TIP3    H164192  -0.044   4.667   4.356 -0.3294 -0.0567  0.2322
14259TIP3    H264193  -0.022   4.664   4.506  0.8495 -4.7455  0.1092
14260TIP3   OH264194   0.302   6.436  14.214  0.0473  0.1467  0.1949
14260TIP3    H164195   0.316   6.359  14.268  1.1022  1.1405  1.3965
14260TIP3    H264196   0.389   6.461  14.184 -0.0084  1.9322  1.3836
14261TIP3   OH264197   0.240   5.588  13.874 -0.0839  1.2656 -0.0247
14261TIP3    H164198   0.273   5.505  13.839 -1.0699  0.2095  1.4436
14261TIP3    H264199   0.315   5.647  13.870  0.9902 -0.0471  0.0298
14262TIP3   OH264200   4.470   3.833   6.740  0.1467 -0.0608 -0.1578
14262TIP3    H164201   4.409   3.871   6.677  0.2184 -0.3329 -0.3953
14262TIP3    H264202   4.538   3.791   6.686  1.3316  1.4493  0.0871
14263TIP3   OH264203   1.815   1.574   0.114  0.2483  0.2740 -0.2672
14263TIP3    H164204   1.861   1.652   0.083 -0.2512  0.8299  0.3404
14263TIP3    H264205   1.823   1.578   0.209 -2.4564  1.3344 -0.0036
14264TIP3   OH264206   4.149   1.712  13.218  0.0440 -0.0653  0.5376
14264TIP3    H164207   4.091   1.709  13.142 -1.4803 -0.6634  1.6760
14264TIP3    H264208   4.190   1.799  13.213 -0.3829  0.0923 -0.6825
14265TIP3   OH264209   3.886   6.756   1.417 -0.2491  0.7537 -0.0285
14265TIP3    H164210   3.884   6.791   1.328 -3.5286  2.6690  0.6241
14265TIP3    H264211   3.845   6.824   1.470  1.4996 -0.3627  2.9947
14266TIP3   OH264212   0.033   2.631  17.004  0.1962 -0.0541  0.4007
14266TIP3    H164213   0.115   2.588  16.979  0.7851  1.1739  0.1479
14266TIP3    H264214  -0.026   2.615  16.930  0.6720  0.2566 -0.0483
14267TIP3   OH264215   0.956   1.434  14.907  0.9154 -0.4774 -0.1361
14267TIP3    H164216   0.970   1.522  14.943  0.3028 -0.3075 -0.2941
14267TIP3    H264217   1.044   1.398  14.895  1.3004  0.9567 -2.1481
14268TIP3   OH264218   3.418   2.324   1.618  0.4409  0.3094  0.0145
14268TIP3    H164219   3.506   2.360   1.633  0.8998 -0.4368 -0.7982
14268TIP3    H264220   3.384   2.306   1.705  1.2655  0.2031  0.3199
14269TIP3   OH264221   0.020   1.279   2.398 -0.1899  0.2471  0.1015
14269TIP3    H164222  -0.041   1.209   2.420 -1.9104  1.6182 -0.1388
14269TIP3    H264223   0.058   1.306   2.482 -1.9944  1.2092  0.6558
14270TIP3   OH264224   3.254   2.326  10.801  0.0401  0.7771  0.1763
14270TIP3    H164225   3.349   2.323  10.812 -0.0034 -3.0981  0.7608
14270TIP3    H264226   3.221   2.352  10.887  0.5071  0.8044  0.3505
14271TIP3   OH264227   3.847   5.885   2.637  0.2497  0.2232  0.2133
14271TIP3    H164228   3.903   5.952   2.676 -1.4890  0.9556  1.5956
14271TIP3    H264229   3.809   5.928   2.560  0.3153  0.3052  0.2264
14272TIP3   OH264230   2.562   6.502   4.479  0.0779  0.3309  1.2609
14272TIP3    H164231   2.648   6.504   4.521  0.3636 -1.6570  0.8542
14272TIP3    H264232   2.580   6.478   4.388 -0.8587  0.5802  0.9980
14273TIP3   OH264233   1.895   3.682   4.385 -0.2766  0.5017 -0.4934
14273TIP3    H164234   1.856   3.641   4.308 -0.0198 -0.3560 -0.1856
14273TIP3    H264235   1.914   3.608   4.444  1.3728  0.9320 -0.4431
14274TIP3   OH264236   5.970   5.520   4.458 -0.4895  1.0795 -0.2528
14274TIP3    H164237   6.033   5.562   4.516 -1.1302  2.7413 -0.7067
14274TIP3    H264238   5.918   5.464   4.516 -0.2547  1.6717  0.5483
14275TIP3   OH264239   5.479   5.563  11.250  0.6963 -0.8475  0.0566
14275TIP3    H164240   5.431   5.524  11.177  1.8440 -1.4616 -0.3970
14275TIP3    H264241   5.472   5.499  11.321 -1.9377  0.5273  1.1532
14276TIP3   OH264242   0.250   1.099   5.212  0.1725 -0.0791  0.9213
14276TIP3    H164243   0.181   1.163   5.228  0.1676  0.7288 -1.7988
14276TIP3    H264244   0.211   1.036   5.152  1.8027  0.6010 -0.9815
14277TIP3   OH264245   3.907   6.772   5.939 -0.0061 -0.2274 -0.0256
14277TIP3    H164246   3.914   6.684   5.977 -1.8050 -1.3104 -1.9849
14277TIP3    H264247   3.959   6.827   5.997  1.7989 -2.6912  0.8757
14278TIP3   OH264248   3.879   3.198   3.897  0.4411  0.1383 -0.1129
14278TIP3    H164249   3.857   3.131   3.832  1.7142 -1.2832  0.8461
14278TIP3    H264250   3.849   3.161   3.980  4.5588 -1.1712  1.0327
14279TIP3   OH264251   3.241   1.521  15.529 -0.2401  0.2263 -0.4856
14279TIP3    H164252   3.272   1.558  15.612  1.5856 -2.3110  0.0788
14279TIP3    H264253   3.149   1.546  15.524 -0.7067 -0.3969  2.8548
14280TIP3   OH264254   2.169   5.070  15.790 -0.2045  0.3785 -0.0268
14280TIP3    H164255   2.230   5.090  15.861 -1.8598  1.5181  1.1505
14280TIP3    H264256   2.165   5.151  15.739 -1.6847  0.7905  0.6870
14281TIP3   OH264257   3.306   1.841  14.047  0.1276 -0.5081 -0.1593
14281TIP3    H164258   3.237   1.813  14.107  0.2818  0.2416  0.3934
14281TIP3    H264259   3.292   1.936  14.037  0.7099 -0.4521 -0.5159
14282TIP3   OH264260   0.161   1.411   3.542  0.5896 -0.1536  0.2663
14282TIP3    H164261   0.217   1.488   3.553 -0.5273  0.5372  1.2489
14282TIP3    H264262   0.121   1.423   3.456  1.3137 -0.2589 -0.1000
14283TIP3   OH264263   6.155   5.689   0.150  0.2065 -0.1220  0.1655
14283TIP3    H164264   6.194   5.626   0.211  0.2645 -0.3233 -0.0798
14283TIP3    H264265   6.075   5.718   0.194 -0.5975 -1.4621 -0.3379
14284TIP3   OH264266   0.466   0.139  11.748 -0.2428  0.4309 -0.0281
14284TIP3    H164267   0.487   0.195  11.673 -0.3300 -0.8909 -1.0759
14284TIP3    H264268   0.536   0.156  11.811 -0.4851  1.9930 -0.1391
14285TIP3   OH264269   2.564   0.545  15.900 -0.2597  0.2826  0.1733
14285TIP3    H164270   2.529   0.563  15.987  0.7150 -1.7922  1.0570
14285TIP3    H264271   2.657   0.568  15.906 -0.2226  0.2815 -0.3516
14286TIP3   OH264272   6.184   2.553  16.826  0.0513 -0.1787 -0.3040
14286TIP3    H164273   6.245   2.519  16.761  1.0637  2.3669 -0.7974
14286TIP3    H264274   6.146   2.631  16.785 -0.2674  0.7431  1.6451
14287TIP3   OH264275   4.410   1.176   3.297  0.2875 -0.1635 -0.1709
14287TIP3    H164276   4.495   1.143   3.270  0.7701 -0.1983  1.2968
14287TIP3    H264277   4.424   1.269   3.314  0.3358 -0.3715  1.0900
14288TIP3   OH264278   6.226   0.600   1.922  0.3804  0.5280  0.1352
14288TIP3    H164279   6.259   0.690   1.913  3.0366 -0.0186  2.7738
14288TIP3    H264280   6.301   0.545   1.902 -0.3533 -1.0003  1.4217
14289TIP3   OH264281   6.731   3.757   0.796  0.1998  0.2756  0.0815
14289TIP3    H164282   6.654   3.770   0.851 -0.1832  0.2714 -0.4452
14289TIP3    H264283   6.737   3.836   0.743  0.4574  0.2045  0.0019
14290TIP3   OH264284   0.559   5.508   2.930 -0.3539  0.3428 -0.4166
14290TIP3    H164285   0.471   5.544   2.920 -1.4650 -2.2082 -0.6073
14290TIP3    H264286   0.554   5.453   3.009  1.3263  0.7884  0.0505
14291TIP3   OH264287   5.356   2.346  11.793 -0.4839 -0.1232  0.0922
14291TIP3    H164288   5.320   2.395  11.867 -1.7461 -1.4464  0.4003
14291TIP3    H264289   5.298   2.271  11.784  1.0454 -1.2561 -0.7332
14292TIP3   OH264290   4.014   6.111   2.735  0.3240  0.4428  0.0589
14292TIP3    H164291   4.015   6.201   2.768  1.9639  0.9482 -1.2653
14292TIP3    H264292   4.058   6.116   2.651 -1.8856 -1.1852 -1.2781
14293TIP3   OH264293   6.768   2.236   5.687 -0.5101 -0.4177 -0.3204
14293TIP3    H164294   6.693   2.249   5.628 -1.0442  0.1374  0.4662
14293TIP3    H264295   6.781   2.321   5.728  0.1596 -0.6797  0.0149
14294TIP3   OH264296   5.656   4.099   4.748  0.3108 -0.0935  0.3677
14294TIP3    H164297   5.667   4.165   4.816 -1.9560 -1.1040  1.8417
14294TIP3    H264298   5.673   4.016   4.792  0.3762 -0.6795 -0.7216
14295TIP3   OH264299   6.337   1.259   4.817 -0.0296  0.7464 -0.1679
14295TIP3    H164300   6.299   1.173   4.834  0.7722  0.6157  1.0665
14295TIP3    H264301   6.333   1.304   4.901  2.2135  0.8500 -0.0540
14296TIP3   OH264302   5.255   0.705   3.807 -0.5393 -0.0013  0.5339
14296TIP3    H164303   5.265   0.712   3.902  0.5380  3.4631  0.2855
14296TIP3    H264304   5.219   0.617   3.793  2.5593 -2.0239  3.8277
14297TIP3   OH264305   5.328   6.569   2.605 -0.2147  0.2280  0.1779
14297TIP3    H164306   5.385   6.496   2.583  0.5857  0.2628  1.9871
14297TIP3    H264307   5.387   6.638   2.635 -0.9736  1.5841 -1.2698
14298TIP3   OH264308   0.067   1.578   0.370 -0.1691  0.0912  0.5081
14298TIP3    H164309   0.013   1.519   0.421 -1.1407 -1.3556 -2.0144
14298TIP3    H264310   0.020   1.661   0.371 -2.6902 -1.1607 -1.7339
14299TIP3   OH264311   3.155   0.031   5.508  0.3009  0.1597 -0.1900
14299TIP3    H164312   3.105   0.108   5.479 -0.6781 -0.4191 -0.0933
14299TIP3    H264313   3.241   0.042   5.469  1.1478  2.7551  2.1049
14300TIP3   OH264314   0.791   2.061  14.241  0.1637 -0.6581 -1.1734
14300TIP3    H164315   0.699   2.088  14.229  0.2113  0.4287  0.4803
14300TIP3    H264316   0.840   2.143  14.239  1.0803 -1.2069 -1.7312
14301TIP3   OH264317   4.891   4.597  13.236 -0.1316  0.4416  0.6577
14301TIP3    H164318   4.808   4.555  13.211  0.0959 -0.6912  1.6824
14301TIP3    H264319   4.871   4.642  13.318  0.2792  0.0552  0.9780
14302TIP3   OH264320   3.193   3.301  12.951  0.0851 -0.9437  0.3244
14302TIP3    H164321   3.160   3.370  13.010  0.4797 -1.0226  0.6415
14302TIP3    H264322   3.114   3.259  12.918 -0.3529  1.6493 -2.3510
14303TIP3   OH264323   4.596   5.798   3.764 -0.0005 -0.2152 -0.0052
14303TIP3    H164324   4.641   5.783   3.847 -1.1313  0.6298  0.7807
14303TIP3    H264325   4.519   5.850   3.786 -1.2816 -1.4471 -1.3385
14304TIP3   OH264326   5.093   6.573  11.525  0.2740 -0.7688  0.2118
14304TIP3    H164327   5.176   6.541  11.489 -1.6656 -1.8572 -3.8336
14304TIP3    H264328   5.040   6.494  11.536 -0.8338  0.0559  1.0414
14305TIP3   OH264329   4.367   4.809   4.981  0.5449 -0.1038 -0.1515
14305TIP3    H164330   4.293   4.751   4.999 -0.6993  1.4873  0.1010
14305TIP3    H264331   4.398   4.836   5.067  0.6171  0.2314 -0.2823
14306TIP3   OH264332   0.993   5.207  15.560 -0.0046  0.2037  0.0126
14306TIP3    H164333   0.992   5.192  15.465  1.5081  1.1825 -0.1994
14306TIP3    H264334   0.966   5.298  15.570 -0.1135  0.1164  0.5141
14307TIP3   OH264335   2.767   2.841  11.216  0.0963  0.1084  0.1381
14307TIP3    H164336   2.783   2.748  11.234 -0.0644  0.3850  1.9410
14307TIP3    H264337   2.843   2.869  11.165  0.9369 -0.6589  0.9168
14308TIP3   OH264338   0.134   1.039   1.298  0.4198 -0.4438 -0.6933
14308TIP3    H164339   0.118   1.118   1.246 -2.0683 -0.6750 -0.4004
14308TIP3    H264340   0.168   1.071   1.381 -0.8188  0.3796 -0.4778
14309TIP3   OH264341   3.288   5.876   2.174 -0.1096 -0.0329  0.3694
14309TIP3    H164342   3.284   5.782   2.160 -2.5609  0.0030  0.4855
14309TIP3    H264343   3.297   5.913   2.086 -1.8271 -0.3038  0.0568
14310TIP3   OH264344   2.169   1.732   2.365 -0.1714  0.5081 -0.2999
14310TIP3    H164345   2.088   1.690   2.336  0.8512 -2.4884  0.7308
14310TIP3    H264346   2.143   1.787   2.439 -1.2015 -1.4547  0.8960
14311TIP3   OH264347   6.517   3.937   0.025  0.4694 -0.2243 -0.5564
14311TIP3    H164348   6.512   3.899  -0.063 -0.6105  0.9598 -1.0347
14311TIP3    H264349   6.604   3.978   0.028 -0.1867  1.3159 -1.7671
14312TIP3   OH264350   1.241   0.016   1.159 -0.2635 -0.5910  0.2099
14312TIP3    H164351   1.164   0.071   1.176  0.6013  0.3093  1.3754
14312TIP3    H264352   1.225  -0.064   1.209 -0.1564 -0.1470  0.9559
14313TIP3   OH264353   0.563   6.647   6.400  0.1560 -0.0988 -0.9781
14313TIP3    H164354   0.501   6.660   6.472  1.1151  0.9149 -0.2867
14313TIP3    H264355   0.510   6.654   6.321 -0.7087  0.1156 -0.3978
14314TIP3   OH264356   4.687   0.925  14.124  0.4396 -0.0624  0.0809
14314TIP3    H164357   4.688   0.908  14.030 -0.2806  0.6247 -0.0714
14314TIP3    H264358   4.709   0.841  14.165 -0.0713 -0.5758 -0.6785
14315TIP3   OH264359   2.802   5.176   4.523 -0.4431  0.1654 -0.4388
14315TIP3    H164360   2.765   5.263   4.534 -0.0365  0.1885  0.8886
14315TIP3    H264361   2.753   5.121   4.584  0.2824 -0.2371 -0.2094
14316TIP3   OH264362   3.201   4.233   1.213 -0.1801  0.6106 -0.1001
14316TIP3    H164363   3.262   4.255   1.283 -0.6586  1.4753  0.0683
14316TIP3    H264364   3.116   4.262   1.246 -0.6005 -0.1051 -0.5388
14317TIP3   OH264365   4.868   6.594   3.183 -0.0074  0.1843  0.4112
14317TIP3    H164366   4.789   6.558   3.223  1.8634 -3.1887  1.5038
14317TIP3    H264367   4.882   6.677   3.228 -0.9052 -0.9693  3.0342
14318TIP3   OH264368   1.653   3.068  13.535  0.6264  0.2676 -0.2380
14318TIP3    H164369   1.713   2.995  13.552  1.2617  0.6426 -0.7961
14318TIP3    H264370   1.681   3.135  13.598 -1.0725 -0.5406  1.4911
14319TIP3   OH264371   3.025   5.672   4.467  0.4883  0.7793 -0.0894
14319TIP3    H164372   3.068   5.663   4.382  1.9937 -1.3522  0.8111
14319TIP3    H264373   2.958   5.604   4.467  1.4690 -0.2358  0.9234
14320TIP3   OH264374   6.407   3.206  14.086  0.0720 -0.1077  0.0730
14320TIP3    H164375   6.338   3.181  14.025  1.5440 -0.2116 -1.6310
14320TIP3    H264376   6.375   3.286  14.127 -0.5343  0.5551 -1.6226
14321TIP3   OH264377   1.496   0.257   1.088 -0.9652 -0.1736 -0.8831
14321TIP3    H164378   1.528   0.341   1.123 -1.1449 -0.9393  1.2904
14321TIP3    H264379   1.425   0.232   1.148 -0.1962 -2.4017 -0.8241
14322TIP3   OH264380   6.582   2.991  14.809 -0.1855 -0.6480  0.2970
14322TIP3    H164381   6.533   3.004  14.891  0.0369  0.2662  0.2998
14322TIP3    H264382   6.574   3.075  14.764 -0.7745 -1.3208 -0.8876
14323TIP3   OH264383   3.642   5.522  15.950  0.8683  0.5033 -0.1304
14323TIP3    H164384   3.664   5.543  15.859  0.3416  2.0543  0.0634
14323TIP3    H264385   3.694   5.584  16.002  0.9663 -0.1873  0.6115
14324TIP3   OH264386   3.523   5.778  17.245 -0.1698 -0.2111 -0.0659
14324TIP3    H164387   3.558   5.865  17.224  2.9899 -0.6728  2.4025
14324TIP3    H264388   3.535   5.727  17.165 -0.6235  1.1813 -1.0629
14325TIP3   OH264389   2.438   4.827   3.894 -0.1716  0.6317  0.3508
14325TIP3    H164390   2.405   4.811   3.982  1.5242 -0.5308  0.8359
14325TIP3    H264391   2.380   4.893   3.857 -2.5260 -0.7667  1.3583
14326TIP3   OH264392   3.092   3.694  16.534  0.1029  0.0642 -0.4011
14326TIP3    H164393   3.179   3.673  16.500  0.9259  0.2916  1.4548
14326TIP3    H264394   3.109   3.750  16.610 -1.7385  1.3388 -0.8734
14327TIP3   OH264395   3.298   1.234   5.279 -0.2469 -0.9083  0.6564
14327TIP3    H164396   3.245   1.155   5.288 -2.6439  0.8293  2.9787
14327TIP3    H264397   3.379   1.214   5.326 -0.1888 -2.4114 -0.0140
14328TIP3   OH264398   3.515   6.235  16.707 -0.2961  0.0513 -0.0225
14328TIP3    H164399   3.533   6.307  16.646 -0.2566 -0.0329 -0.1102
14328TIP3    H264400   3.420   6.234  16.716 -0.2933  0.1519  0.0237
14329TIP3   OH264401   1.116   6.239  16.115  0.2703 -0.3559 -0.1030
14329TIP3    H164402   1.210   6.227  16.112  0.4351 -0.6120  2.8457
14329TIP3    H264403   1.100   6.324  16.073  2.0577  0.5243  0.8889
14330TIP3   OH264404   3.351   4.642   5.321  0.2996  0.1965  0.1205
14330TIP3    H164405   3.288   4.694   5.371  0.7201  3.3377 -2.3134
14330TIP3    H264406   3.316   4.553   5.324 -2.5786  1.2430  1.3910
14331TIP3   OH264407   1.716   2.792  16.257 -0.5555 -0.0532 -0.3251
14331TIP3    H164408   1.730   2.772  16.349 -2.2810 -2.8205 -0.5306
14331TIP3    H264409   1.623   2.814  16.250 -0.4269  0.2483 -1.3773
14332TIP3   OH264410   2.650   1.985  13.406 -0.1732  0.3754 -0.1798
14332TIP3    H164411   2.611   1.967  13.492  1.0591  2.3431  0.8494
14332TIP3    H264412   2.744   1.971  13.419  0.0783  1.1789 -1.0711
14333TIP3   OH264413   4.409   1.035  11.842 -0.7262  0.6550 -0.1819
14333TIP3    H164414   4.461   1.112  11.817 -2.5435  1.9977  0.0110
14333TIP3    H264415   4.411   0.979  11.764 -0.5407  1.5439 -0.8327
14334TIP3   OH264416   5.960   2.851  14.921 -0.3307 -0.3162  0.2454
14334TIP3    H164417   5.892   2.863  14.988 -0.6125  1.4731 -0.3042
14334TIP3    H264418   6.036   2.819  14.971 -1.0178 -0.5840  1.1576
14335TIP3   OH264419   3.243   5.798   5.107  0.2148 -0.6980  0.7575
14335TIP3    H164420   3.241   5.808   5.202 -1.7745 -0.5585  0.7376
14335TIP3    H264421   3.159   5.760   5.085  1.4267 -2.7070 -0.7809
14336TIP3   OH264422   4.426   5.170   0.497  0.4130  0.8643  0.2578
14336TIP3    H164423   4.349   5.148   0.549  0.8028 -1.5924 -0.0893
14336TIP3    H264424   4.392   5.227   0.428 -1.0377  0.1436  0.3303
14337TIP3   OH264425   4.804   4.416  16.312  0.3256  0.6015 -0.1615
14337TIP3    H164426   4.853   4.422  16.230 -1.1686  1.0759 -1.0489
14337TIP3    H264427   4.749   4.494  16.314 -1.4675 -0.5965  0.0812
14338TIP3   OH264428   5.330   0.309  16.750  0.3568  0.1991  0.0350
14338TIP3    H164429   5.241   0.280  16.728  0.2758  1.5128 -1.5489
14338TIP3    H264430   5.387   0.251  16.701  0.3565 -0.2773  0.5963
14339TIP3   OH264431   4.800   3.587   5.923 -0.3842 -0.2664 -0.1630
14339TIP3    H164432   4.773   3.671   5.886  1.2095  0.6405  0.6195
14339TIP3    H264433   4.873   3.608   5.982  0.5560 -2.2813 -0.4952
14340TIP3   OH264434   2.934   6.322   4.598  0.0130  0.4470 -0.5449
14340TIP3    H164435   2.863   6.259   4.590  0.9555 -0.4163 -3.0086
14340TIP3    H264436   2.895   6.405   4.572 -0.5051  0.3326 -0.1601
14341TIP3   OH264437   0.381   3.901  12.911 -0.0747 -0.1033  0.2794
14341TIP3    H164438   0.289   3.874  12.912 -0.4977  1.1631 -1.5202
14341TIP3    H264439   0.417   3.859  12.833  0.7614 -0.1708  0.6968
14342TIP3   OH264440   0.051   0.460  11.968 -0.1576 -0.1398  0.2566
14342TIP3    H164441   0.034   0.370  11.996  0.6635  0.4582  2.9754
14342TIP3    H264442   0.073   0.453  11.876  0.3474 -2.7959  0.5178
14343TIP3   OH264443   3.144   0.873   0.356  0.2667  0.0236  0.7670
14343TIP3    H164444   3.091   0.904   0.429 -0.7015 -0.8046  0.4415
14343TIP3    H264445   3.132   0.778   0.355  1.1498 -0.1012  0.2060
14344TIP3   OH264446   0.082   2.490  11.899  0.1198 -0.3686  0.1707
14344TIP3    H164447   0.147   2.441  11.949 -0.2489 -0.7221  0.3139
14344TIP3    H264448  -0.002   2.451  11.924  0.0373 -1.7695 -2.0175
14345TIP3   OH264449   5.023   0.076  12.746 -0.1696 -0.0358  0.4502
14345TIP3    H164450   5.010   0.103  12.655  2.2917  1.2527  0.4289
14345TIP3    H264451   5.014   0.156  12.797 -0.1213 -0.5083  1.2166
14346TIP3   OH264452   1.026   0.191  16.336 -0.3728  0.4897  0.0411
14346TIP3    H164453   1.110   0.148  16.351 -0.7359 -0.0884  0.4613
14346TIP3    H264454   1.032   0.224  16.247  0.7001  1.3854  0.4309
14347TIP3   OH264455   1.473   3.792  16.991 -0.0716 -0.0771  0.1555
14347TIP3    H164456   1.568   3.801  16.991  0.0826 -1.2646  1.3989
14347TIP3    H264457   1.439   3.881  16.979  1.2129  0.6757  1.7047
14348TIP3   OH264458   6.267   3.139   5.189  0.1198  0.4653  0.3635
14348TIP3    H164459   6.311   3.194   5.253 -1.7346  1.7258  0.6189
14348TIP3    H264460   6.178   3.130   5.222 -0.6394  0.3895 -1.5667
14349TIP3   OH264461   5.735   0.069   3.824  0.3000 -0.1260 -0.3568
14349TIP3    H164462   5.776   0.092   3.741  2.8335  0.4108  0.9370
14349TIP3    H264463   5.663   0.132   3.834 -0.4402 -0.5903 -2.3594
14350TIP3   OH264464   4.248   3.480   4.118  0.3713  0.6511  0.1622
14350TIP3    H164465   4.277   3.552   4.173 -0.4116  1.3303 -0.3033
14350TIP3    H264466   4.220   3.521   4.036  0.4110 -0.2291 -0.3154
14351TIP3   OH264467   0.784   3.603  15.844  0.1134 -0.2591  0.3223
14351TIP3    H164468   0.822   3.518  15.825 -2.4196 -0.9873 -2.1923
14351TIP3    H264469   0.713   3.585  15.905  0.2698  0.2332  0.6574
14352TIP3   OH264470   6.077   4.355   1.733 -0.0031 -0.0381 -0.1537
14352TIP3    H164471   6.083   4.421   1.801  0.4779  0.9847 -1.1473
14352TIP3    H264472   6.163   4.313   1.733  0.4834  0.9160 -1.0329
14353TIP3   OH264473   3.807   6.265  14.476 -0.6536 -0.5118 -0.2064
14353TIP3    H164474   3.717   6.231  14.472 -1.3358  1.1217  0.5612
14353TIP3    H264475   3.798   6.360  14.467  0.8552 -0.1691  1.4242
14354TIP3   OH264476   5.542   3.808  14.814 -0.4036  0.2052 -0.0582
14354TIP3    H164477   5.494   3.873  14.866 -1.0893 -0.0546 -0.3508
14354TIP3    H264478   5.499   3.809  14.729  2.0186  2.1438 -1.3922
14355TIP3   OH264479   1.191   5.267  12.726  0.2680  0.0334 -0.0030
14355TIP3    H164480   1.257   5.325  12.762  1.1884 -0.5452 -0.7070
14355TIP3    H264481   1.132   5.324  12.677  0.1334  0.5754  0.7735
14356TIP3   OH264482   0.923   1.051   6.406  0.2408  0.3160 -0.3236
14356TIP3    H164483   0.849   1.081   6.353 -1.5808 -3.1211 -0.0575
14356TIP3    H264484   0.913   1.099   6.489 -1.5782  0.1605 -0.3968
14357TIP3   OH264485   1.635   4.735   0.534  0.3328  0.8469  0.0656
14357TIP3    H164486   1.682   4.699   0.609  1.3149  0.6381 -0.6222
14357TIP3    H264487   1.567   4.670   0.514  1.1024  0.1056 -0.2143
14358TIP3   OH264488   4.141   2.335   3.985  0.0301 -0.0617  0.1367
14358TIP3    H164489   4.071   2.394   4.012  0.7938  0.3597  1.2650
14358TIP3    H264490   4.195   2.323   4.063  2.2600  1.1186 -1.1037
14359TIP3   OH264491   0.213   4.874  16.897  0.0829  0.0328 -0.2475
14359TIP3    H164492   0.185   4.893  16.807  0.8104  0.7785 -0.3340
14359TIP3    H264493   0.266   4.794  16.889  0.3847  0.2596 -0.5259
14360TIP3   OH264494   1.008   1.515  14.315  0.0746 -0.5891 -0.1334
14360TIP3    H164495   0.918   1.547  14.308 -0.0196 -0.8995 -0.3812
14360TIP3    H264496   1.019   1.495  14.408  0.3008  0.6143  0.1157
14361TIP3   OH264497   0.550   2.792  15.741  0.0125 -0.5141 -0.1391
14361TIP3    H164498   0.575   2.798  15.649  0.8637 -0.9961  0.0506
14361TIP3    H264499   0.474   2.850  15.749  1.6287  1.8158 -0.5535
14362TIP3   OH264500   3.988   4.079  14.144  0.3320  0.0290  0.6371
14362TIP3    H164501   3.902   4.100  14.180 -0.2956 -1.7360  0.2840
14362TIP3    H264502   3.976   4.079  14.049  0.7504 -0.1115  0.5777
14363TIP3   OH264503   2.482   2.016   5.670 -0.1567 -0.4410 -0.2520
14363TIP3    H164504   2.483   1.997   5.764  2.1281 -0.7114 -0.2763
14363TIP3    H264505   2.570   1.991   5.639  0.6766  3.4802 -1.6780
14364TIP3   OH264506   4.960   2.507  17.155 -0.7194 -0.0724  0.6480
14364TIP3    H164507   5.017   2.450  17.206  1.5693  1.4109 -0.1005
14364TIP3    H264508   4.987   2.596  17.178 -1.6215  0.6644 -0.9373
14365TIP3   OH264509   1.726   2.505  13.213  0.2438 -0.6218 -0.0183
14365TIP3    H164510   1.638   2.528  13.184 -0.2196 -2.4537 -0.1853
14365TIP3    H264511   1.739   2.556  13.293  0.4490  2.3701 -1.7960
14366TIP3   OH264512   4.992   1.658   3.065  0.1979 -0.4514 -0.5756
14366TIP3    H164513   5.074   1.657   3.016 -0.7835 -0.9962 -2.2726
14366TIP3    H264514   4.976   1.565   3.086 -0.0100 -0.3509 -0.2762
14367TIP3   OH264515   4.972   0.435   0.310  0.6176 -0.0360  0.1005
14367TIP3    H164516   5.056   0.404   0.276 -0.0512  0.9628 -2.6982
14367TIP3    H264517   4.907   0.391   0.256 -0.5990  0.8708  0.7873
14368TIP3   OH264518   3.330   1.613  11.900 -0.2207 -0.9010  0.1228
14368TIP3    H164519   3.258   1.577  11.848  0.7591 -1.2705 -1.0195
14368TIP3    H264520   3.409   1.577  11.861  0.6492  0.2320  0.7541
14369TIP3   OH264521   5.360   4.626  11.570  0.0095  0.5950 -0.0400
14369TIP3    H164522   5.301   4.692  11.533  0.0572  1.0397  0.6636
14369TIP3    H264523   5.309   4.545  11.567  0.0618  0.5947 -1.1827
14370TIP3   OH264524   6.084   6.023   5.178  0.3476  0.1673 -0.2618
14370TIP3    H164525   6.156   6.085   5.191  1.0706 -0.6212 -0.4511
14370TIP3    H264526   6.058   6.036   5.087  2.3628 -1.7033 -1.1983
14371TIP3   OH264527   2.649   4.725   3.119 -0.0475  0.3459  0.2993
14371TIP3    H164528   2.706   4.752   3.048 -0.6675  0.0441 -0.3320
14371TIP3    H264529   2.628   4.633   3.099  0.2536  0.0691  1.2008
14372TIP3   OH264530   2.955   6.531  15.990 -0.2037  0.1954 -0.7670
14372TIP3    H164531   2.882   6.576  15.948 -0.7884 -0.0178 -0.0001
14372TIP3    H264532   2.942   6.544  16.083 -0.8902 -2.2368 -0.4405
14373TIP3   OH264533   3.365   2.784  10.662  0.4964  0.0227 -0.1564
14373TIP3    H164534   3.326   2.802  10.748  0.2850  0.4980 -0.3484
14373TIP3    H264535   3.453   2.821  10.667  0.7634 -0.6392  0.1180
14374TIP3   OH264536   0.182   6.018  12.083 -0.3074  0.2689  0.3773
14374TIP3    H164537   0.149   5.938  12.041 -0.3341  0.1593  0.6036
14374TIP3    H264538   0.105   6.075  12.089 -0.1647  0.5489 -0.3175
14375TIP3   OH264539   1.911   2.099   5.876  0.3595  0.5094  0.0214
14375TIP3    H164540   1.930   2.086   5.783 -0.8351 -3.2735  0.1478
14375TIP3    H264541   1.991   2.070   5.921  0.4520  1.0564  0.2178
14376TIP3   OH264542   0.984   5.205  16.203  0.1528  0.6733  0.2846
14376TIP3    H164543   0.952   5.286  16.243  0.9003  0.8314  0.5810
14376TIP3    H264544   1.043   5.235  16.133 -0.6969  0.3948 -0.5733
14377TIP3   OH264545   4.652   6.455   0.956  0.0996 -0.3979  0.2800
14377TIP3    H164546   4.578   6.480   0.900 -1.4772 -0.9807  2.0042
14377TIP3    H264547   4.712   6.410   0.896 -0.9987 -0.0592 -1.1491
14378TIP3   OH264548   0.918   4.241   5.230  0.2287 -0.2467 -0.2721
14378TIP3    H164549   0.893   4.196   5.310  0.1462 -0.7535 -0.5754
14378TIP3    H264550   0.851   4.215   5.166  0.0172  0.5377 -0.3764
14379TIP3   OH264551   4.852   5.718  12.686  0.5281 -0.2994 -0.0495
14379TIP3    H164552   4.803   5.778  12.630 -2.4678 -1.6258  0.9453
14379TIP3    H264553   4.803   5.718  12.769  2.1531 -1.8676  0.9711
14380TIP3   OH264554   6.490   6.648   4.738 -0.0941  0.3848 -0.3110
14380TIP3    H164555   6.476   6.708   4.665 -0.1297  0.0062 -0.6191
14380TIP3    H264556   6.424   6.580   4.727 -2.5639  2.1923  2.1358
14381TIP3   OH264557   2.903   3.661  14.747 -0.4703  0.1696  0.3043
14381TIP3    H164558   2.931   3.624  14.831 -2.1901  0.6660  1.1289
14381TIP3    H264559   2.897   3.585  14.689  0.7542 -0.1759  0.5976
14382TIP3   OH264560   0.276   2.949  13.873  0.3777 -0.1702 -0.1598
14382TIP3    H164561   0.272   2.853  13.865 -0.7050 -0.1190 -0.2800
14382TIP3    H264562   0.359   2.972  13.831 -1.3005 -0.6796 -4.2302
14383TIP3   OH264563   3.835   1.657   1.190 -0.3272  0.4067 -0.0821
14383TIP3    H164564   3.898   1.585   1.184  1.2204  1.7249 -0.4776
14383TIP3    H264565   3.750   1.614   1.186  0.4852 -1.5887  1.7572
14384TIP3   OH264566   5.537   4.416   3.752 -0.5648 -0.3162  0.1188
14384TIP3    H164567   5.549   4.511   3.760  0.1275 -0.3857 -0.0233
14384TIP3    H264568   5.489   4.391   3.830 -1.0037  0.1956  0.0176
14385TIP3   OH264569   5.541   2.792   3.189 -0.3428 -0.1599 -0.2395
14385TIP3    H164570   5.636   2.802   3.194 -0.1432 -1.6265 -0.6379
14385TIP3    H264571   5.514   2.846   3.115  0.8050 -3.1694 -3.0931
14386TIP3   OH264572   5.147   6.607   5.855 -0.5992 -0.0945 -0.3158
14386TIP3    H164573   5.177   6.690   5.893 -0.6385 -0.3384  0.2660
14386TIP3    H264574   5.052   6.612   5.858 -0.6055 -0.3844  0.2505
14387TIP3   OH264575   5.331   5.633  15.800 -0.2373 -0.2126 -0.0551
14387TIP3    H164576   5.419   5.597  15.785 -0.4208 -0.5084 -0.4480
14387TIP3    H264577   5.320   5.699  15.732  0.5183  1.4041  1.3136
14388TIP3   OH264578   6.627   3.783  14.707 -0.1568 -0.0244 -0.2045
14388TIP3    H164579   6.574   3.705  14.692  0.9886 -0.6684 -1.0186
14388TIP3    H264580   6.657   3.774  14.798  3.3047 -2.7245 -1.3896
14389TIP3   OH264581   0.994   3.082   5.787  0.8653  0.0485  0.3943
14389TIP3    H164582   1.086   3.099   5.811  0.5910  2.6690 -0.0384
14389TIP3    H264583   0.992   3.092   5.692  0.0002  0.9276  0.4915
14390TIP3   OH264584   2.333   6.707  16.401  0.0720  0.4575  0.0377
14390TIP3    H164585   2.387   6.631  16.378 -1.3143 -0.4681 -0.3021
14390TIP3    H264586   2.391   6.762  16.453  1.0249 -1.0170  0.6244
14391TIP3   OH264587   1.956   2.513  15.906  0.5182  0.8486 -0.3079
14391TIP3    H164588   1.921   2.552  15.986  0.0064 -1.9383  0.9517
14391TIP3    H264589   1.883   2.512  15.845  0.1380  0.5597  0.1496
14392TIP3   OH264590   1.604   5.028  13.746  0.2138  0.6068 -0.1560
14392TIP3    H164591   1.578   5.106  13.795  1.1220  0.7808  0.0758
14392TIP3    H264592   1.699   5.025  13.755  0.2432 -0.2242 -0.6274
14393TIP3   OH264593   6.574   3.601  11.578  0.2695 -0.1470  0.1256
14393TIP3    H164594   6.556   3.509  11.556  0.1791 -0.2205  0.5113
14393TIP3    H264595   6.625   3.598  11.658  0.0015  0.1526  0.3109
14394TIP3   OH264596   2.786   5.633   3.488  0.6227 -0.4618 -0.3307
14394TIP3    H164597   2.840   5.708   3.515  0.4802 -1.0994  1.9294
14394TIP3    H264598   2.698   5.655   3.517  0.7555 -1.8829  1.3517
14395TIP3   OH264599   3.210   5.022  12.165 -0.0063 -0.2808  0.1429
14395TIP3    H164600   3.302   5.020  12.190 -0.0632  0.1333  0.3745
14395TIP3    H264601   3.196   4.937  12.123  0.6751 -0.0511 -0.5858
14396TIP3   OH264602   4.330   0.774  15.155  0.6546 -0.1913  0.4612
14396TIP3    H164603   4.413   0.805  15.190  0.2919  0.5426  0.6850
14396TIP3    H264604   4.306   0.839  15.089 -0.4145  0.3595  1.3593
14397TIP3   OH264605   0.703   2.361  16.454 -0.2863  0.3673 -0.7833
14397TIP3    H164606   0.722   2.272  16.483 -1.5473 -1.1532 -4.0407
14397TIP3    H264607   0.788   2.397  16.431  0.4878  0.8847  2.4486
14398TIP3   OH264608   4.679   1.850   4.670 -0.1846 -0.0210 -0.0922
14398TIP3    H164609   4.644   1.763   4.688 -1.8752  0.7385  0.4269
14398TIP3    H264610   4.647   1.872   4.583  1.4539 -0.4794 -0.8458
14399TIP3   OH264611   5.235   6.558   0.721 -0.7647 -0.3523 -0.8835
14399TIP3    H164612   5.160   6.599   0.766  0.6016  0.7437  0.4977
14399TIP3    H264613   5.290   6.525   0.792  1.4272  1.3441 -1.6913
14400TIP3   OH264614   1.677   6.640  13.417  0.5451  0.4106 -0.7637
14400TIP3    H164615   1.678   6.547  13.393  1.5736  0.3692 -0.5937
14400TIP3    H264616   1.746   6.679  13.364  0.5034  0.9654 -0.4103
14401TIP3   OH264617   6.523   5.011  15.029  0.1936 -0.7310  0.4254
14401TIP3    H164618   6.524   5.106  15.021  2.4209 -0.8028 -1.0103
14401TIP3    H264619   6.441   4.984  14.989 -0.2758  0.5492  0.4812
14402TIP3   OH264620   6.705   1.080  10.599 -0.1474  0.4138 -0.0806
14402TIP3    H164621   6.683   1.160  10.551 -0.9501 -0.2710 -0.8851
14402TIP3    H264622   6.749   1.025  10.535 -1.3987 -0.5907 -0.1131
14403TIP3   OH264623   4.224   3.147  12.833  0.6735 -0.7151  0.2687
14403TIP3    H164624   4.146   3.162  12.780  1.1738  0.4948 -0.1921
14403TIP3    H264625   4.197   3.166  12.922  0.3437 -0.6381  0.1545
14404TIP3   OH264626   6.336   3.533   3.453 -0.8579 -0.1188  0.2532
14404TIP3    H164627   6.339   3.475   3.376 -0.8558 -0.5021  0.5366
14404TIP3    H264628   6.427   3.543   3.479 -0.8625 -0.0268  0.2345
14405TIP3   OH264629   2.395   0.925  16.306  0.5386 -0.1879 -0.1473
14405TIP3    H164630   2.367   0.842  16.268  0.4355  0.6612 -2.0415
14405TIP3    H264631   2.344   0.932  16.387 -1.4169 -0.7832 -1.2529
14406TIP3   OH264632   2.016   2.293   5.111 -0.1582  0.3513 -0.8910
14406TIP3    H164633   2.043   2.384   5.104 -0.7468  0.5129 -1.1010
14406TIP3    H264634   2.098   2.245   5.128  0.0121  1.0275  0.2382
14407TIP3   OH264635   6.645   2.311   0.087  0.2513 -0.1872  0.8491
14407TIP3    H164636   6.650   2.229   0.136 -0.7872 -1.3615 -0.9127
14407TIP3    H264637   6.640   2.284  -0.004  0.7570  1.8898  0.1555
14408TIP3   OH264638   0.608   1.083   3.017 -0.2935  0.7878 -0.4487
14408TIP3    H164639   0.699   1.052   3.012 -0.0919  0.7210  2.1595
14408TIP3    H264640   0.610   1.171   2.979  0.0168 -0.5586 -3.8954
14409TIP3   OH264641   5.373   1.571   1.730 -0.0833  0.1657 -0.0030
14409TIP3    H164642   5.434   1.626   1.778  0.1899 -0.5592  0.4970
14409TIP3    H264643   5.421   1.490   1.714  0.1919  0.7410 -2.3986
14410TIP3   OH264644   1.357   6.349  15.659  0.0894  0.8178 -0.1527
14410TIP3    H164645   1.446   6.378  15.638 -0.1873  2.2197  0.4911
14410TIP3    H264646   1.355   6.346  15.755  0.4776 -2.6710 -0.1330
14411TIP3   OH264647   1.494   4.257  15.666  0.6191  0.1844 -0.0871
14411TIP3    H164648   1.419   4.298  15.622 -0.9988 -1.2543  1.2178
14411TIP3    H264649   1.481   4.276  15.759  0.9254 -1.5222  0.3361
14412TIP3   OH264650   1.978   1.858  10.437 -0.3143 -0.0939 -0.3266
14412TIP3    H164651   1.932   1.776  10.458  1.0095 -0.4309  1.4958
14412TIP3    H264652   2.006   1.891  10.522  0.6700  1.3741 -1.1968
14413TIP3   OH264653   1.439   5.693  14.825 -0.0660 -0.1512  0.1389
14413TIP3    H164654   1.439   5.704  14.920  0.4697 -0.2519  0.1550
14413TIP3    H264655   1.531   5.683  14.803 -0.1764  0.0412 -0.4129
14414TIP3   OH264656   5.612   1.000  13.225 -0.9719  0.7232 -0.2236
14414TIP3    H164657   5.703   0.983  13.198 -0.5179  0.1258  1.5515
14414TIP3    H264658   5.602   1.095  13.217 -0.5089  0.6899 -1.3417
14415TIP3   OH264659   4.493   5.171  11.344  0.0972  0.2176 -0.2162
14415TIP3    H164660   4.451   5.167  11.259 -0.0668  2.7629 -0.3359
14415TIP3    H264661   4.575   5.123  11.333 -0.3954 -0.3688 -1.4835
14416TIP3   OH264662   0.925   0.405   2.667 -0.3188  0.1328 -0.0939
14416TIP3    H164663   0.852   0.390   2.728  0.3587 -0.9923  0.4868
14416TIP3    H264664   0.887   0.393   2.580 -0.2848 -3.8171  0.2187
14417TIP3   OH264665   0.518   4.988  13.710  0.0364  0.4867 -0.4981
14417TIP3    H164666   0.448   5.039  13.669 -2.1811 -1.6989  0.2974
14417TIP3    H264667   0.529   4.912  13.654  0.7884  0.1025  0.1420
14418TIP3   OH264668   0.045   6.017   2.261 -0.6115 -0.0780 -0.4316
14418TIP3    H164669   0.074   5.999   2.172  0.7559 -4.1426  0.6068
14418TIP3    H264670  -0.038   5.970   2.269  0.6425 -2.2468  1.0819
14419TIP3   OH264671   6.592   2.260  16.219 -0.2631  0.3281 -0.6296
14419TIP3    H164672   6.597   2.289  16.128 -0.5427  0.2334 -0.6740
14419TIP3    H264673   6.500   2.239  16.233  0.1949 -2.3160 -1.1328
14420TIP3   OH264674   2.271   5.434   0.703  0.2872 -0.1106  0.3854
14420TIP3    H164675   2.273   5.342   0.732  3.0396  0.2655  1.7115
14420TIP3    H264676   2.236   5.481   0.779 -0.5432  0.0270 -0.0745
14421TIP3   OH264677   3.437   4.837  13.340 -0.3564 -0.6446 -0.0824
14421TIP3    H164678   3.510   4.873  13.390 -0.3827  1.8481 -1.6941
14421TIP3    H264679   3.479   4.776  13.279 -0.1704 -2.5355  1.8217
14422TIP3   OH264680   0.346   6.471  16.722 -0.6378  0.5233  0.1598
14422TIP3    H164681   0.280   6.449  16.788  0.9452  1.2003  2.0799
14422TIP3    H264682   0.386   6.386  16.700 -1.3402  0.2595 -0.1103
14423TIP3   OH264683   1.917   2.371   1.838 -0.8038 -0.0708  0.4242
14423TIP3    H164684   1.990   2.331   1.791 -0.7389 -1.6826  1.8190
14423TIP3    H264685   1.865   2.414   1.770  0.0157 -1.1695 -0.9333
14424TIP3   OH264686   0.691   5.690  15.156  0.1150 -0.7510  0.1699
14424TIP3    H164687   0.771   5.719  15.199  0.0535 -0.0947 -0.1465
14424TIP3    H264688   0.661   5.767  15.108 -1.4827 -0.5133  1.4347
14425TIP3   OH264689   1.032   1.211   5.643 -0.0196 -0.5340 -0.0295
14425TIP3    H164690   0.997   1.152   5.577  0.6439 -0.7948 -0.1586
14425TIP3    H264691   0.987   1.186   5.724  0.1875 -1.1612 -0.1010
14426TIP3   OH264692   3.109   4.810   0.186 -0.2889 -0.3214  0.2523
14426TIP3    H164693   3.082   4.897   0.216  2.0716  0.8805 -0.8365
14426TIP3    H264694   3.065   4.799   0.102 -0.1173  0.1025  0.1038
14427TIP3   OH264695   1.967   4.999   0.469  0.1763 -0.7942  0.3543
14427TIP3    H164696   1.981   4.975   0.378 -3.2302  0.9194 -0.8097
14427TIP3    H264697   1.995   5.091   0.475  0.9660 -1.0729  1.2346
14428TIP3   OH264698   1.134   4.193  10.600 -0.5432  0.0350 -0.2118
14428TIP3    H164699   1.121   4.166  10.691  0.5695 -2.3362 -0.6642
14428TIP3    H264700   1.207   4.254  10.603 -0.0856 -0.5259  0.4578
14429TIP3   OH264701   5.265   6.076  12.175  0.2649 -0.5062  0.0601
14429TIP3    H164702   5.250   6.167  12.149  0.7200  0.0991  1.7865
14429TIP3    H264703   5.360   6.069  12.182  0.1840 -0.7371  1.1127
14430TIP3   OH264704   2.814   4.439  17.011  0.1192 -0.2202 -0.1973
14430TIP3    H164705   2.765   4.374  17.062 -2.5610  0.8752 -1.2200
14430TIP3    H264706   2.815   4.403  16.922  1.1889 -0.1975 -0.2034
14431TIP3   OH264707   5.965   5.990   1.718 -1.0006 -0.0450 -0.1545
14431TIP3    H164708   6.007   6.008   1.802  1.4835  0.1848 -1.3543
14431TIP3    H264709   5.950   6.076   1.679 -1.4613 -0.1814 -0.2916
14432TIP3   OH264710   5.431   0.230  15.686 -0.5131 -0.1466 -0.5705
14432TIP3    H164711   5.487   0.228  15.763  1.0554  0.2138 -1.6695
14432TIP3    H264712   5.411   0.138  15.668  0.5181 -0.3473 -0.7205
14433TIP3   OH264713   1.242   5.362  16.417  0.5403  0.9199 -0.1192
14433TIP3    H164714   1.180   5.408  16.473 -1.4045  0.2455 -1.6051
14433TIP3    H264715   1.324   5.409  16.428 -0.3244  2.1473  1.5552
14434TIP3   OH264716   5.198   1.252  16.897  0.0024  0.3280  0.0438
14434TIP3    H164717   5.165   1.340  16.880 -1.4854 -0.1695  0.2617
14434TIP3    H264718   5.258   1.263  16.971  0.5212  1.2774 -0.4965
14435TIP3   OH264719   1.091   0.985   2.375 -0.0444  0.1766  0.5760
14435TIP3    H164720   1.170   0.979   2.429  1.1505 -0.1973 -1.1267
14435TIP3    H264721   1.073   1.079   2.369 -0.3060  0.2101  1.7568
14436TIP3   OH264722   4.719   0.948   4.878  0.2857  0.0793 -0.4438
14436TIP3    H164723   4.666   1.006   4.824  1.6236 -0.5856 -2.6101
14436TIP3    H264724   4.728   0.994   4.961 -0.8098  1.7570 -1.2018
14437TIP3   OH264725   5.225   2.520   2.039  0.3380 -0.0229  0.2415
14437TIP3    H164726   5.228   2.455   2.109 -3.9637 -2.1816 -1.2020
14437TIP3    H264727   5.190   2.599   2.080  0.6280 -0.3298  1.0807
14438TIP3   OH264728   1.772   4.500   2.859  0.0136  0.8754  0.1282
14438TIP3    H164729   1.756   4.424   2.914  1.2488 -1.0362 -1.9759
14438TIP3    H264730   1.704   4.496   2.791  0.5536  1.1812 -0.4491
14439TIP3   OH264731   1.973   6.178  16.625 -0.0924  1.1130  0.7448
14439TIP3    H164732   2.064   6.151  16.615  0.0850  1.5233  1.2135
14439TIP3    H264733   1.929   6.146  16.545  0.4671  0.9548  0.4968
14440TIP3   OH264734   4.331   5.329  15.746 -0.4557  0.0302 -0.5745
14440TIP3    H164735   4.296   5.362  15.663  0.5297 -1.0930 -1.4604
14440TIP3    H264736   4.396   5.395  15.772 -0.8379  0.4363 -0.6279
14441TIP3   OH264737   5.575   1.722   5.649 -0.4051  0.1243 -0.1771
14441TIP3    H164738   5.588   1.730   5.554 -1.8268 -0.3611 -0.4440
14441TIP3    H264739   5.662   1.732   5.686  0.2348 -0.0417 -1.5621
14442TIP3   OH264740   1.802   6.089  16.412 -0.0364 -0.1385  0.4439
14442TIP3    H164741   1.773   6.123  16.327  1.3688  1.5799  0.5921
14442TIP3    H264742   1.867   6.022  16.390  0.8224  0.7733  0.1334
14443TIP3   OH264743   0.313   0.303   0.202 -0.4237  0.3121 -0.4154
14443TIP3    H164744   0.220   0.293   0.223 -0.3719  0.7960  0.0542
14443TIP3    H264745   0.318   0.283   0.108 -0.8554 -0.5954 -0.2643
14444TIP3   OH264746   5.646   5.046  13.902  0.1146  0.1635 -0.0648
14444TIP3    H164747   5.670   5.113  13.965 -1.2468 -0.7097  1.4738
14444TIP3    H264748   5.729   5.013  13.868  0.8442  1.1988  0.6795
14445TIP3   OH264749   4.300   5.136  14.250 -0.3635 -0.1098 -0.1613
14445TIP3    H164750   4.278   5.060  14.303 -1.5840  0.3113 -0.0362
14445TIP3    H264751   4.350   5.100  14.177  0.3466 -0.8361  0.6584
14446TIP3   OH264752   0.264   3.149  10.750 -0.0737  0.1341 -0.1967
14446TIP3    H164753   0.330   3.113  10.691  1.5303 -2.8410  3.0385
14446TIP3    H264754   0.190   3.089  10.743 -0.6915  0.9188 -0.5849
14447TIP3   OH264755   5.000   2.808   4.149  0.2941 -0.6462 -0.0185
14447TIP3    H164756   4.967   2.865   4.218  1.3605 -2.1064  1.8075
14447TIP3    H264757   4.924   2.789   4.095 -0.6496  0.3276  0.9188
14448TIP3   OH264758   4.147   4.471  11.951  0.2191 -0.3500  0.0694
14448TIP3    H164759   4.131   4.405  12.019  1.0428 -0.0287  0.5922
14448TIP3    H264760   4.152   4.421  11.870 -1.1884 -0.6952  0.1729
14449TIP3   OH264761   3.325   0.106   4.253  0.8501  0.0421 -0.4689
14449TIP3    H164762   3.285   0.019   4.243  2.3386 -0.7318  0.0377
14449TIP3    H264763   3.293   0.156   4.178 -0.4250 -0.7711 -0.5085
14450TIP3   OH264764   5.770   2.781   0.931  0.1502  0.5814  1.0803
14450TIP3    H164765   5.757   2.726   0.854 -0.5606  2.3969 -0.1832
14450TIP3    H264766   5.860   2.812   0.924 -0.2709  1.6892  0.2772
14451TIP3   OH264767   2.802   3.977   0.212 -0.3537  0.6830  0.0848
14451TIP3    H164768   2.747   3.960   0.136 -0.3270 -1.9540  0.5630
14451TIP3    H264769   2.741   3.985   0.285 -0.3038  2.0635  0.0089
14452TIP3   OH264770   5.225   6.635  16.880 -0.1986  0.3982  0.1669
14452TIP3    H164771   5.257   6.664  16.965 -1.0688  1.0005  0.3063
14452TIP3    H264772   5.289   6.668  16.817  0.8359 -0.6615  0.6185
14453TIP3   OH264773   1.227   3.902  14.152  0.2131  0.5377 -0.6056
14453TIP3    H164774   1.131   3.898  14.156  0.2793  0.2365  2.1287
14453TIP3    H264775   1.256   3.825  14.201  1.8174  2.0540  0.9464
14454TIP3   OH264776   1.472   1.933   2.529 -0.1406 -0.4162  0.2346
14454TIP3    H164777   1.469   1.876   2.607 -1.6015 -0.9109 -0.1606
14454TIP3    H264778   1.384   1.928   2.493 -0.1021  1.5877 -0.2073
14455TIP3   OH264779   5.584   3.219  14.855 -0.5950  0.5584 -0.2625
14455TIP3    H164780   5.643   3.288  14.888 -1.0330  1.1624 -0.7130
14455TIP3    H264781   5.592   3.148  14.919 -0.6439  1.2974  0.5932
14456TIP3   OH264782   0.708   0.231  13.211  0.2775 -0.0273  0.1705
14456TIP3    H164783   0.799   0.204  13.227  0.3381  0.9678  1.7672
14456TIP3    H264784   0.708   0.263  13.121  1.3658 -0.6202 -0.0581
14457TIP3   OH264785   0.896   6.377   2.933  0.2081  0.6692  0.1710
14457TIP3    H164786   0.813   6.363   2.979 -0.0023 -0.3269 -0.4839
14457TIP3    H264787   0.885   6.463   2.891  0.4251  1.6342  1.9541
14458TIP3   OH264788   0.373   1.257  16.890  0.1916 -0.8304 -0.0087
14458TIP3    H164789   0.451   1.236  16.942  0.5448 -0.0846 -0.2160
14458TIP3    H264790   0.402   1.249  16.799 -0.5723 -2.6616 -0.1261
14459TIP3   OH264791   4.484   6.295   4.844  0.0421 -0.2814 -0.1814
14459TIP3    H164792   4.452   6.382   4.869 -0.0737 -0.3315 -0.1534
14459TIP3    H264793   4.546   6.311   4.773 -0.1674 -0.1972 -0.3436
14460TIP3   OH264794   0.735   0.891   4.912  0.5157  0.6325  0.2624
14460TIP3    H164795   0.650   0.912   4.952 -0.2559 -0.0445 -0.9466
14460TIP3    H264796   0.780   0.838   4.977 -0.3601  0.2668  0.5854
14461TIP3   OH264797   5.623   1.015   1.241 -0.2095  0.5160  0.2654
14461TIP3    H164798   5.593   0.986   1.327  1.6044  0.5828  0.9704
14461TIP3    H264799   5.666   1.099   1.257 -1.1223  1.2652 -0.9731
14462TIP3   OH264800   3.655   6.197   6.643 -0.0654 -0.7239  0.6622
14462TIP3    H164801   3.688   6.259   6.708  0.0549 -1.5842  1.4470
14462TIP3    H264802   3.733   6.151   6.611  0.0863  0.8026 -1.3309
14463TIP3   OH264803   6.769   2.558   4.504  0.4595  0.0365 -0.4397
14463TIP3    H164804   6.770   2.641   4.553 -2.4538 -0.5219  0.8215
14463TIP3    H264805   6.778   2.491   4.571 -1.7108 -0.7005 -0.7946
14464TIP3   OH264806   4.488   5.321   1.986 -0.2246 -0.1246 -0.4021
14464TIP3    H164807   4.520   5.233   1.968 -0.4372 -0.3548  0.2823
14464TIP3    H264808   4.549   5.355   2.052  1.2129  1.1141 -2.2768
14465TIP3   OH264809   3.317   4.585  11.519  0.0555  0.0787 -0.0045
14465TIP3    H164810   3.275   4.506  11.551 -0.1527  0.9293  1.9328
14465TIP3    H264811   3.394   4.596  11.575 -0.6327  1.9276  0.6712
14466TIP3   OH264812   4.601   3.657  10.609 -1.2612  0.4994 -0.2317
14466TIP3    H164813   4.654   3.615  10.541 -0.6652  0.4664  0.2415
14466TIP3    H264814   4.573   3.585  10.666  0.4016  0.7924  1.0155
14467TIP3   OH264815   2.072   0.191  12.266  0.2155  0.3929  0.3686
14467TIP3    H164816   2.067   0.170  12.173 -1.2388 -1.0595  0.7209
14467TIP3    H264817   2.134   0.263  12.271  1.1817 -0.2191 -1.6022
14468TIP3   OH264818   1.969   0.613   0.820  0.0676  0.1867  0.2297
14468TIP3    H164819   1.985   0.543   0.884  0.4832  0.1733  0.1169
14468TIP3    H264820   1.982   0.572   0.735  2.6120  0.8985  0.1852
14469TIP3   OH264821   4.698   0.682   4.779  0.0346  0.0341  0.4387
14469TIP3    H164822   4.706   0.619   4.850  0.4823  0.0817  0.4353
14469TIP3    H264823   4.714   0.767   4.820  1.3328 -0.0286  0.1041
14470TIP3   OH264824   1.604   5.155  13.180 -0.0668  0.6014 -0.2947
14470TIP3    H164825   1.586   5.127  13.090 -0.3031  1.3432 -0.4879
14470TIP3    H264826   1.667   5.091  13.212  1.3132  1.2546 -1.5590
14471TIP3   OH264827   1.160   6.654   6.837 -0.0370  0.2287 -0.4581
14471TIP3    H164828   1.244   6.610   6.851  0.2932  0.6484 -1.0426
14471TIP3    H264829   1.100   6.614   6.900  0.7370  0.3119  0.3464
14472TIP3   OH264830   3.405   6.255   1.710  1.1364  0.0102 -0.0189
14472TIP3    H164831   3.482   6.304   1.681  1.7351 -1.8681 -1.8370
14472TIP3    H264832   3.430   6.220   1.796  1.6651  0.7208  0.1282
14473TIP3   OH264833   2.919   3.637   3.436 -0.3557 -0.1359 -0.2705
14473TIP3    H164834   2.878   3.622   3.351  0.1582 -2.6801 -0.1401
14473TIP3    H264835   2.847   3.630   3.499 -0.6465  1.2255 -0.4241
14474TIP3   OH264836   1.820   1.071  12.443 -0.4625 -0.3399 -0.6018
14474TIP3    H164837   1.904   1.045  12.406 -0.5397  0.1164 -1.1041
14474TIP3    H264838   1.799   1.155  12.401 -0.7931 -0.0578  0.0960
14475TIP3   OH264839   5.314   0.191   1.548  0.2843 -0.4169  0.2470
14475TIP3    H164840   5.346   0.133   1.479  0.9012 -1.1278  1.1138
14475TIP3    H264841   5.365   0.168   1.625 -0.5434  0.2177  1.0113
14476TIP3   OH264842   1.217   0.574   1.862 -0.4144 -0.2539 -0.3238
14476TIP3    H164843   1.136   0.540   1.824 -1.8196  0.8761  1.4944
14476TIP3    H264844   1.192   0.606   1.948  1.8633  0.7234  0.0563
14477TIP3   OH264845   0.737   4.825  14.224 -0.1222 -0.2342 -0.0488
14477TIP3    H164846   0.679   4.808  14.298  0.3452  0.6771  0.5475
14477TIP3    H264847   0.804   4.757  14.230  0.4172  0.3478  0.9213
14478TIP3   OH264848   3.143   5.611   2.580 -0.3127  0.1494 -0.7363
14478TIP3    H164849   3.078   5.552   2.618  0.9237  0.6816  2.5498
14478TIP3    H264850   3.099   5.696   2.576  0.1390  0.5832  1.7932
14479TIP3   OH264851   2.432   1.423  13.435  0.5706  0.2494  0.3332
14479TIP3    H164852   2.451   1.370  13.357 -3.8052  3.5721 -3.5634
14479TIP3    H264853   2.472   1.508  13.416  0.5271  0.7881  2.4324
14480TIP3   OH264854   3.087   1.081  16.898 -0.0845  0.9106  0.3566
14480TIP3    H164855   3.131   1.005  16.937  0.6961  1.3845  0.4350
14480TIP3    H264856   3.156   1.147  16.893 -0.6755  1.5022 -0.0175
14481TIP3   OH264857   2.708   6.091  12.609  0.3428  0.2685  0.2246
14481TIP3    H164858   2.689   6.184  12.622  0.2541  0.1351  1.1228
14481TIP3    H264859   2.746   6.087  12.522 -1.6401  0.8538 -0.7486
14482TIP3   OH264860   0.244   1.979   1.160 -0.3232 -0.8734  0.3046
14482TIP3    H164861   0.196   1.903   1.192 -0.9370 -1.7045 -2.2811
14482TIP3    H264862   0.310   1.943   1.101  0.9403  0.4991  0.8096
14483TIP3   OH264863   2.904   1.959   2.011  0.4787 -0.2220 -0.1833
14483TIP3    H164864   2.894   2.038   2.063 -1.0058 -0.5717  0.1160
14483TIP3    H264865   2.869   1.981   1.926 -3.3834 -1.4754  0.8826
14484TIP3   OH264866   1.823   4.721   4.787 -0.1431  0.1489  0.1846
14484TIP3    H164867   1.823   4.655   4.856 -0.5513  0.5973  0.6267
14484TIP3    H264868   1.805   4.673   4.706  0.1421 -0.3514  0.4202
14485TIP3   OH264869   0.171   3.314  10.436  0.5311 -0.0138 -0.4021
14485TIP3    H164870   0.214   3.335  10.519  0.1533 -1.4627  0.1970
14485TIP3    H264871   0.205   3.227  10.413  1.1122  0.6128 -2.1183
14486TIP3   OH264872   1.696   2.267   4.023  0.0717  0.3155  0.3745
14486TIP3    H164873   1.709   2.172   4.025 -2.7327 -0.1379  1.2768
14486TIP3    H264874   1.734   2.295   3.940  0.9349 -1.5891  0.0837
14487TIP3   OH264875   1.931   3.631  14.059  0.1580  0.3528 -0.3633
14487TIP3    H164876   1.878   3.691  14.006  0.4012 -1.8365 -3.3769
14487TIP3    H264877   2.014   3.677  14.072 -1.0062  2.2045  0.9539
14488TIP3   OH264878   4.137   4.934  12.553  0.0474 -0.1083  0.3720
14488TIP3    H164879   4.141   4.963  12.644  0.9134  0.4037  0.1883
14488TIP3    H264880   4.178   5.005  12.504 -0.3501 -0.4087 -0.4125
14489TIP3   OH264881   4.390   0.206  16.546  0.3810  0.1926 -0.5172
14489TIP3    H164882   4.359   0.212  16.636 -0.2436 -1.5327 -0.5725
14489TIP3    H264883   4.475   0.163  16.553 -0.0195 -0.6691 -0.7799
14490TIP3   OH264884   2.111   2.446   3.919  0.1763  0.1096  0.7524
14490TIP3    H164885   2.018   2.459   3.898  0.1692  2.7811  1.9443
14490TIP3    H264886   2.157   2.506   3.861  1.1105 -0.6694  0.6734
14491TIP3   OH264887   5.270   3.369   3.647  0.3818 -0.0292 -0.3148
14491TIP3    H164888   5.363   3.367   3.666 -0.1993 -0.6374  3.1076
14491TIP3    H264889   5.243   3.458   3.667 -0.2272 -0.6364  1.7715
14492TIP3   OH264890   4.171   6.291  16.369 -0.3644 -0.1417  0.3069
14492TIP3    H164891   4.240   6.343  16.328 -1.1200 -1.0368 -2.2608
14492TIP3    H264892   4.143   6.230  16.301 -0.8494 -2.6332  2.5488
14493TIP3   OH264893   6.447   2.630  13.415 -0.1492 -0.0445  0.3468
14493TIP3    H164894   6.356   2.620  13.387  0.1724 -1.8817 -0.2275
14493TIP3    H264895   6.472   2.543  13.445  2.6680 -0.8986 -3.5985
14494TIP3   OH264896   1.552   2.607  11.882 -0.5516  0.4770  0.5152
14494TIP3    H164897   1.471   2.636  11.922 -0.8274  1.7386 -0.8824
14494TIP3    H264898   1.585   2.683  11.834  0.8787 -0.3242  0.1461
14495TIP3   OH264899   5.889   4.951  16.216 -0.2935  0.4045  0.3446
14495TIP3    H164900   5.971   4.999  16.209 -0.1434  0.3051  1.2341
14495TIP3    H264901   5.822   5.011  16.184  0.1112  0.5203 -0.2951
14496TIP3   OH264902   3.083   3.214   0.794 -0.4222  0.0754 -0.3651
14496TIP3    H164903   3.107   3.228   0.886 -1.7283  1.3648 -0.1934
14496TIP3    H264904   2.988   3.211   0.794 -0.4931  1.2068 -1.8286
14497TIP3   OH264905   0.321   2.850   2.562  0.6615  0.0377  0.0766
14497TIP3    H164906   0.294   2.769   2.605 -0.9066  0.8526  0.7426
14497TIP3    H264907   0.381   2.891   2.624 -0.5900  0.5897  0.9891
14498TIP3   OH264908   1.570   4.126   2.692 -0.3911  0.1764 -0.4658
14498TIP3    H164909   1.512   4.054   2.666  0.0792 -0.0078 -1.0205
14498TIP3    H264910   1.533   4.158   2.774 -0.5457 -0.7684 -0.1563
14499TIP3   OH264911   2.371   3.072   3.794  0.2374  0.6000  0.4550
14499TIP3    H164912   2.422   3.152   3.779  0.6561  0.5818  1.6763
14499TIP3    H264913   2.324   3.088   3.876 -0.8831  0.1871 -0.0960
14500TIP3   OH264914   0.497   0.350  11.037  0.3911  0.0232  0.0562
14500TIP3    H164915   0.544   0.270  11.014  1.8017  0.3686  1.4852
14500TIP3    H264916   0.423   0.321  11.091  1.3289 -0.3163  1.2045
14501TIP3   OH264917   1.001   2.117  14.552  0.6222  0.3874 -0.4864
14501TIP3    H164918   0.969   2.037  14.512  0.5682  0.4822 -0.6361
14501TIP3    H264919   1.093   2.099  14.572  0.4393  0.0698  0.0720
14502TIP3   OH264920   6.321   3.187  16.331  0.0930  0.1652 -0.1076
14502TIP3    H164921   6.304   3.093  16.337  3.6638 -0.5097  2.1664
14502TIP3    H264922   6.267   3.226  16.401 -0.1990 -0.3845 -0.0210
14503TIP3   OH264923   5.985   6.253   0.727 -0.4797 -0.0558  0.0081
14503TIP3    H164924   5.910   6.273   0.783  0.1470  5.0777 -0.4748
14503TIP3    H264925   5.951   6.260   0.638  0.3392  1.7684 -0.2069
14504TIP3   OH264926   5.548   1.615   0.011 -0.1880 -0.1917  0.6299
14504TIP3    H164927   5.573   1.525   0.033 -0.2289 -0.2472  0.4494
14504TIP3    H264928   5.500   1.608  -0.071  0.1939  0.0426  0.3801
14505TIP3   OH264929   3.113   2.425   5.089 -0.2282 -0.1474  0.3109
14505TIP3    H164930   3.120   2.434   5.184  0.8253 -1.6197  0.4095
14505TIP3    H264931   3.128   2.332   5.072 -0.4298  0.0784 -1.3029
14506TIP3   OH264932   2.729   0.174   1.432  0.0081  0.5104  0.4570
14506TIP3    H164933   2.774   0.091   1.417 -0.2560  0.5195 -0.4504
14506TIP3    H264934   2.702   0.202   1.345 -2.2047  0.2483  1.0048
14507TIP3   OH264935   1.023   2.810   5.790 -0.0648  0.1377  0.0561
14507TIP3    H164936   1.020   2.791   5.884  0.2719  1.2271  0.3071
14507TIP3    H264937   1.021   2.906   5.785  1.6945  0.1628 -0.9580
14508TIP3   OH264938   1.443   6.711  13.521  0.3406 -0.8721  0.0476
14508TIP3    H164939   1.449   6.649  13.594  1.9527 -0.2252  0.5018
14508TIP3    H264940   1.524   6.699  13.472  0.3765  0.4251 -0.2334
14509TIP3   OH264941   6.330   3.747   0.133 -0.7101  1.0643 -0.2795
14509TIP3    H164942   6.397   3.813   0.116 -1.1071  1.9088  1.3119
14509TIP3    H264943   6.273   3.786   0.199 -0.5672 -1.1187  1.2279
14510TIP3   OH264944   1.909   0.439  12.653  0.0323  0.1646 -0.8881
14510TIP3    H164945   1.918   0.365  12.592  0.6277  1.8846 -3.0097
14510TIP3    H264946   1.816   0.442  12.674 -0.1376 -0.6912 -1.4578
14511TIP3   OH264947   2.758   3.681  15.391 -0.0574  0.5730  0.4557
14511TIP3    H164948   2.666   3.679  15.363 -0.1519 -1.4090  0.7127
14511TIP3    H264949   2.790   3.593  15.370  1.9556  1.3954 -0.1191
14512TIP3   OH264950   0.498   0.531  16.249  0.0622 -0.2682 -0.6750
14512TIP3    H164951   0.551   0.591  16.197 -0.0772 -0.6329 -1.2600
14512TIP3    H264952   0.409   0.541  16.213 -0.5114  1.1645  1.0422
14513TIP3   OH264953   3.089   1.707  16.992  0.1067 -0.3543  0.3387
14513TIP3    H164954   3.148   1.642  17.031 -0.2018 -0.8686 -0.0274
14513TIP3    H264955   3.131   1.732  16.910  0.4989  0.3371  0.7421
14514TIP3   OH264956   4.178   4.683   1.870  1.0466 -0.0091  0.5528
14514TIP3    H164957   4.210   4.762   1.914  2.1625 -0.1898  0.0956
14514TIP3    H264958   4.257   4.643   1.833  0.4181 -1.0416  0.3037
14515TIP3   OH264959   1.985   5.489  15.855  0.1159 -0.5256  0.0311
14515TIP3    H164960   1.973   5.404  15.898 -0.5726 -0.8404 -0.7481
14515TIP3    H264961   1.902   5.504  15.809  0.5723  0.1202 -0.6017
14516TIP3   OH264962   5.618   3.123  15.417  0.1199 -0.3304  0.2399
14516TIP3    H164963   5.651   3.041  15.380 -2.0897 -1.4179  0.5035
14516TIP3    H264964   5.560   3.096  15.489  0.3347  1.5257  1.1720
14517TIP3   OH264965   5.087   5.417   4.176  0.6116 -0.5142  0.6880
14517TIP3    H164966   5.165   5.470   4.158  0.0466  0.5735  1.2874
14517TIP3    H264967   5.076   5.424   4.271 -1.8294  1.7841  0.3485
14518TIP3   OH264968   1.225   2.305   4.066  0.2314 -0.4463  0.4583
14518TIP3    H164969   1.173   2.363   4.121  0.5522  1.1315 -0.8358
14518TIP3    H264970   1.221   2.220   4.111 -2.4832 -0.1320  1.0090
14519TIP3   OH264971   3.040   6.117   0.881  0.1052 -0.3280 -0.0382
14519TIP3    H164972   3.040   6.042   0.940 -0.6143 -0.6031 -0.3759
14519TIP3    H264973   2.998   6.085   0.801 -0.3234  0.4650 -0.1406
14520TIP3   OH264974   4.355   5.222  11.106 -0.1400  0.3476  0.2841
14520TIP3    H164975   4.402   5.281  11.047  0.0705  0.6586  0.7567
14520TIP3    H264976   4.339   5.143  11.054  0.4168  0.4548 -0.0521
14521TIP3   OH264977   0.094   4.510  16.145 -0.2412 -0.2099 -0.5901
14521TIP3    H164978   0.171   4.541  16.099 -0.3972 -0.2652 -0.8948
14521TIP3    H264979   0.127   4.444  16.206 -0.1822 -1.0594 -1.5166
14522TIP3   OH264980   1.380   1.743  12.743  0.1356  0.5423 -0.1058
14522TIP3    H164981   1.399   1.837  12.742 -1.9953  1.0849 -2.5630
14522TIP3    H264982   1.291   1.737  12.778  0.4070 -0.6058  0.4218
14523TIP3   OH264983   1.024   0.002  16.006  0.4420 -0.8377 -0.5473
14523TIP3    H164984   1.115  -0.007  16.034  0.0358  0.3415  1.3182
14523TIP3    H264985   1.022   0.083  15.954  0.4674 -0.9242 -0.6855
14524TIP3   OH264986   2.187   5.106  12.130 -0.1571 -0.3784 -0.7108
14524TIP3    H164987   2.104   5.151  12.119  0.7620  1.4455 -0.5597
14524TIP3    H264988   2.237   5.161  12.190  1.3777 -1.1156 -1.2464
14525TIP3   OH264989   0.433   0.008   2.966 -0.1495 -0.3608  0.2066
14525TIP3    H164990   0.349   0.032   3.005  0.9716 -0.3084  2.7606
14525TIP3    H264991   0.464  -0.066   3.018  0.0479 -2.4976 -2.6435
14526TIP3   OH264992   1.618   4.941  17.092 -0.7952 -0.2228 -0.0154
14526TIP3    H164993   1.660   4.929  17.177 -0.2246 -0.2591 -0.3047
14526TIP3    H264994   1.647   5.027  17.063  0.8615 -1.1476 -1.2247
14527TIP3   OH264995   3.260   1.923   4.367  0.0026 -0.1205 -0.1143
14527TIP3    H164996   3.172   1.958   4.356  0.0197 -0.1940 -0.4978
14527TIP3    H264997   3.292   1.910   4.277  1.0850  1.6355 -0.0513
14528TIP3   OH264998   0.011   2.813  11.381 -0.2202  0.3700 -0.1672
14528TIP3    H164999   0.081   2.876  11.395  0.0798 -0.4033  2.3014
14528TIP3    H265000   0.052   2.728  11.395 -1.5225 -0.1282  0.7974
14529TIP3   OH265001   5.658   1.159  14.517  0.0921  0.2532  0.2355
14529TIP3    H165002   5.569   1.150  14.482  0.2335 -0.0961 -0.0497
14529TIP3    H265003   5.662   1.096  14.588 -0.3883  1.3882  1.3036
14530TIP3   OH265004   0.763   5.142   0.524  0.5543  0.0966 -0.0445
14530TIP3    H165005   0.750   5.048   0.537  1.6669  0.1298  1.7575
14530TIP3    H265006   0.700   5.183   0.583  0.1520  0.5039 -0.7407
14531TIP3   OH265007   0.825   1.826  17.269  0.2071  0.3747  0.2412
14531TIP3    H165008   0.734   1.852  17.262  0.7795  2.0406 -2.4689
14531TIP3    H265009   0.846   1.787  17.184  2.0709  0.2202  0.7186
14532TIP3   OH265010   0.740   4.515  15.321 -0.3778  0.0350 -0.7348
14532TIP3    H165011   0.731   4.568  15.242 -0.1606 -0.2322 -0.9421
14532TIP3    H265012   0.656   4.469  15.329  0.1148 -1.0835 -1.6596
14533TIP3   OH265013   3.224   2.298   2.294  0.3646  0.2517 -0.2650
14533TIP3    H165014   3.195   2.249   2.371  0.4228  0.3161 -0.2018
14533TIP3    H265015   3.199   2.389   2.312 -0.2244  0.1612 -0.6185
14534TIP3   OH265016   6.205   1.913   0.308  0.2567 -0.1397  0.1739
14534TIP3    H165017   6.137   1.846   0.308 -0.8620  0.9413  0.4555
14534TIP3    H265018   6.219   1.935   0.216 -0.0467 -0.1126  0.1344
14535TIP3   OH265019   2.583   4.436   3.567  0.2880  0.0788  0.1024
14535TIP3    H165020   2.501   4.394   3.540  1.4328 -0.6992 -2.4796
14535TIP3    H265021   2.562   4.529   3.573 -1.3072 -0.3243  1.8936
14536TIP3   OH265022   1.836   2.900  14.145 -0.2232  0.4798 -0.2029
14536TIP3    H165023   1.758   2.870  14.097  0.3953 -0.9450 -0.3682
14536TIP3    H265024   1.850   2.989  14.113  0.0121 -0.3192 -2.5308
14537TIP3   OH265025   3.611   5.144  14.423  0.0731  0.2510  0.2607
14537TIP3    H165026   3.622   5.208  14.493  1.1048 -0.1232  0.4456
14537TIP3    H265027   3.660   5.180  14.349 -0.5419  0.3648 -0.1078
14538TIP3   OH265028   3.624   0.549  14.706  0.3217 -0.1884 -0.1446
14538TIP3    H165029   3.589   0.463  14.682  0.2740 -0.1004 -0.3915
14538TIP3    H265030   3.678   0.532  14.783  1.1585 -0.6112 -0.8127
14539TIP3   OH265031   5.661   1.166   2.602 -0.0615 -0.5368  0.3699
14539TIP3    H165032   5.747   1.125   2.614 -0.2144 -1.0432 -0.2161
14539TIP3    H265033   5.662   1.240   2.662  1.3249  0.3021 -0.6083
14540TIP3   OH265034   1.112   4.061   5.165 -0.0902  0.2029 -0.5262
14540TIP3    H165035   1.067   3.977   5.174 -0.9544  0.8168  1.4644
14540TIP3    H265036   1.044   4.127   5.178  1.1110  1.1703  1.3843
14541TIP3   OH265037   3.812   2.436  16.451 -0.5650  0.1905 -0.2552
14541TIP3    H165038   3.871   2.414  16.523 -1.1149  1.7648  0.7226
14541TIP3    H265039   3.848   2.388  16.376  0.5760 -0.7323  0.8330
14542TIP3   OH265040   0.374   0.523   2.338  0.2030 -0.9380  0.2107
14542TIP3    H165041   0.457   0.487   2.370  0.6664 -1.3493 -1.3571
14542TIP3    H265042   0.399   0.583   2.268 -0.8166 -1.0602 -0.2776
14543TIP3   OH265043   0.007   3.987  13.021  0.2174  0.0760  0.5068
14543TIP3    H165044  -0.052   4.046  13.068 -1.7512 -1.5842  0.2626
14543TIP3    H265045  -0.051   3.923  12.979  2.1645 -1.1471 -0.4798
14544TIP3   OH265046   6.229   1.729   5.367 -0.0876  0.6601  0.3581
14544TIP3    H165047   6.312   1.694   5.400  1.3889  1.5472 -2.1724
14544TIP3    H265048   6.208   1.673   5.293 -0.8959  1.4372 -0.0067
14545TIP3   OH265049   6.221   0.927  10.516  0.4411  0.1650  0.3304
14545TIP3    H165050   6.234   0.953  10.425  0.0569 -1.4376 -0.2134
14545TIP3    H265051   6.190   0.836  10.511 -2.5945  1.0021  1.8978
14546TIP3   OH265052   2.993   4.230   4.450 -0.5788 -0.0178  0.1570
14546TIP3    H165053   3.011   4.179   4.530  1.8313  0.6025  0.0876
14546TIP3    H265054   2.965   4.315   4.483 -0.6555 -0.1038  0.3210
14547TIP3   OH265055   0.324   0.514   5.166 -1.0623  0.2154 -0.5193
14547TIP3    H165056   0.256   0.472   5.218  0.4296 -1.1871  0.3838
14547TIP3    H265057   0.281   0.537   5.084 -2.9751  0.7251  0.5820
14548TIP3   OH265058   1.398   4.151   2.347 -0.4362 -0.4725 -0.1054
14548TIP3    H165059   1.489   4.180   2.357 -0.4712 -0.7742  1.1895
14548TIP3    H265060   1.389   4.076   2.405 -1.9199  0.4953  0.9986
14549TIP3   OH265061   1.019   1.006  15.321  0.3194  0.2685 -0.0602
14549TIP3    H165062   0.936   0.962  15.307 -0.0420  1.2731 -1.1975
14549TIP3    H265063   1.030   1.063  15.245  0.5535  2.4760  1.5184
14550TIP3   OH265064   1.358   1.716   0.001  0.1335  0.5667  0.5473
14550TIP3    H165065   1.423   1.697  -0.067  0.4045  1.0312  0.6756
14550TIP3    H265066   1.307   1.635   0.008 -0.2653  0.6981 -0.6050
14551TIP3   OH265067   4.184   0.233  15.090 -0.1912  0.1302  0.1963
14551TIP3    H165068   4.161   0.326  15.086 -1.3783  0.0104  2.4033
14551TIP3    H265069   4.157   0.197  15.006 -1.5667  1.4135  0.0545
14552TIP3   OH265070   2.689   1.862   0.825 -0.7495 -0.2172  0.5145
14552TIP3    H165071   2.779   1.836   0.804 -0.2569  1.2088  0.7047
14552TIP3    H265072   2.699   1.941   0.879 -2.1096  1.4845 -1.5365
14553TIP3   OH265073   1.687   5.552   4.485  0.4980  0.0909 -0.3011
14553TIP3    H165074   1.656   5.642   4.489  0.9882  0.2313  0.5329
14553TIP3    H265075   1.687   5.531   4.392  1.0202  1.1807 -0.5634
14554TIP3   OH265076   0.786   0.288  16.179 -1.1838 -0.1597  0.0567
14554TIP3    H165077   0.710   0.345  16.171  0.9830  2.8693 -1.0592
14554TIP3    H265078   0.826   0.288  16.092  1.2555  0.2103  1.0675
14555TIP3   OH265079   4.865   1.486  10.560  0.2858 -0.1810  0.1983
14555TIP3    H165080   4.960   1.500  10.558  0.2261  0.8684  2.1304
14555TIP3    H265081   4.828   1.572  10.543 -0.4214 -0.8976 -2.3592
14556TIP3   OH265082   1.433   4.658   1.908  0.3890  0.2491  0.3098
14556TIP3    H165083   1.397   4.658   1.819 -2.0449  0.1893  1.2245
14556TIP3    H265084   1.525   4.682   1.897  0.5954 -1.4485 -2.3707
14557TIP3   OH265085   3.659   3.200  10.772 -0.0184  0.6156 -0.2968
14557TIP3    H165086   3.565   3.218  10.783 -0.6002 -2.8808  1.6993
14557TIP3    H265087   3.702   3.273  10.817 -1.7406  2.0046 -0.7601
14558TIP3   OH265088   3.992   0.251   0.151  0.0344 -0.5708 -0.8129
14558TIP3    H165089   3.953   0.320   0.205  0.7059  0.4056 -1.5411
14558TIP3    H265090   4.017   0.183   0.214 -0.0369  0.1393  0.0074
14559TIP3   OH265091   1.443   2.030  11.948  0.6827 -0.4318  0.1779
14559TIP3    H165092   1.450   2.124  11.963  1.6561 -0.6524  1.2964
14559TIP3    H265093   1.448   2.020  11.853 -1.8643  0.7873 -0.1473
14560TIP3   OH265094   3.731   2.477  15.500  0.0993 -0.0415  0.2167
14560TIP3    H165095   3.799   2.448  15.560  1.0066 -0.3756 -0.9303
14560TIP3    H265096   3.771   2.471  15.413 -0.8149  1.4009 -0.3552
14561TIP3   OH265097   2.798   0.547  15.579 -0.0255 -0.2579  0.3038
14561TIP3    H165098   2.818   0.547  15.485 -1.6214  0.7308 -0.0675
14561TIP3    H265099   2.720   0.492  15.587 -0.0306 -0.1585  1.0320
14562TIP3   OH265100   2.910   4.389   2.437  0.3651  0.4990  0.0323
14562TIP3    H165101   2.903   4.294   2.424  0.1482  0.6595 -1.2016
14562TIP3    H265102   3.004   4.407   2.439  0.4224  0.1313  1.4445
14563TIP3   OH265103   3.442   2.813   1.398 -0.2182  0.3128  0.0983
14563TIP3    H165104   3.485   2.828   1.314  3.1848  1.0817  1.8307
14563TIP3    H265105   3.411   2.900   1.425 -0.4120  0.2434  0.1022
14564TIP3   OH265106   0.786   1.069   3.265 -0.1950  0.3425 -0.3524
14564TIP3    H165107   0.846   0.995   3.269 -0.3004  0.2515  3.9985
14564TIP3    H265108   0.700   1.030   3.251  0.1664  0.1021 -2.1654
14565TIP3   OH265109   5.874   0.444  15.403 -0.0963 -0.0900  0.0204
14565TIP3    H165110   5.856   0.409  15.490 -0.7807  0.7148  0.2202
14565TIP3    H265111   5.968   0.460  15.403 -0.2936  1.4057  1.2261
14566TIP3   OH265112   0.090   0.777   1.895 -0.1781 -0.0952  0.1526
14566TIP3    H165113   0.076   0.745   1.984 -1.1686  0.4466  0.2084
14566TIP3    H265114   0.171   0.829   1.901  2.8096 -4.1853 -0.4104
14567TIP3   OH265115   2.317   2.242  14.189  0.1108 -0.6591  0.5311
14567TIP3    H165116   2.321   2.336  14.169 -1.8673  0.0664  2.9497
14567TIP3    H265117   2.352   2.199  14.111  1.2743  2.0822 -0.5783
14568TIP3   OH265118   0.835   2.908  16.955 -0.4391 -0.4710 -0.3743
14568TIP3    H165119   0.899   2.840  16.974 -0.3060 -0.2032  0.1647
14568TIP3    H265120   0.785   2.874  16.881 -0.7826 -1.4302  0.2725
14569TIP3   OH265121   3.938   1.373   2.145 -0.3330 -0.7876  0.4787
14569TIP3    H165122   3.921   1.459   2.107 -0.1815  0.3718  2.8617
14569TIP3    H265123   4.031   1.356   2.126 -0.4396 -0.5749 -0.2552
14570TIP3   OH265124   5.474   2.428   4.903 -0.0168 -0.0850  0.1411
14570TIP3    H165125   5.482   2.435   4.998 -2.1298  1.1195  0.2839
14570TIP3    H265126   5.428   2.345   4.889  1.9195 -1.2099 -0.0119
14571TIP3   OH265127   1.809   4.622  13.741  0.6523  0.0865 -0.3793
14571TIP3    H165128   1.789   4.669  13.822  1.9781  0.2356 -0.1018
14571TIP3    H265129   1.890   4.574  13.761 -0.5948 -2.3153 -0.6697
14572TIP3   OH265130   2.198   3.279  12.640 -0.0943  0.1623  0.8048
14572TIP3    H165131   2.232   3.237  12.561 -0.0338  0.4847  0.6554
14572TIP3    H265132   2.253   3.357  12.651 -0.2363  0.2297  1.0471
14573TIP3   OH265133   2.691   2.525  15.864 -0.3084  0.5056 -0.2775
14573TIP3    H165134   2.684   2.469  15.941 -1.2261 -0.9809 -1.3896
14573TIP3    H265135   2.601   2.549  15.843  0.0117  1.7439 -0.3188
14574TIP3   OH265136   4.519   0.413  16.733 -0.2459  0.1717  0.6231
14574TIP3    H165137   4.546   0.404  16.642 -1.0357 -0.6380  0.4630
14574TIP3    H265138   4.574   0.351  16.781 -0.8134 -0.4445  0.4919
14575TIP3   OH265139   6.497   6.476   0.935 -0.4457 -0.3943 -0.1602
14575TIP3    H165140   6.533   6.543   0.878 -3.2232  0.5824 -0.9303
14575TIP3    H265141   6.477   6.403   0.876  0.5860 -1.1038  0.3296
14576TIP3   OH265142   5.954   3.038  14.214  0.0957 -0.4367 -0.5819
14576TIP3    H165143   6.030   3.017  14.269 -0.9783 -0.6157  0.8934
14576TIP3    H265144   5.937   3.131  14.233 -1.5498 -1.0213  1.0725
14577TIP3   OH265145   1.488   4.994   5.104 -0.0005  0.4505  0.4136
14577TIP3    H165146   1.406   5.043   5.096 -0.1851  1.0643  4.1402
14577TIP3    H265147   1.460   4.903   5.118 -0.0037  0.4739  0.5636
14578TIP3   OH265148   0.553   4.958   5.939 -0.0850 -0.2780 -0.1568
14578TIP3    H165149   0.535   5.040   5.986 -0.4962 -0.4552  0.0049
14578TIP3    H265150   0.473   4.906   5.950 -0.1232 -0.3921 -0.9178
14579TIP3   OH265151   4.612   6.173   1.968 -0.3494 -0.3751 -0.0619
14579TIP3    H165152   4.608   6.207   2.057  1.6558  1.8971 -0.7400
14579TIP3    H265153   4.705   6.151   1.955 -0.5077 -0.2194 -1.7049
14580TIP3   OH265154   6.371   6.045  13.354 -0.2529 -0.0570  0.1171
14580TIP3    H165155   6.375   6.047  13.258  0.6321  0.5683  0.1566
14580TIP3    H265156   6.354   5.953  13.375  3.5811 -1.0942 -0.5543
14581TIP3   OH265157   1.216   5.914  12.270 -0.7987 -0.0540  0.0084
14581TIP3    H165158   1.197   5.826  12.302  0.3116 -0.7617 -1.1770
14581TIP3    H265159   1.210   5.970  12.348  1.4976 -1.6347  1.4458
14582TIP3   OH265160   4.921   0.864  15.412  0.1186 -0.1660  0.4046
14582TIP3    H165161   5.010   0.867  15.377  0.0098 -0.1060  0.1267
14582TIP3    H265162   4.886   0.952  15.397 -0.5037 -0.5964 -0.8854
14583TIP3   OH265163   0.407   1.644  16.999 -0.0609  0.0183 -0.3644
14583TIP3    H165164   0.341   1.575  17.010  1.0682 -0.8343  1.5059
14583TIP3    H265165   0.491   1.599  17.008  0.7403  1.4328 -0.4477
14584TIP3   OH265166   1.507   3.790   4.324  0.3836 -0.0112  0.0955
14584TIP3    H165167   1.437   3.758   4.381  1.0619  0.1204  1.0291
14584TIP3    H265168   1.498   3.738   4.244 -0.7009 -0.0733  0.2352
14585TIP3   OH265169   6.130   0.871   1.627 -0.3701  0.1861 -0.1986
14585TIP3    H165170   6.163   0.960   1.611  0.7114 -0.3383 -1.0312
14585TIP3    H265171   6.173   0.844   1.708  0.5761 -0.1461 -0.7882
14586TIP3   OH265172   1.868   6.149   4.199 -0.7136  0.1563 -0.3519
14586TIP3    H165173   1.863   6.228   4.145 -2.5584  0.8711  0.7700
14586TIP3    H265174   1.904   6.180   4.282 -0.6708 -0.3582 -0.1768
14587TIP3   OH265175   6.487   4.474   4.905  0.5950  0.6379 -0.6015
14587TIP3    H165176   6.517   4.478   4.815  0.9885  2.6149 -0.4320
14587TIP3    H265177   6.415   4.538   4.910  0.0416 -0.0185  0.3043
14588TIP3   OH265178   0.243   2.206   5.539 -0.0578  0.6405 -0.1209
14588TIP3    H165179   0.155   2.217   5.576  0.1829  0.8522  0.3915
14588TIP3    H265180   0.302   2.212   5.614  0.3822  0.2665 -0.4324
14589TIP3   OH265181   5.976   2.246   1.038 -0.5354  0.1522 -0.6306
14589TIP3    H165182   5.958   2.328   1.082 -0.9929  0.0487 -0.6151
14589TIP3    H265183   5.893   2.224   0.994 -0.4516 -0.3483 -0.5467
14590TIP3   OH265184   3.462   5.967  15.891 -0.2619  0.3141  0.5974
14590TIP3    H165185   3.515   5.956  15.812 -2.9984  0.2345 -1.4114
14590TIP3    H265186   3.470   6.059  15.914  0.1827  0.4507 -0.0934
14591TIP3   OH265187   0.965   4.878  12.381 -0.5470 -0.2349 -0.5415
14591TIP3    H165188   0.913   4.848  12.306 -0.6451 -1.6537  0.0572
14591TIP3    H265189   0.976   4.800  12.435  0.8166  0.4142  0.1725
14592TIP3   OH265190   2.135   5.625   0.528  0.2801  0.5337 -0.5365
14592TIP3    H165191   2.178   5.705   0.559 -0.2676  1.9729 -3.1601
14592TIP3    H265192   2.177   5.555   0.577  1.7699  2.3109  0.8844
14593TIP3   OH265193   1.193   4.750  17.084 -0.2993  0.0099 -0.3367
14593TIP3    H165194   1.222   4.685  17.020 -2.0697  0.3116 -1.5305
14593TIP3    H265195   1.271   4.801  17.104  0.1911  0.3480 -2.8234
14594TIP3   OH265196   1.933   6.468  11.692  0.1150  0.0540  0.1882
14594TIP3    H165197   1.861   6.450  11.632  1.4196 -2.1215 -0.8669
14594TIP3    H265198   1.929   6.396  11.756  1.2732 -0.0547  0.1608
14595TIP3   OH265199   0.145   0.597  13.666 -0.4881  0.5348 -0.1637
14595TIP3    H165200   0.092   0.548  13.729  0.2349 -2.3806 -1.6442
14595TIP3    H265201   0.177   0.673  13.715 -2.8408  0.3587  1.8690
14596TIP3   OH265202   1.453   6.572   6.373  0.4368 -0.3757 -0.0638
14596TIP3    H165203   1.504   6.529   6.441  0.7984 -0.2586 -0.2537
14596TIP3    H265204   1.437   6.660   6.406  2.1212  0.2704 -0.8455
14597TIP3   OH265205   4.902   4.851  11.021  0.3551  0.3126  0.2456
14597TIP3    H165206   4.947   4.871  10.939  0.2994  0.2837  0.2078
14597TIP3    H265207   4.938   4.767  11.049 -0.2903 -0.1281 -0.2309
14598TIP3   OH265208   2.686   4.725   6.136 -0.2182 -0.3070 -0.0322
14598TIP3    H165209   2.744   4.658   6.098  0.0275 -1.1467  1.7167
14598TIP3    H265210   2.598   4.697   6.110 -0.0514 -0.8336 -0.0531
14599TIP3   OH265211   5.428   1.412  12.897  0.1014 -0.2434  0.3519
14599TIP3    H165212   5.398   1.419  12.988  0.4335 -0.5044  0.4833
14599TIP3    H265213   5.398   1.326  12.869  0.2070 -0.2603  0.2913
14600TIP3   OH265214   6.016   6.760   6.133  0.3270  0.2857  0.0333
14600TIP3    H165215   6.100   6.717   6.117 -1.0127 -3.0046  1.0149
14600TIP3    H265216   6.026   6.799   6.220  1.1734  0.9239 -0.3367
14601TIP3   OH265217   2.288   0.225  11.589  0.3710  0.0612  0.3247
14601TIP3    H165218   2.383   0.217  11.588  0.3262 -1.0051 -1.8477
14601TIP3    H265219   2.267   0.275  11.510 -0.8931 -0.0300  0.5773
14602TIP3   OH265220   6.540   0.186   2.895  0.1593 -0.3893  0.2725
14602TIP3    H165221   6.551   0.176   2.989  0.2283 -1.1615  0.1882
14602TIP3    H265222   6.487   0.110   2.868 -0.0952 -0.0316 -0.2649
14603TIP3   OH265223   1.705   4.132  13.966  0.4183  0.0484  0.0390
14603TIP3    H165224   1.716   4.226  13.954  0.5915 -0.1587 -1.7749
14603TIP3    H265225   1.675   4.100  13.881 -0.4656 -1.4358  0.8502
14604TIP3   OH265226   4.678   1.323   4.466  0.8114  0.0079 -0.5253
14604TIP3    H165227   4.736   1.345   4.539 -0.3836  2.6628 -0.2765
14604TIP3    H265228   4.680   1.400   4.409  0.0019 -1.1408 -2.1957
14605TIP3   OH265229   6.571   3.938  13.295 -0.5926  0.9344  0.2921
14605TIP3    H165230   6.532   4.024  13.313 -1.2973  0.1616  2.7976
14605TIP3    H265231   6.665   3.956  13.288 -0.6838  1.8724  1.2145
14606TIP3   OH265232   2.025   5.724   4.947  0.1037 -0.0786  0.0474
14606TIP3    H165233   1.978   5.737   5.029  1.1277  0.6124  0.5539
14606TIP3    H265234   2.112   5.693   4.975  0.0364 -1.1080 -0.8431
14607TIP3   OH265235   3.751   1.784  11.309  0.2609 -0.2154 -0.7939
14607TIP3    H165236   3.803   1.766  11.230 -0.2944  2.2079 -1.7884
14607TIP3    H265237   3.804   1.847  11.358  0.1944 -1.0408  0.3724
14608TIP3   OH265238   2.717   3.004  11.461  0.5724  0.5145 -0.2144
14608TIP3    H165239   2.750   2.968  11.379  0.8891  0.2558  0.0213
14608TIP3    H265240   2.734   3.098  11.455 -1.3235  0.8286 -1.3341
14609TIP3   OH265241   0.120   3.023  16.427 -0.4408 -0.1776  0.3194
14609TIP3    H165242   0.207   3.044  16.395 -0.4247  1.5482  1.3811
14609TIP3    H265243   0.066   3.019  16.348  0.1683  0.9701 -0.1792
14610TIP3   OH265244   6.306   2.443  12.908 -0.2314 -0.7923 -0.0667
14610TIP3    H165245   6.343   2.485  12.985  0.5896  0.6899 -1.2085
14610TIP3    H265246   6.241   2.504  12.875  0.5154 -0.6553 -1.3913
14611TIP3   OH265247   3.578   1.774  14.321  1.0660 -0.0310  0.2294
14611TIP3    H165248   3.507   1.766  14.385  0.7220  1.8570  0.1529
14611TIP3    H265249   3.658   1.767  14.373  1.1472 -5.3371 -0.0038
14612TIP3   OH265250   3.276   0.605  17.211 -0.3753 -0.0406 -0.6052
14612TIP3    H165251   3.300   0.642  17.295 -0.7861  0.7586 -0.8336
14612TIP3    H265252   3.354   0.613  17.156  0.0558 -1.0212 -0.1654
14613TIP3   OH265253   4.356   2.906  15.230  0.5732 -0.0002 -0.3188
14613TIP3    H165254   4.356   2.822  15.184 -0.1268 -0.0324 -0.2677
14613TIP3    H265255   4.412   2.963  15.176 -0.4504  0.0454 -1.3601
14614TIP3   OH265256   4.733   5.577   3.046 -0.1263 -0.2528 -0.2406
14614TIP3    H165257   4.759   5.668   3.041 -2.7428  0.5259 -2.2764
14614TIP3    H265258   4.658   5.576   3.106  0.0211 -1.1040 -0.0485
14615TIP3   OH265259   6.295   2.679  16.260  0.0197 -0.0691  0.0549
14615TIP3    H165260   6.389   2.662  16.253 -0.0344 -0.5736  0.5145
14615TIP3    H265261   6.258   2.635  16.184  0.1355  0.0024 -0.0447
14616TIP3   OH265262   0.366   4.428  16.268  0.0613 -0.1409 -0.4698
14616TIP3    H165263   0.418   4.424  16.348 -1.5545  1.0680  0.7095
14616TIP3    H265264   0.426   4.402  16.199  1.7773 -0.2999  1.0156
14617TIP3   OH265265   6.585   4.715  13.199 -0.4479 -0.8777  0.0371
14617TIP3    H165266   6.667   4.688  13.157 -0.3439 -1.4400  0.5935
14617TIP3    H265267   6.604   4.714  13.293 -1.0590 -0.9091  0.1659
14618TIP3   OH265268   2.817   4.321  15.255 -0.2002  0.1850  0.3003
14618TIP3    H165269   2.888   4.269  15.293 -1.2301 -0.9906  0.6877
14618TIP3    H265270   2.750   4.256  15.232 -0.8704  1.1933 -0.6879
14619TIP3   OH265271   5.115   6.417  15.744  0.2133 -0.6379 -0.3416
14619TIP3    H165272   5.110   6.385  15.834  2.8779 -1.8042 -0.5170
14619TIP3    H265273   5.045   6.370  15.698  0.7663 -2.3911  0.5183
14620TIP3   OH265274   3.855   4.518  16.121  0.2540 -0.2998  0.6018
14620TIP3    H165275   3.938   4.558  16.145  0.4848 -0.1930 -0.3467
14620TIP3    H265276   3.828   4.564  16.042  0.7210 -2.2429 -0.7537
14621TIP3   OH265277   0.605   0.258   4.816  0.1960  0.3314  0.4052
14621TIP3    H165278   0.681   0.257   4.758 -1.1412  0.9010 -1.4113
14621TIP3    H265279   0.582   0.350   4.824  0.4661  0.2889  2.0437
14622TIP3   OH265280   5.642   5.445  16.706 -0.1137 -0.2148 -0.9091
14622TIP3    H165281   5.623   5.352  16.693  1.3834 -0.8358  0.8217
14622TIP3    H265282   5.598   5.467  16.788  0.7424  0.1988 -0.5511
14623TIP3   OH265283   0.591   5.343  14.299  0.0071 -0.1736 -0.0640
14623TIP3    H165284   0.673   5.324  14.345  0.6644  2.3425 -0.0399
14623TIP3    H265285   0.615   5.344  14.207  0.6498  2.8892  0.0448
14624TIP3   OH265286   5.167   0.748  11.660  0.2598 -0.5035  0.8365
14624TIP3    H165287   5.117   0.744  11.742 -0.0873  0.0277  0.6563
14624TIP3    H265288   5.167   0.841  11.637 -3.0901 -1.0133 -1.9016
14625TIP3   OH265289   6.045   5.178  15.360  0.8171  0.7208 -0.5135
14625TIP3    H165290   6.088   5.245  15.414 -0.9696  0.2346  1.6890
14625TIP3    H265291   6.076   5.095  15.397  0.7872  0.3532 -1.3125
14626TIP3   OH265292   0.921   1.721  17.024 -0.3455  0.5073 -0.3581
14626TIP3    H165293   0.969   1.640  17.005  0.6881  1.3242 -1.3598
14626TIP3    H265294   0.957   1.785  16.963 -0.9538  1.8074  0.6080
14627TIP3   OH265295   2.937   2.356  11.802 -0.6108 -0.2752  0.3533
14627TIP3    H165296   2.864   2.417  11.790 -1.1876 -1.2324 -1.4135
14627TIP3    H265297   2.947   2.313  11.717  1.2614 -1.0250  0.8840
14628TIP3   OH265298   3.965   4.035  13.710  0.2882 -0.1401 -0.1455
14628TIP3    H165299   3.933   3.950  13.742  2.6108 -0.1443  2.5908
14628TIP3    H265300   4.042   4.013  13.658  0.1497  0.2407 -0.5171
14629TIP3   OH265301   1.542   0.197  12.580  0.2364 -0.6110 -0.4835
14629TIP3    H165302   1.493   0.183  12.661  2.0848  0.4000  0.8791
14629TIP3    H265303   1.582   0.113  12.560  0.0718 -0.7719 -0.1361
14630TIP3   OH265304   2.816   5.994   0.786  0.1385 -0.2968  0.5980
14630TIP3    H165305   2.729   5.968   0.756  0.1828  0.9218 -0.7002
14630TIP3    H265306   2.802   6.033   0.872 -0.6527  0.2254  0.2341
14631TIP3   OH265307   4.529   3.540   0.577 -0.0405 -0.1736  0.3807
14631TIP3    H165308   4.509   3.567   0.667 -0.5740 -1.7869  0.7658
14631TIP3    H265309   4.581   3.461   0.586 -1.7922 -1.5340 -0.7096
14632TIP3   OH265310   3.472   6.587  11.377  0.2608 -0.3440 -0.1217
14632TIP3    H165311   3.430   6.558  11.459 -0.0182  2.7215  0.9715
14632TIP3    H265312   3.399   6.618  11.323  0.6907  0.4042 -0.2800
14633TIP3   OH265313   6.026   1.329  15.751  0.3735  0.2631  0.1921
14633TIP3    H165314   6.019   1.249  15.804 -0.5238  0.1489 -0.0740
14633TIP3    H265315   6.071   1.301  15.671  0.8245  0.2158  0.4578
14634TIP3   OH265316   5.473   3.876  11.322 -0.0248 -0.0620  0.4557
14634TIP3    H165317   5.485   3.786  11.294 -0.4570 -0.4189  1.3546
14634TIP3    H265318   5.556   3.919  11.303 -0.2118 -0.3275 -1.0956
14635TIP3   OH265319   2.686   1.296   2.726 -0.2996  0.3520  0.0010
14635TIP3    H165320   2.746   1.300   2.651  1.3928  0.0889  1.2800
14635TIP3    H265321   2.624   1.227   2.703  0.0342  0.4411 -1.2524
14636TIP3   OH265322   3.273   2.843   3.654  0.0821  0.4522  0.4423
14636TIP3    H165323   3.228   2.864   3.573  0.0313 -1.1901 -0.0014
14636TIP3    H265324   3.349   2.902   3.656  2.3316 -2.0002 -2.8470
14637TIP3   OH265325   0.885   6.602  11.682  0.2230 -0.6962 -0.0065
14637TIP3    H165326   0.913   6.528  11.628  1.2531 -1.5635  1.6596
14637TIP3    H265327   0.941   6.674  11.652  0.1372 -0.9172 -0.7251
14638TIP3   OH265328   5.520   0.003   4.015  0.2149 -0.3196  0.7354
14638TIP3    H165329   5.439   0.051   3.996  1.5212  1.5539 -0.4091
14638TIP3    H265330   5.557  -0.017   3.929  1.1956 -0.8018  1.2467
14639TIP3   OH265331   1.118   0.697  14.982  0.2542 -0.3743  0.4076
14639TIP3    H165332   1.134   0.732  15.070  0.2472  2.4274 -0.6175
14639TIP3    H265333   1.144   0.605  14.988  1.8572  0.1499  2.8946
14640TIP3   OH265334   1.852   4.104   4.284  0.0176  0.6646 -0.1878
14640TIP3    H165335   1.832   4.161   4.209 -0.0281  1.2850  0.2898
14640TIP3    H265336   1.878   4.164   4.354  0.3878  0.0675  0.1941
14641TIP3   OH265337   3.196   6.665  11.559  0.5105 -0.2407  0.2068
14641TIP3    H165338   3.101   6.676  11.547  0.4740 -0.3352  0.4221
14641TIP3    H265339   3.208   6.571  11.575  0.4994 -0.0375  1.5119
14642TIP3   OH265340   2.057   2.181  14.249 -0.7567  0.6290 -0.1747
14642TIP3    H165341   2.152   2.193  14.251 -0.2705 -2.3663  1.8724
14642TIP3    H265342   2.024   2.243  14.315  0.1284 -0.0651  0.9713
14643TIP3   OH265343   0.731   4.313  11.017  0.3472  0.0746  0.3249
14643TIP3    H165344   0.768   4.299  10.930 -2.6346  0.4641 -1.1574
14643TIP3    H265345   0.734   4.407  11.031  1.7132 -0.0662  1.1304
14644TIP3   OH265346   4.004   1.907   1.775 -0.0797  0.5534  0.1060
14644TIP3    H165347   3.992   1.935   1.684 -0.9711  0.3522  0.1523
14644TIP3    H265348   3.917   1.879   1.803  0.5280 -1.0549  0.4666
14645TIP3   OH265349   3.740   1.183   5.230 -0.5679  1.2097  0.7929
14645TIP3    H165350   3.818   1.208   5.279 -1.4827  3.1566  1.3535
14645TIP3    H265351   3.761   1.204   5.139  0.9098 -1.8615  0.2693
14646TIP3   OH265352   3.922   2.558  11.456  0.3203 -0.0489  0.0753
14646TIP3    H165353   3.889   2.512  11.379 -1.6123  1.0371  0.1851
14646TIP3    H265354   3.974   2.630  11.420 -0.8048  0.6224 -0.2775
14647TIP3   OH265355   0.561   2.306  17.104  0.4434 -0.1227  0.1108
14647TIP3    H165356   0.505   2.229  17.091  0.7428 -0.3896  0.3778
14647TIP3    H265357   0.503   2.381  17.091 -0.1341 -0.3883  1.0520
14648TIP3   OH265358   5.039   5.892   4.644 -0.0664  0.1751 -0.0215
14648TIP3    H165359   5.052   5.976   4.599 -1.7015 -0.5294 -1.8982
14648TIP3    H265360   4.963   5.853   4.603  0.4555 -2.1365  1.0220
14649TIP3   OH265361   1.827   4.323   3.320 -0.2514 -0.4011 -0.7797
14649TIP3    H165362   1.785   4.239   3.336 -2.4725  0.2589 -2.6224
14649TIP3    H265363   1.791   4.353   3.236  1.9327  1.5119 -1.1611
14650TIP3   OH265364   0.052   6.742   4.844 -0.3948  0.0025 -0.0276
14650TIP3    H165365  -0.002   6.784   4.777 -0.6734 -0.9175 -0.4044
14650TIP3    H265366   0.142   6.764   4.821 -0.3738 -1.5744 -1.6534
14651TIP3   OH265367   5.837   1.316  13.784  0.4814 -0.6758  0.4645
14651TIP3    H165368   5.836   1.375  13.708  0.7506  0.5061  1.3453
14651TIP3    H265369   5.787   1.240  13.755 -0.1287  0.0972 -0.6330
14652TIP3   OH265370   6.261   5.472  12.315 -0.1789  0.0078  0.3775
14652TIP3    H165371   6.315   5.541  12.353  2.1855 -1.6844  0.2948
14652TIP3    H265372   6.172   5.491  12.346  0.5221  2.5540  1.0409
14653TIP3   OH265373   5.832   5.083   3.121  0.5454  0.1164 -0.1349
14653TIP3    H165374   5.866   5.035   3.046  1.2338 -0.1248  0.3147
14653TIP3    H265375   5.822   5.173   3.090  0.3504 -0.0821 -0.6512
14654TIP3   OH265376   0.753   1.912   2.962  0.6972 -0.0566 -0.2072
14654TIP3    H165377   0.699   1.925   3.040  1.2746  0.2325  0.1583
14654TIP3    H265378   0.701   1.946   2.890  0.5069  0.4825  0.1804
14655TIP3   OH265379   2.531   3.183  16.578 -0.2798  0.1614  0.3477
14655TIP3    H165380   2.474   3.214  16.648 -1.6091  0.9586 -1.0122
14655TIP3    H265381   2.525   3.088  16.583 -1.8992  0.2248  0.1557
14656TIP3   OH265382   6.112   1.748   6.013 -0.4107 -0.0119  0.1738
14656TIP3    H165383   6.171   1.693   6.065 -0.0533  0.5118  0.3247
14656TIP3    H265384   6.111   1.706   5.927 -3.3598 -2.6648  1.3069
14657TIP3   OH265385   4.219   2.421  16.612 -0.3170  0.1824 -0.0426
14657TIP3    H165386   4.153   2.365  16.652  1.2888 -0.1687  2.3051
14657TIP3    H265387   4.271   2.454  16.685 -0.1007  3.4010 -1.4876
14658TIP3   OH265388   6.608   3.555  15.368 -0.1426  0.5820 -0.1242
14658TIP3    H165389   6.532   3.603  15.399 -0.1972 -0.8643  2.1846
14658TIP3    H265390   6.682   3.611  15.389 -0.1971 -0.2560  2.6016
14659TIP3   OH265391   0.708   1.241  15.846  0.2810  0.4937 -0.2047
14659TIP3    H165392   0.774   1.297  15.886  1.5526 -0.1300 -1.3296
14659TIP3    H265393   0.753   1.199  15.773 -0.5427 -2.1553  0.6840
14660TIP3   OH265394   6.194   1.064  15.362 -0.1064  0.5980 -0.2642
14660TIP3    H165395   6.186   1.071  15.267  0.6668 -0.6716 -0.4574
14660TIP3    H265396   6.125   1.001  15.387  1.0474 -0.7389 -0.3034
14661TIP3   OH265397   6.485   6.559   4.435  0.4629 -0.0294 -0.3727
14661TIP3    H165398   6.474   6.564   4.340 -2.2230  0.6962 -0.1172
14661TIP3    H265399   6.527   6.475   4.451  0.0235 -0.6231 -2.1477
14662TIP3   OH265400   4.699   4.402  14.015  0.1807 -0.1941 -0.2501
14662TIP3    H165401   4.767   4.431  14.076  2.3760  0.3825 -2.7230
14662TIP3    H265402   4.736   4.323  13.975 -0.9988 -0.3626 -1.0499
14663TIP3   OH265403   1.288   5.060  13.026 -0.2054 -0.1716 -0.3060
14663TIP3    H165404   1.268   5.073  12.933 -1.6943  1.6976  0.2126
14663TIP3    H265405   1.250   4.974  13.047 -2.0397  0.4467 -0.9002
14664TIP3   OH265406   2.901   4.257   3.140 -0.2772  0.6767  0.0938
14664TIP3    H165407   2.941   4.201   3.207  0.0608  0.4613 -0.2814
14664TIP3    H265408   2.810   4.228   3.136  0.1223 -0.5519 -0.7932
14665TIP3   OH265409   1.091   1.254   1.874 -0.0396 -0.4188 -0.3414
14665TIP3    H165410   0.997   1.271   1.868 -0.0012 -0.6748 -2.2370
14665TIP3    H265411   1.097   1.162   1.902 -0.3479 -0.4965 -0.5344
14666TIP3   OH265412   1.007   4.455   0.666  0.5623 -0.0488 -0.3726
14666TIP3    H165413   1.089   4.415   0.635 -0.0626 -1.1324 -0.7006
14666TIP3    H265414   0.990   4.412   0.750 -0.0845 -0.4471 -0.6982
14667TIP3   OH265415   4.933   0.861  15.007 -0.5799 -0.5178 -0.2752
14667TIP3    H165416   4.977   0.860  15.092 -0.5634  0.7444 -0.2463
14667TIP3    H265417   4.904   0.952  14.996 -0.7928 -0.7163 -1.5124
14668TIP3   OH265418   0.805   0.872  13.469 -0.0107  0.1740  0.5555
14668TIP3    H165419   0.780   0.948  13.416  0.6980 -0.1941 -0.3431
14668TIP3    H265420   0.861   0.906  13.538 -0.0843  0.5247  0.4407
14669TIP3   OH265421   4.426   6.742   3.579  0.1187 -0.4301 -0.0952
14669TIP3    H165422   4.457   6.827   3.546  2.9107 -1.5269 -0.5090
14669TIP3    H265423   4.456   6.679   3.514  0.6154 -2.0234  1.6117
14670TIP3   OH265424   5.299   5.646   1.629 -0.7822  0.0432  0.0699
14670TIP3    H165425   5.233   5.714   1.618  1.5956  2.2845 -1.4269
14670TIP3    H265426   5.313   5.612   1.540 -0.4914 -0.9675  0.4913
14671TIP3   OH265427   6.713   1.930  14.222  0.3432  0.6549  0.1824
14671TIP3    H165428   6.667   1.875  14.286 -1.8249  0.4352 -1.4446
14671TIP3    H265429   6.647   1.993  14.192  1.5697  1.3963 -1.1038
14672TIP3   OH265430   6.696   6.336  12.576  0.5874 -0.0334  0.2578
14672TIP3    H165431   6.618   6.282  12.587 -0.8998  1.9227 -0.2928
14672TIP3    H265432   6.733   6.308  12.492 -0.1621 -0.2045 -0.0166
14673TIP3   OH265433   3.179   3.569  17.250  0.3675  0.2874  0.1397
14673TIP3    H165434   3.171   3.663  17.267  1.3830  0.4277 -0.1335
14673TIP3    H265435   3.088   3.539  17.245  0.0211  1.0961  1.0472
14674TIP3   OH265436   2.105   4.567  11.051 -0.0524 -0.5470 -0.1619
14674TIP3    H165437   2.173   4.567  10.983  1.0278 -1.2840  0.8761
14674TIP3    H265438   2.129   4.639  11.108 -1.4539  0.6310 -0.9842
14675TIP3   OH265439   1.435   2.504  13.998 -0.4131  0.1272  0.1783
14675TIP3    H165440   1.452   2.410  14.004  0.5215  0.2670 -0.1823
14675TIP3    H265441   1.355   2.517  14.048 -0.3948 -0.8193  0.4651
14676TIP3   OH265442   4.701   4.791   4.538  0.0152 -0.2704  0.2379
14676TIP3    H165443   4.769   4.780   4.603  2.0981  1.4140 -1.5070
14676TIP3    H265444   4.627   4.828   4.586  1.8725  2.0379  1.5043
14677TIP3   OH265445   4.349   5.778   4.921  0.6894  0.1085 -0.9191
14677TIP3    H165446   4.342   5.846   4.854 -0.0938 -1.0317 -2.0373
14677TIP3    H265447   4.409   5.714   4.884  2.4159  0.7225  0.6473
14678TIP3   OH265448   2.653   2.751   5.467  0.2866  0.9154 -0.1797
14678TIP3    H165449   2.595   2.767   5.541  1.1039  1.6875  0.3149
14678TIP3    H265450   2.609   2.792   5.393  0.2891  1.6872  0.2318
14679TIP3   OH265451   4.426   2.942   3.448 -0.2570 -0.5116  0.3484
14679TIP3    H165452   4.435   2.890   3.368  0.7240  0.2620 -0.0666
14679TIP3    H265453   4.382   2.884   3.510 -0.4086 -1.3596 -0.5377
14680TIP3   OH265454   1.621   4.655  11.206  0.0048 -0.6519 -0.2242
14680TIP3    H165455   1.612   4.609  11.122 -0.3239 -1.3814  0.1936
14680TIP3    H265456   1.708   4.694  11.203 -0.3372  0.0910 -1.2637
14681TIP3   OH265457   3.082   0.437  17.111  0.5569 -0.1678  0.2610
14681TIP3    H165458   3.169   0.464  17.140  0.1277 -0.6865  2.2274
14681TIP3    H265459   3.055   0.505  17.050  2.1817  0.2052 -0.0900
14682TIP3   OH265460   3.372   3.728   1.032  0.5216  0.3545 -0.0028
14682TIP3    H165461   3.305   3.786   0.997 -0.8899 -0.7180  0.8246
14682TIP3    H265462   3.454   3.776   1.021 -0.6411  2.7735  1.2254
14683TIP3   OH265463   2.165   1.358   3.923  0.1501 -0.3935 -0.6076
14683TIP3    H165464   2.139   1.325   3.837 -2.6380  1.0101 -0.4014
14683TIP3    H265465   2.173   1.453   3.912 -0.7504 -0.1211  0.7431
14684TIP3   OH265466   5.373   1.928   6.202 -0.6490  0.2326  0.1755
14684TIP3    H165467   5.399   2.016   6.175  1.4630  0.2298  1.8830
14684TIP3    H265468   5.296   1.941   6.257 -0.7428  0.9367 -0.1178
14685TIP3   OH265469   2.282   1.737   5.230 -0.0396 -0.4739 -0.3014
14685TIP3    H165470   2.231   1.714   5.308 -0.2374 -1.8412 -0.8029
14685TIP3    H265471   2.221   1.723   5.157 -0.0142  1.2545 -0.7005
14686TIP3   OH265472   3.332   2.253  17.135 -0.0798 -0.5599 -0.0518
14686TIP3    H165473   3.357   2.228  17.224 -0.0995  0.2092  0.1790
14686TIP3    H265474   3.249   2.208  17.120  0.2578 -1.2363  0.0607
14687TIP3   OH265475   1.372   4.356  12.433 -0.8138 -0.3586  0.2326
14687TIP3    H165476   1.307   4.304  12.386 -1.0803  0.9339 -0.8801
14687TIP3    H265477   1.456   4.326  12.397 -0.8474 -1.2191  0.8456
14688TIP3   OH265478   2.959   0.121   4.196 -0.2676 -0.8026  0.4426
14688TIP3    H165479   3.042   0.078   4.177  0.2099  0.1278  0.3794
14688TIP3    H265480   2.981   0.190   4.258 -0.9167 -0.2841  0.1100
14689TIP3   OH265481   4.843   5.603  15.383 -0.4852 -0.3931  0.1013
14689TIP3    H165482   4.752   5.619  15.361 -0.7449  0.7100  1.7741
14689TIP3    H265483   4.880   5.690  15.399 -0.1224 -0.9639  2.8950
14690TIP3   OH265484   1.061   2.269   5.983  0.7176  0.1675 -0.0131
14690TIP3    H165485   1.132   2.278   5.920  1.2090 -0.5685  0.4158
14690TIP3    H265486   0.999   2.338   5.961 -0.3099 -1.5023 -2.8734
14691TIP3   OH265487   6.758   6.460   4.562 -0.5040 -0.2148 -0.5968
14691TIP3    H165488   6.724   6.549   4.570 -1.0574 -0.3185 -1.6858
14691TIP3    H265489   6.724   6.414   4.638  0.3655  0.6706  0.3640
14692TIP3   OH265490   5.967   3.514  11.946  0.0342  0.1776 -0.4133
14692TIP3    H165491   5.980   3.601  11.908  0.8510  0.4350  0.4267
14692TIP3    H265492   5.929   3.530  12.032  1.1398 -0.2275  0.1741
14693TIP3   OH265493   6.172   5.674   3.833  0.4953 -0.1206  0.0061
14693TIP3    H165494   6.218   5.743   3.881 -0.6078  1.0532 -0.5587
14693TIP3    H265495   6.187   5.695   3.741 -1.7931  0.7995 -0.2220
14694TIP3   OH265496   5.713   0.481  13.220  0.1021  0.3759  0.1209
14694TIP3    H165497   5.756   0.400  13.195  1.2123  1.1656 -0.6328
14694TIP3    H265498   5.775   0.524  13.279 -0.3270  0.8323  0.2494
14695TIP3   OH265499   3.220   6.737  10.990  1.0500 -0.3293 -0.3134
14695TIP3    H165500   3.206   6.827  10.961 -1.0595 -0.5460 -0.1526
14695TIP3    H265501   3.255   6.692  10.913  1.8235  0.5324 -0.4885
14696TIP3   OH265502   0.147   0.290  16.490  0.3414  0.0008 -0.3161
14696TIP3    H165503   0.240   0.309  16.475  0.0360  1.7641 -0.1213
14696TIP3    H265504   0.117   0.252  16.407  1.9449 -3.8315  0.6417
14697TIP3   OH265505   3.018   2.186   5.467  0.0794  0.2906  0.0286
14697TIP3    H165506   2.954   2.140   5.521  2.2870 -1.5972  1.2367
14697TIP3    H265507   3.043   2.122   5.400  2.7655 -0.2231  1.3657
14698TIP3   OH265508   3.446   0.191   4.879 -0.3767  0.0930  0.0610
14698TIP3    H165509   3.464   0.101   4.908  1.7139  0.3598 -0.2682
14698TIP3    H265510   3.470   0.246   4.953 -0.3671  0.4545 -0.2071
14699TIP3   OH265511   6.692   2.350  12.055 -0.1614 -0.4269 -0.1479
14699TIP3    H165512   6.678   2.256  12.042  0.8174 -0.7655  1.0273
14699TIP3    H265513   6.770   2.355  12.111 -1.1272  1.0306  1.1378
14700TIP3   OH265514   1.177   5.085   5.310  0.4648 -0.0749 -0.1803
14700TIP3    H165515   1.190   5.102   5.217 -0.6377  2.6817  0.0402
14700TIP3    H265516   1.200   5.168   5.352  0.2462 -1.0234  1.9309
14701TIP3   OH265517   6.594   6.688  11.593 -0.4199 -0.5289  0.3469
14701TIP3    H165518   6.618   6.779  11.575  1.0030 -0.6547  1.4687
14701TIP3    H265519   6.567   6.653  11.508 -2.4191  1.3124  0.1320
14702TIP3   OH265520   1.309   5.759   6.547  0.2305 -0.0480 -0.4187
14702TIP3    H165521   1.345   5.671   6.551  0.6252 -0.0301 -2.3091
14702TIP3    H265522   1.340   5.794   6.463  0.4982  2.0852  0.4985
14703TIP3   OH265523   0.633   2.376   4.152  0.6042  0.0316  0.4496
14703TIP3    H165524   0.630   2.435   4.228  0.0427 -0.7828  1.0677
14703TIP3    H265525   0.557   2.402   4.099  0.3302 -0.1613  0.7446
14704TIP3   OH265526   5.575   2.007   2.832  0.0274  0.5784 -0.2805
14704TIP3    H165527   5.486   1.977   2.812  0.1603  0.0757 -0.1307
14704TIP3    H265528   5.564   2.098   2.859 -0.2828  0.9739 -1.6412
14705TIP3   OH265529   3.832   1.791  12.495 -0.2995  1.1893  0.0302
14705TIP3    H165530   3.778   1.870  12.492 -0.9865  0.7537  0.6018
14705TIP3    H265531   3.922   1.824  12.501 -0.6204  1.9278  0.9570
14706TIP3   OH265532   0.037   3.555  15.629 -0.7234 -0.0688  0.1565
14706TIP3    H165533   0.115   3.501  15.620 -0.5375  0.2835 -0.4504
14706TIP3    H265534   0.048   3.624  15.563 -0.6633  1.0623  1.2963
14707TIP3   OH265535   0.116   6.750  12.597  0.0897 -1.1517 -0.0219
14707TIP3    H165536   0.052   6.776  12.663  0.4606  0.2874 -0.1786
14707TIP3    H265537   0.065   6.707  12.528 -0.7425  0.0027 -0.1671
14708TIP3   OH265538   4.213   5.291   2.724  0.1693 -0.5449 -0.4185
14708TIP3    H165539   4.200   5.356   2.655  0.7048  0.8794  0.7653
14708TIP3    H265540   4.308   5.284   2.733  0.2032  1.6716  2.2299
14709TIP3   OH265541   1.256   2.047   5.646 -0.1224 -0.3179 -0.3572
14709TIP3    H165542   1.249   1.957   5.616 -1.6009 -0.1217 -0.6860
14709TIP3    H265543   1.199   2.097   5.587  0.2795  0.7582  0.1206
14710TIP3   OH265544   0.391   0.357  16.420  0.2796  0.6211 -0.0505
14710TIP3    H165545   0.454   0.296  16.460  1.3559  2.7405  1.6780
14710TIP3    H265546   0.436   0.389  16.342 -0.1839 -0.5296 -0.8216
14711TIP3   OH265547   6.071   6.619   2.679 -0.5249  0.3724  0.7523
14711TIP3    H165548   6.074   6.671   2.598 -1.3752  1.5000  1.4235
14711TIP3    H265549   6.143   6.557   2.670  0.0238  1.1423 -0.4307
14712TIP3   OH265550   2.171   2.617   2.929 -0.3385  0.2541  0.0256
14712TIP3    H165551   2.203   2.629   3.018  1.2121  1.1788 -0.6085
14712TIP3    H265552   2.150   2.524   2.923 -0.1264  0.1157  1.2560
14713TIP3   OH265553   0.586   0.843  17.196  0.1075 -0.3038  0.5118
14713TIP3    H165554   0.677   0.837  17.167  0.6762 -2.3494  2.4227
14713TIP3    H265555   0.538   0.787  17.136  0.3320 -0.2595  0.2876
14714TIP3   OH265556   3.852   1.828  12.818  0.2772  0.0365  0.3660
14714TIP3    H165557   3.855   1.772  12.741  1.4589 -0.7865  0.9792
14714TIP3    H265558   3.881   1.914  12.786 -0.6076  0.0764 -0.3758
14715TIP3   OH265559   5.835   2.751   0.336 -0.3656  0.0378 -0.0184
14715TIP3    H165560   5.778   2.734   0.411 -0.7000  1.7402  0.1709
14715TIP3    H265561   5.775   2.778   0.266  0.0149 -0.6759 -0.6243
14716TIP3   OH265562   1.026   4.724   3.866  0.6152  0.5216 -0.0752
14716TIP3    H165563   1.101   4.668   3.845  0.8104  0.8182 -0.1828
14716TIP3    H265564   1.018   4.718   3.961  0.8399  0.5693 -0.0520
14717TIP3   OH265565   0.772   6.120  14.643 -0.4659 -0.2356 -0.5347
14717TIP3    H165566   0.852   6.156  14.604 -1.5312  0.3600 -2.2783
14717TIP3    H265567   0.741   6.056  14.579 -1.2909 -0.6007  0.2114
14718TIP3   OH265568   6.082   2.583  10.467  0.3500 -0.0425 -0.3307
14718TIP3    H165569   6.172   2.613  10.479  0.1493  1.3680 -2.0197
14718TIP3    H265570   6.052   2.563  10.556  2.2835 -0.4781  0.2702
14719TIP3   OH265571   6.318   0.329   2.839  0.2683  0.4183  0.4698
14719TIP3    H165572   6.288   0.266   2.774 -1.0625  0.5828  0.8825
14719TIP3    H265573   6.401   0.294   2.870 -0.4590 -1.1740  0.7129
14720TIP3   OH265574   1.875   4.451  15.677  0.1264 -0.0216  0.3882
14720TIP3    H165575   1.929   4.435  15.600 -0.2014 -0.9748  0.3375
14720TIP3    H265576   1.787   4.466  15.642  0.1058  0.2160  0.5401
14721TIP3   OH265577   3.599   0.134   0.680  0.1404 -0.1660 -0.0634
14721TIP3    H165578   3.547   0.213   0.664 -0.9888 -0.7429  0.6907
14721TIP3    H265579   3.649   0.155   0.759  1.8814  0.7688 -1.3444
14722TIP3   OH265580   2.207   4.411  12.697 -0.1401  0.2003  0.3114
14722TIP3    H165581   2.175   4.323  12.674 -1.7784  0.3995  1.6203
14722TIP3    H265582   2.208   4.459  12.614 -3.1423  0.1036  0.1351
14723TIP3   OH265583   1.747   1.446  12.231 -0.8720 -0.6619 -0.2661
14723TIP3    H165584   1.760   1.491  12.148 -0.4039  0.3462  0.3409
14723TIP3    H265585   1.831   1.404  12.250 -0.4751  0.4206  0.4548
14724TIP3   OH265586   1.142   3.673  11.929 -0.7360  0.4187 -0.1412
14724TIP3    H165587   1.194   3.601  11.964 -0.3743  0.9565  0.4365
14724TIP3    H265588   1.147   3.741  11.996 -1.7595  0.6697 -0.3082
14725TIP3   OH265589   6.665   3.909   5.392  0.5354 -0.5901 -0.0832
14725TIP3    H165590   6.627   3.838   5.443 -0.3788  0.4140  0.6897
14725TIP3    H265591   6.744   3.934   5.440 -0.3427  0.3771  0.9195
14726TIP3   OH265592   6.070   6.759   1.105 -0.3734 -0.5766 -0.0625
14726TIP3    H165593   6.006   6.822   1.138  0.8387  0.5437  0.2308
14726TIP3    H265594   6.130   6.745   1.178  0.3188 -0.7841 -0.6577
14727TIP3   OH265595   3.450   6.710   4.970  0.3505  0.1656 -0.1018
14727TIP3    H165596   3.354   6.710   4.968  0.3484  0.3735  0.0021
14727TIP3    H265597   3.474   6.628   4.929  0.1319  0.2832 -0.4718
14728TIP3   OH265598   2.338   6.376   2.439  0.0510  0.3344  0.6374
14728TIP3    H165599   2.403   6.367   2.509 -1.2118 -0.8214  1.7282
14728TIP3    H265600   2.293   6.458   2.459  0.0392  0.2717  0.8677
14729TIP3   OH265601   6.062   3.874  13.080 -0.7002 -0.2348  0.6998
14729TIP3    H165602   6.062   3.962  13.118  0.9772 -1.0254  2.7895
14729TIP3    H265603   5.969   3.853  13.067 -1.2145  1.2113  1.7578
14730TIP3   OH265604   5.284   4.769   6.171  0.2699 -0.2947  0.4475
14730TIP3    H165605   5.275   4.840   6.235  1.4996  0.6627 -0.3907
14730TIP3    H265606   5.350   4.711   6.209  0.4730 -0.1072  0.3838
14731TIP3   OH265607   5.337   6.025  14.202 -0.3367  0.0913 -0.3022
14731TIP3    H165608   5.337   6.119  14.219 -1.7383  0.5151 -2.3892
14731TIP3    H265609   5.428   5.998  14.216 -0.1575  1.4763  1.5596
14732TIP3   OH265610   3.370   4.225  13.385 -0.0602  0.3382 -0.0310
14732TIP3    H165611   3.365   4.136  13.419  0.5405  0.8616  1.5418
14732TIP3    H265612   3.401   4.277  13.460 -0.9725  1.9608 -0.7345
14733TIP3   OH265613   2.272   3.082   5.650  0.4440 -0.1911 -0.1184
14733TIP3    H165614   2.305   3.034   5.575  1.7812  0.9151 -0.2778
14733TIP3    H265615   2.252   3.169   5.617 -0.6558 -0.2102  0.4441
14734TIP3   OH265616   5.285   6.146   4.306  0.4355  0.1458 -0.1756
14734TIP3    H165617   5.348   6.183   4.244  1.5953 -0.1308  0.7969
14734TIP3    H265618   5.229   6.089   4.253  0.6260  0.8463 -1.1592
14735TIP3   OH265619   1.258   5.026  16.717 -0.8144 -0.0807 -0.0946
14735TIP3    H165620   1.251   5.098  16.780 -1.0051 -0.2679  0.1001
14735TIP3    H265621   1.348   5.032  16.685 -1.7652  2.4366 -2.7429
14736TIP3   OH265622   5.263   4.194  11.273  1.1967 -0.0392  1.1640
14736TIP3    H165623   5.234   4.145  11.196  0.2645  0.5441  1.1338
14736TIP3    H265624   5.199   4.173  11.341  0.9770  0.8869  1.2433
14737TIP3   OH265625   4.201   1.628  14.661 -0.3818 -0.1000 -0.1869
14737TIP3    H165626   4.162   1.544  14.685  0.5724 -0.6964 -0.6650
14737TIP3    H265627   4.164   1.690  14.723 -1.4965 -0.7712 -0.1368
14738TIP3   OH265628   0.908   3.472  16.509  0.2430  0.4273 -0.6554
14738TIP3    H165629   0.908   3.551  16.563  0.0124  0.2983 -0.4642
14738TIP3    H265630   0.981   3.420  16.544 -0.0497  0.2421 -0.3162
14739TIP3   OH265631   5.615   5.860  12.525 -0.4448  0.5578 -0.3694
14739TIP3    H165632   5.592   5.799  12.595 -1.1304 -0.0664 -1.1336
14739TIP3    H265633   5.578   5.822  12.446  0.2622  1.2937 -1.0758
14740TIP3   OH265634   4.139   3.894   2.755 -0.1293  0.6303 -1.0041
14740TIP3    H165635   4.197   3.854   2.819 -0.6035 -1.5384 -1.8573
14740TIP3    H265636   4.094   3.963   2.803  1.9739  1.3433  0.0653
14741TIP3   OH265637   3.309   2.745  17.269  0.5173  0.4629  0.1799
14741TIP3    H165638   3.363   2.808  17.222  1.5694 -0.3637  0.2467
14741TIP3    H265639   3.310   2.667  17.213 -0.8528  0.5196  0.0441
14742TIP3   OH265640   6.111   2.607   5.269  0.0915 -0.3393  0.4504
14742TIP3    H165641   6.180   2.637   5.329  0.8959 -1.1550 -0.0357
14742TIP3    H265642   6.030   2.614   5.320  0.5003  0.8014  0.9793
14743TIP3   OH265643   3.983   5.867   0.352 -0.1963 -0.6939  0.1468
14743TIP3    H165644   3.949   5.834   0.435 -2.5713 -0.3964 -0.6262
14743TIP3    H265645   3.905   5.890   0.302  1.2106  0.8193 -1.4935
14744TIP3   OH265646   0.627   5.197  16.913 -0.0191  0.3270 -0.0416
14744TIP3    H165647   0.666   5.202  16.826 -1.3648 -1.3850 -0.8066
14744TIP3    H265648   0.533   5.206  16.897 -0.2943 -0.1233  1.2225
14745TIP3   OH265649   0.538   3.225  11.365  0.2022  0.2262 -0.1888
14745TIP3    H165650   0.504   3.303  11.410 -0.2185 -0.5049  0.8137
14745TIP3    H265651   0.486   3.220  11.285  0.8136  1.4358 -0.6876
14746TIP3   OH265652   2.386   6.222  15.190  0.2450 -0.2952 -0.2401
14746TIP3    H165653   2.335   6.191  15.265  1.6898 -1.1003  0.4479
14746TIP3    H265654   2.470   6.249  15.227  0.5526  0.4396 -1.4204
14747TIP3   OH265655   5.769   3.783  13.349 -0.1406  0.7179  0.1165
14747TIP3    H165656   5.699   3.845  13.368 -1.3284  0.0165 -1.7778
14747TIP3    H265657   5.838   3.836  13.308 -1.1541  0.8163 -1.5121
14748TIP3   OH265658   1.013   3.138  10.523 -0.0870 -0.7638  0.1020
14748TIP3    H165659   0.982   3.047  10.528 -1.1913 -0.3806  0.5492
14748TIP3    H265660   0.953   3.181  10.462  1.0945 -0.5722 -0.9670
14749TIP3   OH265661   4.386   2.089  13.564 -0.2626 -0.0872  0.2516
14749TIP3    H165662   4.434   2.073  13.482 -0.9431  1.1783 -0.4212
14749TIP3    H265663   4.409   2.179  13.588 -0.2291 -0.3763  1.3584
14750TIP3   OH265664   3.168   0.611   0.716 -0.4176  0.4646 -0.1926
14750TIP3    H165665   3.217   0.653   0.787  0.3487  1.3185 -1.1927
14750TIP3    H265666   3.219   0.532   0.695 -0.4902  0.3636  0.0078
14751TIP3   OH265667   4.995   0.252   5.265 -0.1528 -0.2264 -0.3053
14751TIP3    H165668   4.925   0.190   5.285 -0.2122 -0.0487  0.0553
14751TIP3    H265669   5.037   0.218   5.186 -0.3009 -0.6265 -0.2108
14752TIP3   OH265670   4.981   3.460  16.661 -0.3214 -0.7839  0.4520
14752TIP3    H165671   4.997   3.551  16.687 -1.8701 -0.4665  0.4186
14752TIP3    H265672   4.996   3.459  16.567  0.2601 -0.6994  0.5425
14753TIP3   OH265673   4.764   3.269   0.054 -0.0984 -0.0733  0.3682
14753TIP3    H165674   4.697   3.263   0.122 -1.1684 -0.1575 -0.6716
14753TIP3    H265675   4.715   3.282  -0.027  1.1962  1.1344 -0.2660
14754TIP3   OH265676   2.900   6.113  12.813  0.0100  0.3518  0.1938
14754TIP3    H165677   2.976   6.105  12.756  1.3063 -0.6806  1.9535
14754TIP3    H265678   2.825   6.092  12.756  1.0946  0.5748 -1.3781
14755TIP3   OH265679   5.535   3.549   5.415 -0.2299 -0.4240  0.3555
14755TIP3    H165680   5.557   3.510   5.330 -0.2076  2.1045 -0.8946
14755TIP3    H265681   5.576   3.491   5.479  2.2525 -0.8977 -1.4914
14756TIP3   OH265682   1.454   3.405   3.458  0.4338 -0.4182 -0.1308
14756TIP3    H165683   1.399   3.470   3.414 -1.1109 -0.5749  1.4500
14756TIP3    H265684   1.484   3.449   3.537  0.9415 -1.0299  0.0235
14757TIP3   OH265685   6.256   3.302  14.512 -0.4807 -0.2703  0.4339
14757TIP3    H165686   6.257   3.262  14.599 -1.9393  0.1327  0.6746
14757TIP3    H265687   6.180   3.360  14.514 -0.0215  0.4099 -0.8275
14758TIP3   OH265688   5.781   5.570   2.310  0.3549  0.2192 -0.2746
14758TIP3    H165689   5.702   5.525   2.279 -0.3556  0.7489  0.6877
14758TIP3    H265690   5.796   5.640   2.247 -1.4473  1.6963  0.8297
14759TIP3   OH265691   6.533   6.214  16.809  0.5545 -0.0377  0.2676
14759TIP3    H165692   6.564   6.294  16.767 -0.1653  0.8783  1.3998
14759TIP3    H265693   6.524   6.151  16.738  1.9264  0.6252 -0.5327
14760TIP3   OH265694   2.520   3.315   3.756  0.2065 -0.3791  0.1015
14760TIP3    H165695   2.592   3.316   3.819  1.2436 -0.0293 -1.0586
14760TIP3    H265696   2.457   3.378   3.791  0.0977 -1.2222  1.5119
14761TIP3   OH265697   4.072   1.446   4.588  0.5171  0.2523 -0.2883
14761TIP3    H165698   4.034   1.523   4.631 -0.3394  0.3136 -1.1160
14761TIP3    H265699   4.075   1.469   4.495  2.0640  0.0134 -0.3354
14762TIP3   OH265700   0.932   1.638  11.441 -0.3319 -0.1350  0.3105
14762TIP3    H165701   0.909   1.557  11.486 -1.4207  0.3190  0.6176
14762TIP3    H265702   0.917   1.707  11.507  0.9062  0.3057  0.1718
14763TIP3   OH265703   0.983   1.206  13.953  0.4399  0.6348  0.1162
14763TIP3    H165704   1.063   1.179  13.997  0.2480  0.1200  0.1614
14763TIP3    H265705   1.010   1.275  13.892  0.7655  1.1021  0.7756
14764TIP3   OH265706   0.559   6.506   2.557 -0.4091 -0.5322  0.2716
14764TIP3    H165707   0.588   6.426   2.513  0.3792 -0.4377  0.5959
14764TIP3    H265708   0.518   6.557   2.488 -1.0789 -1.2825  0.0929
14765TIP3   OH265709   0.241   1.972  16.516 -0.4924 -0.0241  0.8121
14765TIP3    H165710   0.158   1.925  16.525 -1.2045  0.8989 -0.5578
14765TIP3    H265711   0.230   2.025  16.437  0.6014  1.7553  1.7822
14766TIP3   OH265712   0.658   4.342  12.492  0.7639 -0.0300 -0.1725
14766TIP3    H165713   0.730   4.339  12.555 -0.5359 -1.0252  1.3128
14766TIP3    H265714   0.620   4.429  12.503  0.7443 -0.0841  0.1918
14767TIP3   OH265715   5.273   4.206  17.179 -0.2746 -0.3065 -0.1884
14767TIP3    H165716   5.257   4.117  17.210  0.6115  0.0135  1.2943
14767TIP3    H265717   5.252   4.261  17.254 -0.9153  0.7581 -1.1247
14768TIP3   OH265718   0.205   1.399   0.498  0.1826 -0.0365 -0.2311
14768TIP3    H165719   0.172   1.460   0.432 -0.8141 -1.4948 -1.1374
14768TIP3    H265720   0.287   1.438   0.527  0.6686  0.6527 -2.3510
14769TIP3   OH265721   1.541   5.278  13.833 -0.1668 -0.7799 -0.0691
14769TIP3    H165722   1.471   5.318  13.781 -0.5625 -1.7365 -0.2919
14769TIP3    H265723   1.622   5.310  13.792 -0.3931  1.8388  1.3256
14770TIP3   OH265724   5.732   1.296  15.742  0.1685  0.5521  1.1127
14770TIP3    H165725   5.764   1.257  15.660 -0.8914  1.8128  0.0500
14770TIP3    H265726   5.801   1.279  15.806  1.4478  0.3479 -0.2729
14771TIP3   OH265727   2.634   2.161   5.241 -0.4107  0.2711 -0.0229
14771TIP3    H165728   2.712   2.119   5.204  0.1839  0.2217  1.2359
14771TIP3    H265729   2.570   2.090   5.249  0.0225 -0.0568  0.5657
14772TIP3   OH265730   5.442   4.787   4.190 -0.6286  0.2770  0.3756
14772TIP3    H165731   5.478   4.700   4.174 -2.8911 -0.6640  0.1056
14772TIP3    H265732   5.406   4.783   4.279 -0.0806  1.2080  0.6622
14773TIP3   OH265733   2.233   5.424  16.040  0.2984  0.0867  0.0041
14773TIP3    H165734   2.238   5.520  16.048  1.3859  0.0416  0.0051
14773TIP3    H265735   2.317   5.399  16.002 -0.8448 -0.6686 -2.2154
14774TIP3   OH265736   5.585   2.446  16.190 -0.5269  0.2947 -0.1299
14774TIP3    H165737   5.672   2.482  16.172 -1.1041  2.1624  0.5722
14774TIP3    H265738   5.557   2.410  16.106  0.4997  0.6206 -0.6346
14775TIP3   OH265739   0.682   0.824   0.603 -0.7046  0.2407 -0.1233
14775TIP3    H165740   0.649   0.736   0.587 -2.6584  1.1799 -1.6849
14775TIP3    H265741   0.753   0.836   0.540 -1.6664  0.3811 -1.2180
14776TIP3   OH265742   1.433   6.447  14.007 -0.0182 -0.1157  0.0925
14776TIP3    H165743   1.393   6.517  14.059 -0.7729  0.6516 -1.4383
14776TIP3    H265744   1.441   6.373  14.067 -1.8483  0.3736  0.9963
14777TIP3   OH265745   1.669   2.470   4.936  0.1061 -0.4787 -0.1002
14777TIP3    H165746   1.727   2.505   4.868  0.4536 -2.5052 -0.9192
14777TIP3    H265747   1.697   2.380   4.948 -2.2683 -1.2657  0.1500
14778TIP3   OH265748   1.932   0.984  13.490  0.4709 -0.1114  0.2397
14778TIP3    H165749   1.870   1.031  13.546  0.8354  0.2355  0.3611
14778TIP3    H265750   1.897   0.895  13.484 -0.4118  0.2706 -0.2891
14779TIP3   OH265751   5.960   0.693  11.264 -0.1054  0.3682  0.2761
14779TIP3    H165752   5.914   0.734  11.337  1.8292 -0.4787  2.0792
14779TIP3    H265753   5.973   0.602  11.291  0.3888 -0.0627 -1.2707
14780TIP3   OH265754   3.782   1.481   6.065 -0.5641  0.8581  0.1391
14780TIP3    H165755   3.691   1.452   6.056 -0.0543 -0.9707  0.4222
14780TIP3    H265756   3.798   1.482   6.160 -0.1005  0.5132  0.0679
14781TIP3   OH265757   5.470   1.742  15.868 -0.3310 -0.0518  0.1817
14781TIP3    H165758   5.513   1.828  15.872  0.9568 -0.6946  0.8316
14781TIP3    H265759   5.385   1.756  15.909 -1.1956  1.4674 -1.9434
14782TIP3   OH265760   3.293   3.672   3.052 -0.4510  0.0597  0.0493
14782TIP3    H165761   3.327   3.585   3.072 -1.5905 -0.2118  0.9178
14782TIP3    H265762   3.245   3.698   3.131  1.5441  2.3721  0.6094
14783TIP3   OH265763   2.851   1.652   3.780  0.2105  0.2684 -0.3296
14783TIP3    H165764   2.869   1.581   3.719  0.0620  0.0942 -0.1708
14783TIP3    H265765   2.784   1.704   3.737 -0.6948 -0.4708  0.1624
14784TIP3   OH265766   2.071   4.866  14.786 -0.2032  0.6076 -0.1667
14784TIP3    H165767   2.142   4.849  14.848 -0.1424  0.6491 -0.2254
14784TIP3    H265768   2.060   4.783  14.739 -0.1122  0.6383 -0.2413
14785TIP3   OH265769   5.849   3.894   3.226  0.1441  0.1805  0.2521
14785TIP3    H165770   5.810   3.816   3.266  2.2979 -0.5754  0.9970
14785TIP3    H265771   5.872   3.950   3.299  1.0367  0.3187 -0.1291
14786TIP3   OH265772   4.165   6.684  16.927 -0.5491  0.1323  0.6605
14786TIP3    H165773   4.183   6.724  17.012 -0.2408 -0.1201  0.7172
14786TIP3    H265774   4.231   6.614  16.919 -0.0592  0.6617 -0.1215
14787TIP3   OH265775   3.074   5.709   6.377  0.0570 -0.1432  0.7417
14787TIP3    H165776   3.120   5.760   6.444 -0.2510 -0.8182  1.4855
14787TIP3    H265777   3.125   5.723   6.297  0.5508  0.5130  1.1610
14788TIP3   OH265778   4.718   5.560   1.941 -0.3902 -0.4131 -0.4996
14788TIP3    H165779   4.656   5.580   1.870 -1.0244  1.4098  0.5082
14788TIP3    H265780   4.784   5.629   1.935 -0.3247 -0.3768  0.5466
14789TIP3   OH265781   1.407   3.174  11.682 -0.1071 -0.2244 -0.1154
14789TIP3    H165782   1.491   3.217  11.698 -0.2165 -0.1123  0.1743
14789TIP3    H265783   1.360   3.234  11.625  0.7837 -1.2214 -1.9679
14790TIP3   OH265784   2.882   6.465  10.616  0.7237 -0.7216 -1.0730
14790TIP3    H165785   2.806   6.522  10.630  0.6052 -1.0153 -0.4716
14790TIP3    H265786   2.925   6.501  10.539  1.3256  0.9489 -0.0272
14791TIP3   OH265787   4.526   6.019  15.970 -0.1740  0.1342 -0.4293
14791TIP3    H165788   4.557   6.102  15.934 -0.9046 -0.1476 -1.7977
14791TIP3    H265789   4.444   6.040  16.013 -0.4251  0.1162 -0.8899
14792TIP3   OH265790   6.227   3.049   3.736  0.0658 -0.2445  0.1861
14792TIP3    H165791   6.144   3.056   3.688  0.7000  0.9240 -0.7718
14792TIP3    H265792   6.204   3.071   3.826 -1.4427 -3.9053  0.8655
14793TIP3   OH265793   6.226   2.479   3.112  0.6285  0.1659  0.1567
14793TIP3    H165794   6.271   2.395   3.122 -0.8774 -0.7742 -0.6238
14793TIP3    H265795   6.278   2.526   3.047  0.7738 -0.6712 -0.3468
14794TIP3   OH265796   5.800   1.774  11.645 -0.0124 -0.5337 -0.0913
14794TIP3    H165797   5.841   1.708  11.702 -0.2487 -1.5140 -1.0261
14794TIP3    H265798   5.718   1.733  11.617  0.5880 -0.5326 -1.9776
14795TIP3   OH265799   4.083   2.203  12.282  0.2445  0.3585 -0.0010
14795TIP3    H165800   4.016   2.168  12.223 -1.2070  0.2049  1.6659
14795TIP3    H265801   4.062   2.295  12.291  0.0049  0.2339  0.8148
14796TIP3   OH265802   3.606   0.632   4.903 -0.3082 -0.3350  0.0154
14796TIP3    H165803   3.690   0.586   4.905 -0.4439 -0.6176 -0.6080
14796TIP3    H265804   3.614   0.700   4.971  0.7359  0.1794 -0.6051
14797TIP3   OH265805   0.239   0.693  12.053  0.0578  0.1483  1.1929
14797TIP3    H165806   0.181   0.620  12.073  0.8658 -1.0686 -0.6811
14797TIP3    H265807   0.325   0.665  12.084  0.5604 -0.1267 -0.3986
14798TIP3   OH265808   0.734   1.465   4.720 -0.2977 -0.1223 -0.2962
14798TIP3    H165809   0.673   1.422   4.780 -0.5142  2.2483  1.3310
14798TIP3    H265810   0.781   1.393   4.677 -2.3133 -1.9669  0.3994
14799TIP3   OH265811   5.636   6.099  17.262  0.1379  0.8395 -0.5871
14799TIP3    H165812   5.571   6.121  17.195 -0.7783 -0.1666 -0.0739
14799TIP3    H265813   5.710   6.065  17.212 -0.2967  0.6633 -1.1335
14800TIP3   OH265814   2.833   6.360  12.952  0.3202  0.5096 -0.1163
14800TIP3    H165815   2.845   6.368  12.857 -0.4617  0.5138 -0.2201
14800TIP3    H265816   2.810   6.268  12.965 -0.8324  0.7927 -0.0776
14801TIP3   OH265817   2.341   4.725   5.098 -0.0883  0.1100  0.4643
14801TIP3    H165818   2.269   4.671   5.067  0.3230  0.6278 -1.5383
14801TIP3    H265819   2.390   4.669   5.158 -1.6261 -0.5359  1.1511
14802TIP3   OH265820   2.846   3.688   6.013 -0.1230 -0.8314  0.4590
14802TIP3    H165821   2.883   3.652   6.094  0.4036 -0.2517  0.4830
14802TIP3    H265822   2.922   3.701   5.956 -0.2462  0.5423  0.5761
14803TIP3   OH265823   3.091   2.585   4.869  0.1561  0.1258  0.2256
14803TIP3    H165824   3.167   2.535   4.897 -0.4675 -1.5289 -0.8548
14803TIP3    H265825   3.084   2.657   4.932  1.8927 -0.3672  1.0293
14804TIP3   OH265826   6.240   1.054  12.816 -0.1202 -0.0112 -0.8451
14804TIP3    H165827   6.205   0.979  12.863 -1.4651 -0.5759 -2.6660
14804TIP3    H265828   6.165   1.092  12.772  0.7157  1.8251 -0.7893
14805TIP3   OH265829   2.945   3.230  13.294  0.8660 -0.7590  0.0091
14805TIP3    H165830   2.884   3.264  13.360 -1.2148 -1.9714 -1.2319
14805TIP3    H265831   2.895   3.226  13.213  3.2516  0.3251 -1.6500
14806TIP3   OH265832   2.958   3.188   4.991 -0.9079  0.0534 -0.4505
14806TIP3    H165833   2.909   3.267   4.969  0.6018  0.7781 -1.4245
14806TIP3    H265834   2.929   3.123   4.928 -0.2262  0.6477 -1.3961
14807TIP3   OH265835   2.422   0.294   1.860  0.3352  0.1197 -0.1210
14807TIP3    H165836   2.469   0.260   1.784 -0.3784 -2.0044  0.3377
14807TIP3    H265837   2.460   0.247   1.935 -1.9030 -1.0785  0.3490
14808TIP3   OH265838   5.140   1.286  16.520  0.2852  0.0937 -0.3519
14808TIP3    H165839   5.126   1.377  16.548  0.9753  0.2390 -0.4471
14808TIP3    H265840   5.084   1.277  16.443 -2.4745 -0.6500  1.5863
14809TIP3   OH265841   2.646   0.742   3.916  0.1509 -0.0411 -0.0645
14809TIP3    H165842   2.733   0.777   3.899  0.0362  0.3716  0.2024
14809TIP3    H265843   2.586   0.805   3.877 -0.1801  1.5706  2.7849
14810TIP3   OH265844   1.573   4.800   1.179 -0.2346 -0.0610  0.0509
14810TIP3    H165845   1.524   4.765   1.104  1.3581 -0.8245 -0.6770
14810TIP3    H265846   1.550   4.742   1.251  0.7473 -1.3991 -0.6597
14811TIP3   OH265847   3.886   0.713  14.281  0.1894  0.4524  0.7027
14811TIP3    H165848   3.957   0.746  14.227  1.9455 -2.3692  1.0554
14811TIP3    H265849   3.927   0.688  14.363 -1.1038 -1.5157  0.8311
14812TIP3   OH265850   4.706   3.338   2.066  0.1532 -0.1325  0.0907
14812TIP3    H165851   4.683   3.428   2.090 -0.5513  0.1112 -1.3679
14812TIP3    H265852   4.640   3.314   2.001  0.8152 -1.4281 -0.1173
14813TIP3   OH265853   2.426   2.131  11.732 -0.4125  0.1146 -0.2235
14813TIP3    H165854   2.365   2.058  11.724  0.9965 -1.2179  0.4576
14813TIP3    H265855   2.373   2.210  11.721 -2.1274 -0.9988 -0.1658
14814TIP3   OH265856   2.738   4.207   0.421  0.0057 -0.0627 -0.1025
14814TIP3    H165857   2.733   4.297   0.454  3.2180 -0.3300  1.5663
14814TIP3    H265858   2.812   4.208   0.360  1.0810 -1.7665  1.0541
14815TIP3   OH265859   0.351   0.632   0.699  0.6377 -0.8048  0.0095
14815TIP3    H165860   0.356   0.574   0.775  1.5915 -0.5336  0.1727
14815TIP3    H265861   0.292   0.702   0.726  1.3958 -0.4182  0.7203
14816TIP3   OH265862   0.790   4.528   5.634  0.1670  0.0389  0.4319
14816TIP3    H165863   0.704   4.570   5.646 -0.0491 -0.7398  1.9165
14816TIP3    H265864   0.769   4.435   5.622  0.7779 -0.0641  0.1692
14817TIP3   OH265865   0.821   1.263   6.101 -0.6712 -0.3265 -0.0166
14817TIP3    H165866   0.842   1.315   6.023 -0.0655 -0.6959 -0.1001
14817TIP3    H265867   0.847   1.318   6.175  0.0715 -0.5438 -0.1078
14818TIP3   OH265868   5.700   0.414  17.245 -0.6046  0.0460 -0.5851
14818TIP3    H165869   5.757   0.383  17.316 -1.2529  3.8220  1.9214
14818TIP3    H265870   5.616   0.373  17.262 -0.5000  0.1780  0.3342
14819TIP3   OH265871   4.774   2.664  14.863 -0.1297  0.8057  0.1307
14819TIP3    H165872   4.720   2.590  14.890 -0.2407  0.5779 -0.6824
14819TIP3    H265873   4.860   2.645  14.900 -0.3162  0.5838  0.4557
14820TIP3   OH265874   4.496   2.875   3.799 -0.1704 -0.5749 -0.0395
14820TIP3    H165875   4.405   2.900   3.816  0.3582  1.2578  0.2893
14820TIP3    H265876   4.546   2.955   3.814  1.2207 -0.7871 -2.9022
14821TIP3   OH265877   0.998   4.232  14.297 -0.1561 -0.5545  0.6104
14821TIP3    H165878   0.957   4.306  14.254  1.0358  0.7569  1.6289
14821TIP3    H265879   0.963   4.155  14.252 -2.1956  0.5577  0.1853
14822TIP3   OH265880   0.202   4.437   5.131  0.4540  0.1130  0.3449
14822TIP3    H165881   0.238   4.465   5.214 -0.2390  0.3290  0.5784
14822TIP3    H265882   0.117   4.481   5.125  0.6565  0.4000 -0.6474
14823TIP3   OH265883   1.544   6.062  12.078 -0.1157 -0.1613  0.3543
14823TIP3    H165884   1.522   6.098  12.164  0.8152  0.0486  0.5099
14823TIP3    H265885   1.469   6.008  12.055  0.1241 -1.1500  1.8067
14824TIP3   OH265886   3.823   0.698  12.723  0.5984 -0.0428  0.4865
14824TIP3    H165887   3.870   0.750  12.788  0.1128 -0.1827  0.9583
14824TIP3    H265888   3.864   0.721  12.640  1.3551 -0.0054  0.8621
14825TIP3   OH265889   6.127   2.243   3.755 -0.4724  0.2990  0.1315
14825TIP3    H165890   6.054   2.192   3.790  0.7228 -0.9157  0.9675
14825TIP3    H265891   6.192   2.243   3.825  0.8920  0.1386 -1.0715
14826TIP3   OH265892   0.944   5.893  14.843  0.3534  0.2450  0.7089
14826TIP3    H165893   0.991   5.835  14.784 -0.4275 -1.0399  1.3163
14826TIP3    H265894   1.013   5.934  14.896  0.8599 -1.2288  1.2488
14827TIP3   OH265895   3.924   6.578   5.465 -0.4271 -0.6903 -0.1423
14827TIP3    H165896   3.887   6.625   5.391  1.2911 -0.3597 -0.8496
14827TIP3    H265897   3.913   6.638   5.539 -0.0123  0.0108 -0.6398
14828TIP3   OH265898   2.310   1.461  14.239  0.8870  0.7148 -0.8560
14828TIP3    H165899   2.280   1.406  14.166  1.0949  1.1878 -1.3022
14828TIP3    H265900   2.252   1.537  14.237 -1.6072 -0.8822  1.7766
14829TIP3   OH265901   1.310   5.287   2.014 -0.1172 -0.6106 -0.3063
14829TIP3    H165902   1.220   5.317   2.001 -0.5674 -1.2556  1.1519
14829TIP3    H265903   1.302   5.193   2.030  0.7995 -0.6347  0.0523
14830TIP3   OH265904   2.547   4.945   1.517  0.3235 -0.2518 -0.0092
14830TIP3    H165905   2.625   4.929   1.463 -1.5344  0.0357 -2.9796
14830TIP3    H265906   2.522   4.858   1.548  0.8371 -0.5745 -0.4811
14831TIP3   OH265907   0.582   2.243  10.781 -0.3403 -0.0086 -0.2353
14831TIP3    H165908   0.627   2.300  10.719 -0.2748  0.0249 -0.1566
14831TIP3    H265909   0.636   2.164  10.784  0.0006  0.2345  0.2548
14832TIP3   OH265910   4.026   2.655  13.062  0.1191  0.4335 -0.3640
14832TIP3    H165911   4.100   2.595  13.046 -0.0238  0.1437  0.0614
14832TIP3    H265912   3.948   2.601  13.049 -0.0976  1.1658 -2.6840
14833TIP3   OH265913   0.593   5.127  13.267 -0.7402 -0.1992 -0.5520
14833TIP3    H165914   0.570   5.195  13.330  0.5807  0.3744 -0.6407
14833TIP3    H265915   0.666   5.165  13.217 -1.2457 -0.9364 -1.9060
14834TIP3   OH265916   1.161   5.463   0.624  0.5941  0.0927 -0.6451
14834TIP3    H165917   1.238   5.441   0.677  0.2096  0.3867  0.0503
14834TIP3    H265918   1.093   5.484   0.688 -0.4386 -1.3188 -1.2102
14835TIP3   OH265919   4.759   6.198   4.651 -0.6744 -0.2913  0.0642
14835TIP3    H165920   4.768   6.289   4.623 -1.0441 -0.1653  0.3579
14835TIP3    H265921   4.807   6.194   4.734  0.3564 -0.6472 -0.5372
14836TIP3   OH265922   2.286   2.844  14.026  0.0034  0.5333 -0.6680
14836TIP3    H165923   2.237   2.869  13.948 -2.5376 -3.3795 -0.5896
14836TIP3    H265924   2.221   2.842  14.096  0.9483 -1.4273  0.2544
14837TIP3   OH265925   2.798   3.852   3.783 -0.1463  0.0314 -0.4764
14837TIP3    H165926   2.737   3.900   3.726 -1.5476  0.5417  1.3484
14837TIP3    H265927   2.782   3.888   3.870  2.2146 -0.4358  0.2172
14838TIP3   OH265928   1.771   4.315   4.834  0.5417  0.4991  0.3671
14838TIP3    H165929   1.680   4.299   4.810  0.9510 -0.9214 -0.3502
14838TIP3    H265930   1.772   4.404   4.868 -1.3150  0.1440  1.4735
14839TIP3   OH265931   5.627   0.432  15.229  0.1136  0.0401  0.2834
14839TIP3    H165932   5.555   0.393  15.279 -0.4543 -0.9756 -1.2327
14839TIP3    H265933   5.698   0.443  15.292 -2.0594  3.3655  2.4781
14840TIP3   OH265934   0.217   5.951   2.839  0.2278  0.0860  0.1906
14840TIP3    H165935   0.304   5.947   2.800  0.9734  2.3727  1.4258
14840TIP3    H265936   0.162   5.992   2.772  0.3750 -0.3587 -0.1980
14841TIP3   OH265937   3.373   4.206  14.271 -0.0321 -0.1559 -0.0178
14841TIP3    H165938   3.448   4.263  14.256 -0.1306  0.0227  0.1592
14841TIP3    H265939   3.394   4.125  14.225  1.7876 -1.3967  2.7310
14842TIP3   OH265940   2.481   6.364   1.168  0.0632  0.0107  0.0640
14842TIP3    H165941   2.474   6.281   1.122 -2.2797 -0.2753  0.7854
14842TIP3    H265942   2.413   6.419   1.128  1.2285  1.4416 -0.0562
14843TIP3   OH265943   1.590   6.103  11.790  0.0269 -0.0084 -0.2541
14843TIP3    H165944   1.545   6.151  11.721 -0.8373  1.0436  1.0017
14843TIP3    H265945   1.541   6.123  11.870  0.8325 -1.4041  0.6378
14844TIP3   OH265946   0.919   0.712  12.327  0.6204 -0.1766 -0.3540
14844TIP3    H165947   0.979   0.678  12.393  1.2811  0.1328 -0.7881
14844TIP3    H265948   0.840   0.734  12.377  1.0913  0.0107  0.3307
14845TIP3   OH265949   0.308   6.559  10.788  0.0289 -0.8139  0.0742
14845TIP3    H165950   0.212   6.560  10.791  0.0505 -0.5408  1.5953
14845TIP3    H265951   0.331   6.467  10.781 -0.3465 -0.9028 -0.0193
14846TIP3   OH265952   0.806   4.900   5.975 -0.7479  0.3346  0.5897
14846TIP3    H165953   0.712   4.920   5.981 -0.9468 -0.2389 -0.3733
14846TIP3    H265954   0.831   4.934   5.889 -1.0382 -3.1729 -1.0187
14847TIP3   OH265955   2.226   3.380   5.980 -0.4886  0.1579 -0.5745
14847TIP3    H165956   2.184   3.379   6.065 -1.6768  0.8252 -1.1296
14847TIP3    H265957   2.316   3.351   5.997 -0.0867  2.2239  1.2056
14848TIP3   OH265958   0.826   2.906   5.113  0.4848  0.8796 -0.4636
14848TIP3    H165959   0.920   2.893   5.129  0.7288  2.3602 -0.5994
14848TIP3    H265960   0.822   2.954   5.031 -0.5188 -1.2360 -1.7176
14849TIP3   OH265961   3.447   2.669  12.001  0.5396  0.6578  0.7405
14849TIP3    H165962   3.502   2.735  11.958  2.7632 -1.5221  0.0289
14849TIP3    H265963   3.506   2.596  12.018 -2.1256 -1.8687 -0.0972
14850TIP3   OH265964   6.065   0.673   4.583  0.4532 -0.7196 -0.2022
14850TIP3    H165965   6.049   0.748   4.527  1.1838 -0.0636  0.4422
14850TIP3    H265966   6.159   0.657   4.574  0.6557 -0.3574  1.1185
14851TIP3   OH265967   4.885   4.489  11.487 -0.2424 -0.6771  0.0940
14851TIP3    H165968   4.810   4.543  11.463  0.9243  0.8571 -0.2374
14851TIP3    H265969   4.863   4.454  11.573 -0.6652  1.0892  0.7495
14852TIP3   OH265970   4.846   4.450  16.934 -0.3167  0.8832 -0.2896
14852TIP3    H165971   4.847   4.546  16.931  1.4313  0.9894  1.4804
14852TIP3    H265972   4.780   4.429  17.000  0.0825  0.9461  0.1399
14853TIP3   OH265973   2.607   3.826   1.767 -0.4168  0.1116 -0.5287
14853TIP3    H165974   2.701   3.844   1.776 -0.4013  0.2775 -0.9958
14853TIP3    H265975   2.567   3.912   1.757 -0.3822 -0.0450 -2.4339
14854TIP3   OH265976   1.852   2.585   3.882  0.4962  0.6564  0.5982
14854TIP3    H165977   1.818   2.645   3.816  1.4205 -0.2617 -0.7692
14854TIP3    H265978   1.848   2.499   3.840  1.4706  0.1020  1.5983
14855TIP3   OH265979   2.317   5.769   0.984 -0.1823  0.2064  0.5694
14855TIP3    H165980   2.255   5.777   1.056 -0.1418 -0.4428  0.6889
14855TIP3    H265981   2.261   5.764   0.906 -0.2358  0.6848  0.5788
14856TIP3   OH265982   1.353   0.955   4.364 -0.1955  0.1115 -0.2143
14856TIP3    H165983   1.328   0.889   4.428  0.1706 -1.0228 -1.2071
14856TIP3    H265984   1.350   0.909   4.280 -0.3471  1.4707 -0.9856
14857TIP3   OH265985   6.408   4.054  15.895  0.7613  0.2174  0.0057
14857TIP3    H165986   6.393   4.143  15.862 -0.6625 -0.1305 -0.3339
14857TIP3    H265987   6.407   4.064  15.990 -1.3249  0.3009  0.0123
14858TIP3   OH265988   5.416   6.016  13.153  0.0745 -0.5419 -0.2138
14858TIP3    H165989   5.402   6.111  13.151  1.7694 -0.2403  0.4413
14858TIP3    H265990   5.374   5.984  13.074  0.1472  0.8738 -0.8623
14859TIP3   OH265991   3.081   0.218   6.457 -0.0692  0.0941  0.0128
14859TIP3    H165992   3.117   0.129   6.462 -0.0225 -0.0317 -1.8221
14859TIP3    H265993   3.154   0.275   6.478 -0.2409 -0.2788  1.7974
14860TIP3   OH265994   3.453   0.798   5.592 -0.0672  0.6888 -0.1598
14860TIP3    H165995   3.362   0.774   5.573  0.3256  0.1866 -1.4789
14860TIP3    H265996   3.473   0.752   5.674 -0.8871  0.5543 -0.0197
14861TIP3   OH265997   0.206   6.547  11.695 -0.5914 -0.3214  0.3360
14861TIP3    H165998   0.125   6.556  11.743 -0.9918  0.2773 -0.4227
14861TIP3    H265999   0.209   6.624  11.638  0.0325 -0.8181 -0.3292
14862TIP3   OH266000   5.854   3.689   0.776 -0.2283  0.2937  0.6615
14862TIP3    H166001   5.777   3.646   0.814 -0.4113 -1.5493 -1.5818
14862TIP3    H266002   5.888   3.626   0.712  1.6993  2.0685 -0.1829
14863TIP3   OH266003   2.390   0.469  13.293  0.8158 -0.5067  0.0594
14863TIP3    H166004   2.467   0.488  13.239  1.3570 -1.0312  0.6230
14863TIP3    H266005   2.426   0.447  13.379 -0.0176  0.0269  0.5545
14864TIP3   OH266006   3.830   5.140  16.207  0.1275 -0.1329 -0.1093
14864TIP3    H166007   3.752   5.195  16.194  0.1130 -0.0843  0.1816
14864TIP3    H266008   3.801   5.052  16.179 -0.5588 -0.4747  1.5479
14865TIP3   OH266009   0.983   1.199  13.416  0.4451  0.1613 -0.5101
14865TIP3    H166010   0.932   1.261  13.364 -1.2276  0.3551  1.2572
14865TIP3    H266011   1.016   1.136  13.352 -1.2997  0.5253 -1.8574
14866TIP3   OH266012   2.293   2.831  15.222 -0.3582 -0.6964 -0.0770
14866TIP3    H166013   2.247   2.787  15.294 -0.0931 -0.7934  0.0339
14866TIP3    H266014   2.316   2.760  15.162  1.3397 -0.9321  0.7921
14867TIP3   OH266015   5.806   3.042  13.360 -0.0891 -0.5312 -0.5470
14867TIP3    H166016   5.716   3.057  13.331  0.4069 -0.2949 -2.0030
14867TIP3    H266017   5.834   3.125  13.398 -0.3725 -0.5194 -0.3579
14868TIP3   OH266018   3.319   2.277   6.065  0.4873  0.2547 -0.0928
14868TIP3    H166019   3.401   2.243   6.031  0.6052  0.6682 -0.2308
14868TIP3    H266020   3.309   2.235   6.150  1.4634  1.1294  0.4762
14869TIP3   OH266021   2.809   4.951  15.920 -0.4142 -0.0030  0.6928
14869TIP3    H166022   2.882   4.915  15.869 -0.1618  1.4864 -0.0414
14869TIP3    H266023   2.837   4.944  16.011 -0.2777 -1.3981  0.5721
14870TIP3   OH266024   6.567   2.377  13.477  0.1442  0.4352 -0.5030
14870TIP3    H166025   6.592   2.320  13.549 -0.6234  1.3790  0.5351
14870TIP3    H266026   6.649   2.413  13.444  0.6980 -1.6139 -1.5172
14871TIP3   OH266027   2.560   5.763   2.545  0.1658  0.2348  0.6517
14871TIP3    H166028   2.564   5.676   2.583  0.5366  0.2921  0.7454
14871TIP3    H266029   2.466   5.784   2.542 -0.3559 -1.8075 -3.1217
14872TIP3   OH266030   2.953   6.577  11.236 -0.0881  0.2596 -0.2801
14872TIP3    H166031   2.911   6.493  11.251 -0.0445  0.5210  1.5967
14872TIP3    H266032   2.947   6.591  11.141 -1.4500 -1.1341 -0.4386
14873TIP3   OH266033   3.864   4.965  10.343 -0.0334  0.0339 -0.1420
14873TIP3    H166034   3.790   4.965  10.282 -0.1674  0.1074  0.0201
14873TIP3    H266035   3.858   4.882  10.389  0.0259  0.0091 -0.1795
14874TIP3   OH266036   4.275   1.241   4.529 -0.0957  0.0067 -0.5360
14874TIP3    H166037   4.185   1.272   4.532 -0.7250 -1.7982  1.8977
14874TIP3    H266038   4.316   1.278   4.607  0.8994 -0.2697 -0.9187
14875TIP3   OH266039   5.420   4.729   1.136 -0.1126 -0.1259  0.0105
14875TIP3    H166040   5.420   4.748   1.043 -2.3340 -0.7940 -0.1806
14875TIP3    H266041   5.373   4.646   1.144  0.7502 -0.5037  1.6650
14876TIP3   OH266042   5.776   3.196   3.310  0.3180  0.3305  0.2251
14876TIP3    H166043   5.703   3.162   3.258 -0.9098  1.3000  1.2644
14876TIP3    H266044   5.745   3.193   3.400  0.9106  2.2815  0.5381
14877TIP3   OH266045   5.469   4.063  10.715 -0.5169  0.0896 -0.6172
14877TIP3    H166046   5.513   4.147  10.730 -0.1649 -0.1216 -0.4332
14877TIP3    H266047   5.387   4.070  10.764 -0.8349  0.6047 -1.2105
14878TIP3   OH266048   4.184   2.075   4.408 -0.0903  0.1589  0.4495
14878TIP3    H166049   4.237   2.148   4.439  0.1863 -0.4681  1.4942
14878TIP3    H266050   4.239   2.030   4.344  0.7785 -0.6581  1.7416
14879TIP3   OH266051   4.587   1.783   5.910 -0.1509 -0.2049  0.1929
14879TIP3    H166052   4.539   1.848   5.962  0.6461  0.1903  0.4478
14879TIP3    H266053   4.678   1.791   5.939  0.4646  0.5375 -1.7533
14880TIP3   OH266054   4.517   2.443   1.613  0.3058  0.2714 -0.3666
14880TIP3    H166055   4.434   2.484   1.635  0.3309  0.2917 -0.3092
14880TIP3    H266056   4.498   2.349   1.612 -0.2675  0.3552 -2.5849
14881TIP3   OH266057   0.555   5.283   5.815  0.4108 -0.3818  0.9569
14881TIP3    H166058   0.606   5.271   5.895  0.8062  0.7646  0.8927
14881TIP3    H266059   0.464   5.270   5.843  0.5709 -0.2718  1.5328
14882TIP3   OH266060   3.304   4.855  16.576 -0.1062  0.3808  0.3173
14882TIP3    H166061   3.396   4.833  16.562 -0.4935 -2.3958  1.4874
14882TIP3    H266062   3.304   4.950  16.587  2.8531  0.3368  1.8306
14883TIP3   OH266063   4.879   6.472   4.073 -0.5324  0.3227  0.2198
14883TIP3    H166064   4.962   6.430   4.092 -0.9482 -0.1704  1.0093
14883TIP3    H266065   4.902   6.559   4.042  0.2602  0.3650  0.9005
14884TIP3   OH266066   2.042   5.310  12.462  0.2059 -0.3544 -0.3920
14884TIP3    H166067   2.012   5.382  12.407  1.0472 -1.0244 -1.7866
14884TIP3    H266068   2.121   5.278  12.419  0.0617 -1.8635  0.4006
14885TIP3   OH266069   0.734   3.907  16.023  0.4169  0.3158  0.1189
14885TIP3    H166070   0.753   3.995  15.990 -0.4498  0.5196  0.1455
14885TIP3    H266071   0.689   3.863  15.951 -0.1979  0.2908  0.5075
14886TIP3   OH266072   5.922   0.015  14.356 -0.0177  0.4274  0.3174
14886TIP3    H166073   5.910   0.109  14.339 -1.8807  0.4109  1.3006
14886TIP3    H266074   5.902   0.005  14.449 -1.9581 -1.2390 -0.2052
14887TIP3   OH266075   1.569   2.812   5.304  0.0078 -0.2491 -0.6281
14887TIP3    H166076   1.533   2.760   5.376 -1.6582  0.1571 -1.1284
14887TIP3    H266077   1.636   2.756   5.265  1.9722  0.0404  2.0571
14888TIP3   OH266078   4.304   1.755  15.491  0.1095  0.3852  0.2624
14888TIP3    H166079   4.267   1.842  15.504 -3.6203 -0.3978 -3.0183
14888TIP3    H266080   4.379   1.769  15.433  0.3508  1.4777  0.8150
14889TIP3   OH266081   4.290   1.292  14.917 -0.5653  0.1645  1.1289
14889TIP3    H166082   4.315   1.285  14.825 -2.0000  1.6778  0.5727
14889TIP3    H266083   4.260   1.204  14.940  1.5207 -0.7055  0.7307
14890TIP3   OH266084   0.021   5.552   1.256  0.1716 -0.0197 -0.7381
14890TIP3    H166085  -0.017   5.609   1.323 -0.5987  0.9201 -1.9354
14890TIP3    H266086  -0.041   5.554   1.184  1.6678  0.2005 -2.0871
14891TIP3   OH266087   1.188   3.839  15.720  0.1795  0.3404  0.0677
14891TIP3    H166088   1.231   3.917  15.755  0.8321  0.2189 -0.4485
14891TIP3    H266089   1.110   3.828  15.775 -0.0092  1.4418  0.0482
14892TIP3   OH266090   3.869   1.597   2.001 -0.4221 -0.1319 -0.1625
14892TIP3    H166091   3.900   1.661   2.066 -0.9842  1.8768 -1.7741
14892TIP3    H266092   3.923   1.613   1.924  1.3061 -3.5250  0.1496
14893TIP3   OH266093   1.117   0.430   4.463  0.1299 -0.2183  0.6681
14893TIP3    H166094   1.182   0.360   4.454 -1.8500 -2.0509 -0.2933
14893TIP3    H266095   1.101   0.437   4.557  1.5890  0.1809  0.9061
14894TIP3   OH266096   1.751   5.825  16.915  0.5127 -0.1257 -0.4485
14894TIP3    H166097   1.731   5.918  16.929  1.4993  0.3079 -1.7304
14894TIP3    H266098   1.778   5.819  16.823  2.5066 -1.2772  0.1350
14895TIP3   OH266099   2.238   4.060  15.873 -0.1170 -0.2935 -1.0478
14895TIP3    H166100   2.156   4.046  15.922  0.7680 -0.9102  0.3322
14895TIP3    H266101   2.298   4.096  15.938  0.3513  1.4102 -2.3715
14896TIP3   OH266102   5.917   3.067   3.631 -0.1481 -0.3624  0.2564
14896TIP3    H166103   5.942   3.051   3.540 -0.1008 -2.1029  0.5359
14896TIP3    H266104   5.829   3.105   3.625  0.5336  1.1960 -0.5401
14897TIP3   OH266105   4.147   0.324  17.050 -0.1992  0.3531 -0.6817
14897TIP3    H166106   4.141   0.414  17.083  1.6956  0.0356  0.6916
14897TIP3    H266107   4.200   0.331  16.970  1.8618  0.2713  0.6059
14898TIP3   OH266108   1.217   0.086  17.022 -0.5054 -0.2435 -0.3048
14898TIP3    H166109   1.300   0.134  17.025 -3.0795  4.8694 -0.4856
14898TIP3    H266110   1.207   0.062  16.930 -0.0657  0.8739 -0.6581
14899TIP3   OH266111   2.257   4.292   5.804 -0.1600 -0.2033  0.3469
14899TIP3    H166112   2.219   4.375   5.834  2.0068  1.0052 -0.0168
14899TIP3    H266113   2.311   4.263   5.877 -0.2891 -0.8915  0.1742
14900TIP3   OH266114   0.084   3.594  13.259 -0.2055 -0.0742  0.0803
14900TIP3    H166115   0.100   3.688  13.258  0.9066 -0.1718  2.1597
14900TIP3    H266116   0.089   3.567  13.168 -2.1317  2.0806 -0.7715
14901TIP3   OH266117   3.297   1.438  10.655 -0.2675 -0.1288 -0.7333
14901TIP3    H166118   3.330   1.468  10.740 -0.6466 -1.2724 -0.1608
14901TIP3    H266119   3.254   1.515  10.618 -1.7882 -0.0758  0.9859
14902TIP3   OH266120   3.010   5.933  15.709 -0.3327  0.2590  0.1487
14902TIP3    H166121   3.056   5.855  15.680  1.3489  1.3370 -0.1905
14902TIP3    H266122   2.972   5.907  15.794  3.1284  0.0241  1.8180
14903TIP3   OH266123   2.557   6.461   1.911 -0.1996 -0.7391  0.3719
14903TIP3    H166124   2.522   6.488   1.996 -2.1177 -0.4174 -0.4654
14903TIP3    H266125   2.575   6.368   1.921 -0.8291 -0.8018  0.9981
14904TIP3   OH266126   4.462   4.060   5.124  0.2005 -0.5695 -0.7616
14904TIP3    H166127   4.377   4.098   5.102 -0.4653 -1.3002  0.4230
14904TIP3    H266128   4.523   4.100   5.062 -0.9789  0.0600 -1.5624
14905TIP3   OH266129   4.369   2.895  11.532 -0.6358  0.4457  0.6271
14905TIP3    H166130   4.438   2.830  11.545 -0.5639  0.5131  0.5799
14905TIP3    H266131   4.406   2.977  11.564 -1.0072  0.3161  1.4108
14906TIP3   OH266132   3.564   2.182  14.822 -0.3141  0.1638 -0.0857
14906TIP3    H166133   3.521   2.261  14.791 -0.2974  0.6079  0.9722
14906TIP3    H266134   3.620   2.212  14.894 -0.4621 -0.8301  0.4626
14907TIP3   OH266135   0.210   4.713   3.721 -0.4245  0.1556 -0.2091
14907TIP3    H166136   0.168   4.799   3.723 -0.4742  0.1873  3.1233
14907TIP3    H266137   0.230   4.694   3.813  0.3183 -3.0624 -0.9156
14908TIP3   OH266138   2.130   0.360  11.200  0.2488  0.9109  0.1711
14908TIP3    H166139   2.085   0.291  11.152 -1.2915  1.3072  0.9522
14908TIP3    H266140   2.216   0.324  11.220 -0.7928 -1.1456  1.2710
14909TIP3   OH266141   2.915   4.869  11.763  0.6577 -0.0126 -0.3461
14909TIP3    H166142   3.006   4.900  11.760  0.6941  0.0248  0.6453
14909TIP3    H266143   2.863   4.944  11.735  1.0131 -0.5838 -2.7002
14910TIP3   OH266144   5.237   3.632  14.271 -0.5666 -0.1231  0.2722
14910TIP3    H166145   5.146   3.638  14.301 -0.4680 -1.0548  0.8182
14910TIP3    H266146   5.289   3.651  14.349 -0.3025 -0.9108  0.2981
14911TIP3   OH266147   1.962   4.181  13.698 -0.2411  0.3203  0.0524
14911TIP3    H166148   1.878   4.215  13.667 -0.8157  0.1356  1.3611
14911TIP3    H266149   2.018   4.259  13.703 -0.3808  0.4756 -0.6040
14912TIP3   OH266150   2.195   4.851   2.696  0.1360  0.0027 -0.7374
14912TIP3    H166151   2.207   4.762   2.728  1.1221  0.5595  0.5468
14912TIP3    H266152   2.243   4.853   2.613 -0.2929 -0.7886 -1.0108
14913TIP3   OH266153   5.529   0.739  11.016 -0.1261  0.2820  0.2662
14913TIP3    H166154   5.493   0.775  10.935 -0.5654 -2.4089 -0.8330
14913TIP3    H266155   5.476   0.661  11.033  2.3225 -1.3046  1.0923
14914TIP3   OH266156   2.519   5.610  13.282 -0.1432 -0.7196  0.5278
14914TIP3    H166157   2.491   5.691  13.240 -1.7236 -2.0842 -1.1954
14914TIP3    H266158   2.585   5.638  13.346  2.1352  1.5666 -2.5155
14915TIP3   OH266159   0.113   3.999   5.527 -0.7024 -0.0499  0.6504
14915TIP3    H166160   0.138   4.086   5.496  1.1127 -0.5348  0.6572
14915TIP3    H266161   0.111   4.008   5.622  2.1259 -0.6044  0.8394
14916TIP3   OH266162   3.931   5.295   2.182  0.0432 -0.2700 -0.7416
14916TIP3    H166163   4.005   5.344   2.148 -1.0243  0.4109 -2.1968
14916TIP3    H266164   3.938   5.209   2.141  0.8130 -0.7007  0.2612
14917TIP3   OH266165   4.139   1.256   3.955  0.4728 -0.2156  0.2040
14917TIP3    H166166   4.155   1.305   3.875 -0.7458  1.9797  1.2185
14917TIP3    H266167   4.225   1.221   3.980  0.7943 -1.2998 -2.2070
14918TIP3   OH266168   5.360   4.157  15.118 -0.4025  0.3254  0.2444
14918TIP3    H166169   5.433   4.128  15.173  0.7603  2.0220 -0.3287
14918TIP3    H266170   5.393   4.146  15.028 -1.1200  0.4663 -0.0416
14919TIP3   OH266171   5.515   4.749  15.517 -0.3172  0.3444 -0.0699
14919TIP3    H166172   5.574   4.766  15.590 -0.2437 -0.4634  0.0677
14919TIP3    H266173   5.479   4.835  15.495  2.2519  1.1772 -1.3564
14920TIP3   OH266174   6.610   5.669   5.311  0.0731  0.1549 -0.3006
14920TIP3    H166175   6.579   5.752   5.347 -0.9436  0.0490 -0.8793
14920TIP3    H266176   6.705   5.672   5.321 -0.0568  0.7922  0.9392
14921TIP3   OH266177   6.171   2.569   3.436 -0.4373 -0.0905 -0.0626
14921TIP3    H166178   6.165   2.642   3.375 -1.6362  0.1421  0.3058
14921TIP3    H266179   6.211   2.606   3.514 -1.2636  0.2478  0.2105
14922TIP3   OH266180   3.827   4.580   3.624  0.2984  0.2084  0.0698
14922TIP3    H166181   3.892   4.608   3.688  1.6338 -1.9226 -0.2918
14922TIP3    H266182   3.864   4.604   3.539 -0.5214  1.1409 -0.0482
14923TIP3   OH266183   0.413   2.611   5.298 -0.3912  0.4348  0.3820
14923TIP3    H166184   0.492   2.640   5.252  0.4159 -1.5027  0.4223
14923TIP3    H266185   0.430   2.628   5.390  0.1622 -0.3232  0.4266
14924TIP3   OH266186   1.331   5.889   4.482  0.5633 -0.3797 -0.3684
14924TIP3    H166187   1.328   5.918   4.390 -1.4663  1.8517  0.2933
14924TIP3    H266188   1.274   5.812   4.484  0.9545 -0.6997 -1.0423
14925TIP3   OH266189   1.719   0.777  13.716 -0.8967  0.2451 -0.1638
14925TIP3    H166190   1.690   0.813  13.633  1.1360  0.6906 -0.7429
14925TIP3    H266191   1.678   0.690  13.721  0.8652 -0.8790 -2.9005
14926TIP3   OH266192   1.133   2.509  13.395  0.6221  0.4453 -0.2333
14926TIP3    H166193   1.188   2.484  13.320  1.5434 -1.1777  0.9247
14926TIP3    H266194   1.052   2.541  13.355  1.8256  1.5060 -1.9523
14927TIP3   OH266195   2.614   0.938  11.886 -0.0513  0.1567 -0.0307
14927TIP3    H166196   2.526   0.972  11.900  0.2774  0.7195  0.7770
14927TIP3    H266197   2.619   0.860  11.942 -0.4336 -0.5910 -1.0200
14928TIP3   OH266198   1.810   3.630   1.364  0.1369  0.6663  0.5126
14928TIP3    H166199   1.863   3.554   1.340 -0.9257 -0.8222  2.5607
14928TIP3    H266200   1.860   3.673   1.433 -0.0630  0.8383  0.5512
14929TIP3   OH266201   4.092   0.341   1.115 -0.5370  0.1471  0.0259
14929TIP3    H166202   4.135   0.262   1.083 -1.0791  0.3981 -1.4260
14929TIP3    H266203   4.029   0.363   1.047 -0.6775  1.6049  0.5815
14930TIP3   OH266204   2.375   5.201   0.176  0.3909 -0.2381  0.4059
14930TIP3    H166205   2.440   5.250   0.125  0.6705  0.5453  1.4703
14930TIP3    H266206   2.322   5.269   0.218 -1.5938 -0.8437 -0.9845
14931TIP3   OH266207   6.421   3.952  15.423 -0.3103  0.2923  0.1400
14931TIP3    H166208   6.454   3.863  15.429  0.7631  0.4612 -2.2336
14931TIP3    H266209   6.327   3.944  15.441 -0.1270 -1.1846  0.5920
14932TIP3   OH266210   5.070   2.829   3.582  0.6042  0.3162 -0.8441
14932TIP3    H166211   5.141   2.844   3.644  1.0773 -0.5418 -1.1715
14932TIP3    H266212   4.994   2.870   3.624  1.0505  0.2981  0.0104
14933TIP3   OH266213   2.881   1.489   4.006 -0.1485  0.2054  0.7239
14933TIP3    H166214   2.855   1.557   3.944 -1.7870  0.3563  1.5314
14933TIP3    H266215   2.838   1.513   4.088  1.3884 -0.3786  1.7541
14934TIP3   OH266216   1.938   0.867  16.977 -0.3866 -0.0565 -0.5311
14934TIP3    H166217   1.966   0.950  17.015  0.6848 -0.7208  0.1576
14934TIP3    H266218   2.015   0.810  16.983 -1.3786 -1.3933 -0.1582
14935TIP3   OH266219   3.785   5.535   3.113 -0.0384  0.2324  0.0368
14935TIP3    H166220   3.719   5.498   3.054 -0.6277 -0.1443  0.9087
14935TIP3    H266221   3.828   5.603   3.061 -0.6412  0.0114 -0.7724
14936TIP3   OH266222   0.441   0.221  14.128 -0.5022  0.1495  0.0580
14936TIP3    H166223   0.354   0.246  14.098 -0.8642  0.3251  1.1808
14936TIP3    H266224   0.486   0.304  14.144  0.2946  0.0682 -1.6216
14937TIP3   OH266225   4.298   0.369  15.954 -0.0650 -0.6420 -0.4168
14937TIP3    H166226   4.276   0.310  15.882 -0.6943 -0.5937 -0.2690
14937TIP3    H266227   4.376   0.416  15.923 -1.0460  0.2797 -1.5967
14938TIP3   OH266228   6.651   6.385  11.979 -0.3442  0.1925  0.2502
14938TIP3    H166229   6.713   6.328  11.934 -1.2101  0.5468 -1.4852
14938TIP3    H266230   6.664   6.471  11.939 -0.4424  0.7746  1.4228
14939TIP3   OH266231   0.802   2.980   6.208  0.1852 -0.0277 -0.0589
14939TIP3    H166232   0.826   3.068   6.236 -0.2719 -0.1038  0.5857
14939TIP3    H266233   0.714   2.966   6.243 -0.9974  0.3492 -2.6484
14940TIP3   OH266234   3.782   0.242  14.626 -0.0846 -0.0706 -0.1603
14940TIP3    H166235   3.862   0.291  14.642 -1.1575  1.0503  2.2977
14940TIP3    H266236   3.807   0.150  14.638  0.6718  0.3276  1.7135
14941TIP3   OH266237   3.198   2.956   0.125  0.1567 -0.3960  0.4573
14941TIP3    H166238   3.242   2.876   0.094 -0.8606 -0.9884  0.5007
14941TIP3    H266239   3.252   2.985   0.199  0.5231 -1.0733  0.4721
14942TIP3   OH266240   4.006   0.382  14.007  0.4446 -0.5818  0.2544
14942TIP3    H166241   3.990   0.302  13.957 -2.9763  0.8768 -1.2931
14942TIP3    H266242   3.919   0.420  14.021  1.8472  2.5782  1.4199
14943TIP3   OH266243   2.619   6.255  10.520  0.2560  0.4666 -0.1782
14943TIP3    H166244   2.635   6.337  10.473  1.0408  0.8942  0.7993
14943TIP3    H266245   2.688   6.196  10.490  1.0091  0.8699  0.6941
14944TIP3   OH266246   0.661   4.670   2.738 -0.5586  0.5153  0.1875
14944TIP3    H166247   0.757   4.665   2.742 -0.5330  1.0166  0.2840
14944TIP3    H266248   0.640   4.755   2.776 -0.8667  1.5869 -2.2084
14945TIP3   OH266249   5.539   2.478  17.009  1.0846  0.1335  0.2581
14945TIP3    H166250   5.529   2.573  17.014 -0.4092 -0.0409  1.0439
14945TIP3    H266251   5.572   2.453  17.095  1.5881 -0.0668  0.0143
14946TIP3   OH266252   5.559   4.876   4.724  0.5486  0.5230  0.6822
14946TIP3    H166253   5.497   4.810   4.755  0.7747  0.9104  2.0236
14946TIP3    H266254   5.521   4.908   4.642  0.4622 -1.2830 -0.0213
14947TIP3   OH266255   3.807   6.306  15.095 -0.5033 -0.0728  0.0980
14947TIP3    H166256   3.841   6.390  15.124  1.4843 -0.6007 -0.5495
14947TIP3    H266257   3.827   6.303  15.001 -0.1925 -1.4068  0.1836
14948TIP3   OH266258   5.980   5.132   2.884  0.1042  0.3175 -0.2530
14948TIP3    H166259   5.923   5.208   2.873  0.9806  0.7850 -1.7580
14948TIP3    H266260   6.029   5.126   2.802  1.4185 -0.7508  0.5672
14949TIP3   OH266261   4.617   5.476   0.744 -0.2335 -0.2506  0.5688
14949TIP3    H166262   4.648   5.566   0.737  0.1516 -0.4800 -1.0686
14949TIP3    H266263   4.641   5.448   0.833  0.4671  0.9444  0.7676
14950TIP3   OH266264   0.295   5.111  13.643  0.1655  0.1095  0.2736
14950TIP3    H166265   0.268   5.055  13.571 -0.0623  1.8184 -1.0233
14950TIP3    H266266   0.220   5.114  13.702  0.4060 -1.4110  0.7050
14951TIP3   OH266267   5.258   3.498  11.284  0.3499 -0.0475  0.1150
14951TIP3    H166268   5.304   3.558  11.226 -0.3142 -0.0426 -0.4183
14951TIP3    H266269   5.327   3.439  11.316  0.4908 -1.2238 -2.1122
14952TIP3   OH266270   4.574   0.051  12.679 -0.4454  0.2704 -0.3797
14952TIP3    H166271   4.543   0.089  12.761  0.9462  1.4943 -0.3733
14952TIP3    H266272   4.543   0.111  12.611 -0.3042  0.1059 -0.5923
14953TIP3   OH266273   5.425   3.333  12.459 -0.4929  0.4939  0.1601
14953TIP3    H166274   5.489   3.403  12.470 -0.0351  0.3304 -1.1634
14953TIP3    H266275   5.347   3.376  12.424 -0.7657  0.5610  0.8530
14954TIP3   OH266276   3.310   5.344   0.856 -0.2537 -0.4129  0.1572
14954TIP3    H166277   3.229   5.381   0.890  0.1080  0.7475 -0.2244
14954TIP3    H266278   3.334   5.400   0.782  0.3907 -1.3143 -0.3420
14955TIP3   OH266279   0.855   4.512   1.520  0.0119 -0.2188 -0.1112
14955TIP3    H166280   0.918   4.516   1.448 -0.7514 -1.8953 -0.9228
14955TIP3    H266281   0.789   4.579   1.498  0.5384  0.2731 -0.2070
14956TIP3   OH266282   2.253   1.235  12.069  0.5578 -0.2249 -0.5813
14956TIP3    H166283   2.185   1.246  12.002  1.2904 -2.2178 -1.7170
14956TIP3    H266284   2.237   1.307  12.131 -0.1479  1.7278 -2.8659
14957TIP3   OH266285   3.549   1.342   3.731  0.0273  0.8868  0.3762
14957TIP3    H166286   3.583   1.261   3.769  1.8812  1.0994 -0.6990
14957TIP3    H266287   3.572   1.337   3.638 -0.6773  2.2234  0.0998
14958TIP3   OH266288   3.492   3.427   3.010 -0.6919 -0.2618 -0.0787
14958TIP3    H166289   3.469   3.335   2.997  0.4815 -0.6520  0.4689
14958TIP3    H266290   3.489   3.466   2.923 -0.3655 -1.0218 -0.4350
14959TIP3   OH266291   2.624   0.353  12.573 -0.5935 -0.1175 -0.1817
14959TIP3    H166292   2.586   0.265  12.584 -0.4107 -0.1378  0.3445
14959TIP3    H266293   2.559   0.412  12.612 -1.0454  0.0600 -1.1703
14960TIP3   OH266294   0.711   5.920  12.021 -0.3093 -0.4188 -0.0450
14960TIP3    H166295   0.774   5.944  12.089  0.3375 -1.6894 -0.1746
14960TIP3    H266296   0.663   6.001  12.004  0.8469  0.4180  0.5193
14961TIP3   OH266297   4.599   6.043   3.607 -0.1754  0.5984 -0.0504
14961TIP3    H166298   4.545   5.969   3.635 -0.4363  1.3334  1.4841
14961TIP3    H266299   4.536   6.108   3.574  0.0134  0.3467 -0.9297
14962TIP3   OH266300   6.628   1.208  16.757  0.3129  0.1958 -0.0134
14962TIP3    H166301   6.629   1.141  16.825  0.6734 -1.0412 -1.1875
14962TIP3    H266302   6.568   1.174  16.690 -0.1625  1.4578 -0.2617
14963TIP3   OH266303   6.634   6.558   5.971  0.4320  0.1835  0.3521
14963TIP3    H166304   6.592   6.640   5.946 -0.0293  0.3717  1.7019
14963TIP3    H266305   6.650   6.566   6.065 -3.1329 -2.7389  1.4418
14964TIP3   OH266306   1.115   6.727   2.439  0.1451 -0.6129 -0.0463
14964TIP3    H166307   1.039   6.677   2.408 -0.5092 -0.8573  1.7893
14964TIP3    H266308   1.160   6.666   2.498  0.4972  0.2721  0.6162
14965TIP3   OH266309   3.392   0.062  13.821  0.0929 -0.1492 -0.3199
14965TIP3    H166310   3.444   0.142  13.805 -1.2317  1.1527  1.4569
14965TIP3    H266311   3.306   0.095  13.847 -0.2640 -2.1413  1.2354
14966TIP3   OH266312   5.231   2.427  10.682  0.0295  0.0220  0.3102
14966TIP3    H166313   5.217   2.501  10.741  0.0486  1.2130 -1.1255
14966TIP3    H266314   5.160   2.366  10.703 -0.9891  1.1942  0.3954
14967TIP3   OH266315   4.597   2.644   1.307 -0.9798 -0.4490 -0.0697
14967TIP3    H166316   4.547   2.564   1.323 -0.8965 -0.1880  1.6770
14967TIP3    H266317   4.682   2.613   1.275 -1.2081 -1.0112 -0.1448
14968TIP3   OH266318   0.692   6.164   3.729  0.9530 -0.1296 -0.3729
14968TIP3    H166319   0.736   6.226   3.788 -3.5801  2.3759  0.9249
14968TIP3    H266320   0.644   6.105   3.788  0.5834 -1.1186 -1.6151
14969TIP3   OH266321   1.085   4.200  11.872 -0.3366  0.0871 -0.1404
14969TIP3    H166322   1.008   4.232  11.825  0.0639 -0.5386 -1.2690
14969TIP3    H266323   1.121   4.132  11.815  1.2181  0.5653  0.2231
14970TIP3   OH266324   2.142   2.908   4.760  0.1579  0.6167 -0.6041
14970TIP3    H166325   2.230   2.873   4.767 -0.3824 -1.4853 -2.8482
14970TIP3    H266326   2.093   2.866   4.831  0.5061  0.1887 -0.6168
14971TIP3   OH266327   2.877   5.300   1.985  0.2796  0.4545 -0.3495
14971TIP3    H166328   2.824   5.227   1.954 -0.6040  0.9899 -0.1535
14971TIP3    H266329   2.920   5.267   2.064  0.2561  0.0004 -0.5265
14972TIP3   OH266330   4.361   5.670   1.580 -0.0037  0.4187 -0.1339
14972TIP3    H166331   4.346   5.598   1.518 -0.4883 -0.2288  0.7085
14972TIP3    H266332   4.432   5.638   1.636 -0.7124  0.2776  0.7008
14973TIP3   OH266333   5.049   3.789   0.074 -0.0937  0.0915  0.1773
14973TIP3    H166334   4.991   3.842   0.129  0.7347 -1.0208  2.2696
14973TIP3    H266335   4.999   3.710   0.055 -0.1222  0.1675 -0.0691
14974TIP3   OH266336   6.421   1.962  12.031  0.1013  1.0942 -0.0593
14974TIP3    H166337   6.356   2.003  11.975  0.1095  0.9317 -0.1885
14974TIP3    H266338   6.385   1.969  12.119  0.6856  2.5377  0.1015
14975TIP3   OH266339   3.006   0.535  13.974 -0.4930 -0.0655  0.1771
14975TIP3    H166340   3.078   0.598  13.978 -0.5044 -0.0489  0.1195
14975TIP3    H266341   2.989   0.524  13.881  0.2970 -1.0579  0.1389
14976TIP3   OH266342   4.279   4.778   2.937  0.2580  0.5101  0.2368
14976TIP3    H166343   4.211   4.732   2.986 -0.2012  1.0284  0.0968
14976TIP3    H266344   4.269   4.869   2.962  1.2203  0.5348  0.5793
14977TIP3   OH266345   3.674   2.360   0.699 -0.2029  0.4760 -0.2985
14977TIP3    H166346   3.761   2.328   0.673  0.9692  3.2399 -0.1175
14977TIP3    H266347   3.624   2.361   0.617  0.8202  1.3129 -0.9523
14978TIP3   OH266348   3.564   6.270  16.400 -0.0601  0.3095  0.0628
14978TIP3    H166349   3.635   6.323  16.436 -0.9102  1.6671 -0.2061
14978TIP3    H266350   3.564   6.191  16.455  1.6242  0.2725  0.0688
14979TIP3   OH266351   4.990   0.035  12.462  0.0038  0.3035 -0.1801
14979TIP3    H166352   5.007  -0.052  12.427 -0.8335  0.2092 -0.3722
14979TIP3    H266353   4.924   0.072  12.403  0.7654  1.2948 -0.4467
14980TIP3   OH266354   2.587   3.550   5.919 -0.2091  0.1625 -0.2758
14980TIP3    H166355   2.660   3.596   5.961  0.5260 -0.9092 -0.3505
14980TIP3    H266356   2.594   3.460   5.951 -1.8941  0.1728  0.2148
14981TIP3   OH266357   0.090   2.885  12.326  0.1367 -0.4195  0.4684
14981TIP3    H166358   0.072   2.802  12.372 -0.9712 -0.8621 -0.6969
14981TIP3    H266359   0.162   2.864  12.267  0.0357 -0.4879  0.3683
14982TIP3   OH266360   5.983   5.560  17.233 -0.7595 -0.0071  0.7919
14982TIP3    H166361   6.054   5.600  17.283 -0.0309 -1.2189  0.7713
14982TIP3    H266362   6.005   5.576  17.141 -1.0276  0.4527  0.8046
14983TIP3   OH266363   1.705   6.700   1.482 -0.0141  0.1180 -0.8052
14983TIP3    H166364   1.791   6.693   1.441 -0.6115 -1.3550 -1.8956
14983TIP3    H266365   1.654   6.755   1.422 -0.2088 -0.0922 -0.8343
14984TIP3   OH266366   0.749   3.906   4.707  0.0290  0.3798  0.4946
14984TIP3    H166367   0.796   3.946   4.780  0.9387  0.1221  0.0655
14984TIP3    H266368   0.697   3.836   4.747  0.9504 -0.1231  0.8314
14985TIP3   OH266369   0.381   1.784   1.418  0.0638 -0.0871 -0.6150
14985TIP3    H166370   0.374   1.769   1.512  2.2899 -0.8259 -0.5186
14985TIP3    H266371   0.292   1.768   1.385 -0.4389 -1.2909  1.1617
14986TIP3   OH266372   5.849   0.910  15.147 -0.2281 -0.0724 -0.1452
14986TIP3    H166373   5.829   0.827  15.191 -0.5708 -0.7590 -1.5518
14986TIP3    H266374   5.764   0.942  15.117  0.2795 -1.4432 -3.4177
14987TIP3   OH266375   5.056   6.356   1.163  0.0081  0.2345 -0.0088
14987TIP3    H166376   5.149   6.339   1.177  0.3165  0.1628 -1.8531
14987TIP3    H266377   5.054   6.407   1.081 -1.4496  1.8733  0.9867
14988TIP3   OH266378   0.723   2.157   3.402 -0.3928  0.2141 -0.4418
14988TIP3    H166379   0.666   2.124   3.471  1.9521 -2.5646  0.3619
14988TIP3    H266380   0.756   2.240   3.435 -0.5962 -0.2809  1.0403
14989TIP3   OH266381   1.436   5.863  17.001  0.0970  0.3639  0.1756
14989TIP3    H166382   1.345   5.835  17.007  0.8248 -1.9522  2.1289
14989TIP3    H266383   1.447   5.891  16.911 -2.2861 -0.2595 -0.3705
14990TIP3   OH266384   0.524   4.912   2.856  0.4072 -0.5829  0.1849
14990TIP3    H166385   0.430   4.925   2.840  0.3775 -1.4401 -0.4367
14990TIP3    H266386   0.533   4.912   2.951 -0.0028  0.9071  0.2498
14991TIP3   OH266387   4.922   2.239   4.246 -0.1234  0.2876 -0.2439
14991TIP3    H166388   4.962   2.325   4.230  0.9082 -0.2752 -0.7435
14991TIP3    H266389   4.884   2.214   4.162  1.1013 -0.5067 -0.5891
14992TIP3   OH266390   5.286   2.166   2.376 -0.2101  0.0097  0.7744
14992TIP3    H166391   5.234   2.173   2.455  0.8842  0.4824  1.4745
14992TIP3    H266392   5.270   2.077   2.344 -1.7638  0.2849  0.7139
14993TIP3   OH266393   2.491   3.336   1.439  0.1964 -0.6439 -0.1881
14993TIP3    H166394   2.495   3.431   1.441  0.0524 -0.6338 -0.3508
14993TIP3    H266395   2.480   3.310   1.531 -1.3810 -0.4297 -0.2852
14994TIP3   OH266396   0.842   2.159  15.937 -0.9342  0.0232  0.1349
14994TIP3    H166397   0.890   2.191  16.013  0.5305 -1.6351 -0.0190
14994TIP3    H266398   0.843   2.232  15.876  0.7839  0.3239  0.4589
14995TIP3   OH266399   6.155   5.223  12.266  0.3231  0.2373 -0.2420
14995TIP3    H166400   6.202   5.304  12.286  0.7084  0.1767 -0.8534
14995TIP3    H266401   6.223   5.164  12.234  0.2601 -0.7867  1.4211
14996TIP3   OH266402   2.511   0.865   2.872 -0.1822  0.7321  0.3208
14996TIP3    H166403   2.458   0.874   2.951  0.0984 -0.4137  0.6643
14996TIP3    H266404   2.594   0.830   2.903 -0.5571 -1.1300 -0.6113
14997TIP3   OH266405   2.160   6.015  10.520  0.1981 -0.4424  0.1951
14997TIP3    H166406   2.250   6.043  10.502 -0.1354  1.7442  1.6179
14997TIP3    H266407   2.134   6.065  10.597 -1.6143 -2.4409  0.9972
14998TIP3   OH266408   1.621   1.120  14.644  0.4843 -0.3746  0.9678
14998TIP3    H166409   1.716   1.102  14.645  0.8311  1.1100 -0.8901
14998TIP3    H266410   1.614   1.215  14.652 -0.8499 -0.4442  0.8079
14999TIP3   OH266411   4.954   2.722   2.815  0.9604  0.5574  0.1403
14999TIP3    H166412   4.906   2.655   2.862 -0.8051  3.3269  2.6873
14999TIP3    H266413   4.906   2.734   2.733 -0.8312  1.0305  1.2104
15000TIP3   OH266414   1.533   6.180  16.668  0.2896 -0.3355  0.1660
15000TIP3    H166415   1.587   6.217  16.597  1.5158 -0.7896  0.8323
15000TIP3    H266416   1.444   6.211  16.649  0.5293 -0.6622 -1.7248
15001TIP3   OH266417   2.280   1.658   0.457 -0.1237  0.6231 -0.3263
15001TIP3    H166418   2.220   1.591   0.425  0.6446 -0.0906 -0.3088
15001TIP3    H266419   2.275   1.728   0.392  0.1025 -0.0498 -1.0834
15002TIP3   OH266420   4.476   5.386  16.044 -0.2147  0.5920 -0.0713
15002TIP3    H166421   4.442   5.464  16.088  1.7393  0.6087  1.5113
15002TIP3    H266422   4.479   5.410  15.952 -1.8810  1.5084  0.0668
15003TIP3   OH266423   0.710   1.237   4.372  0.0275  0.7716  0.1881
15003TIP3    H166424   0.772   1.206   4.438  0.7081 -1.3951 -1.3333
15003TIP3    H266425   0.711   1.332   4.380  0.3399  0.6213  3.0064
15004TIP3   OH266426   5.775   5.758  14.617 -0.1586 -0.4605 -0.2623
15004TIP3    H166427   5.680   5.765  14.626  0.0088 -0.1986  1.8861
15004TIP3    H266428   5.789   5.669  14.585 -1.1253 -0.6162 -0.2966
15005TIP3   OH266429   2.245   3.678  13.936  0.0261 -0.1670  0.1254
15005TIP3    H166430   2.234   3.618  13.862  1.1150  0.6255 -0.6968
15005TIP3    H266431   2.339   3.697  13.938 -0.0139 -0.0336  1.6064
15006TIP3   OH266432   2.132   2.538   4.242  0.2070  0.0863  0.0391
15006TIP3    H166433   2.083   2.540   4.160  0.4448 -0.3740 -0.1180
15006TIP3    H266434   2.067   2.516   4.309 -0.4367  2.4728  0.3230
15007TIP3   OH266435   1.318   2.607   3.094  0.0963 -0.0292 -0.0454
15007TIP3    H166436   1.391   2.545   3.089 -0.2918 -0.4390 -0.8201
15007TIP3    H266437   1.248   2.559   3.137 -0.1507 -0.0776 -0.4958
15008TIP3   OH266438   3.231   1.865  12.549 -0.4121  0.1320 -0.4799
15008TIP3    H166439   3.184   1.786  12.522  1.0351 -1.0904  0.4484
15008TIP3    H266440   3.286   1.887  12.474 -0.4831 -0.0028 -0.5721
15009TIP3   OH266441   6.396   3.356   2.933 -0.7073 -0.0754 -0.2941
15009TIP3    H166442   6.370   3.446   2.917  0.0026  0.4477  1.3025
15009TIP3    H266443   6.490   3.354   2.917 -0.6026 -0.3654  0.3175
15010TIP3   OH266444   3.755   0.334   3.525  0.1094  0.4500 -0.3468
15010TIP3    H166445   3.668   0.340   3.486  0.1053  0.5436 -0.3220
15010TIP3    H266446   3.801   0.412   3.494  0.1301  0.4865 -0.2237
15011TIP3   OH266447   2.842   0.471   0.229  0.0584  0.2439  0.2847
15011TIP3    H166448   2.825   0.448   0.320  1.6035 -1.8494  0.1200
15011TIP3    H266449   2.762   0.514   0.200 -0.3533  1.2426  2.6893
15012TIP3   OH266450   2.448   3.800  16.127 -0.3694  0.3129 -0.3015
15012TIP3    H166451   2.380   3.857  16.164  0.7095  0.6568  1.2242
15012TIP3    H266452   2.449   3.724  16.185  0.6548  0.3889 -0.2081
15013TIP3   OH266453   6.246   2.979  13.896 -0.3149 -0.0749 -0.2896
15013TIP3    H166454   6.232   2.914  13.965 -0.4035  0.2060 -0.0413
15013TIP3    H266455   6.175   3.043  13.907 -0.2775  0.0205 -0.5837
15014TIP3   OH266456   6.349   3.807  13.192 -0.0385 -0.2398 -0.0886
15014TIP3    H166457   6.374   3.723  13.153  0.1222 -0.0850 -0.3242
15014TIP3    H266458   6.418   3.825  13.255  0.0519 -0.1730 -0.2059
15015TIP3   OH266459   5.826   5.817  16.588 -0.3499  0.1568  0.4402
15015TIP3    H166460   5.917   5.825  16.560 -0.1731 -1.8689  0.2577
15015TIP3    H266461   5.829   5.752  16.659 -1.8022 -1.1457 -0.6267
15016TIP3   OH266462   6.602   4.926   0.163 -0.1588 -0.4323 -0.0849
15016TIP3    H166463   6.548   4.868   0.218  1.5428 -1.3611  0.6679
15016TIP3    H266464   6.557   4.926   0.079 -2.7068  0.8275  1.1291
15017TIP3   OH266465   2.808   0.413  15.018 -0.2063 -0.0358 -0.2157
15017TIP3    H166466   2.805   0.479  14.950  2.4445  0.5434  0.1157
15017TIP3    H266467   2.900   0.387  15.023 -0.8026 -2.2503  1.1068
15018TIP3   OH266468   1.062   4.615   3.104 -0.3361  0.6246 -0.0083
15018TIP3    H166469   1.054   4.583   3.194  0.9318 -1.8110 -0.6578
15018TIP3    H266470   1.006   4.557   3.053  0.8524  0.3382 -1.0659
15019TIP3   OH266471   5.083   1.199   5.095 -0.7974  0.1153 -0.1585
15019TIP3    H166472   5.035   1.275   5.129  0.4416  0.9670 -0.2652
15019TIP3    H266473   5.056   1.194   5.003 -1.4366 -0.0307  0.0275
15020TIP3   OH266474   3.935   0.532  16.720  0.3801  0.0747  0.1232
15020TIP3    H166475   3.943   0.554  16.813  0.5307 -0.9825  0.3738
15020TIP3    H266476   3.923   0.437  16.719 -1.3762  0.2614 -0.8543
15021TIP3   OH266477   6.412   0.097   0.946  0.1259  0.3227  0.6253
15021TIP3    H166478   6.356   0.113   0.871  1.5719  0.4009 -0.4811
15021TIP3    H266479   6.359   0.121   1.022 -1.1466  0.8324 -0.3995
15022TIP3   OH266480   3.362   4.683   6.507  0.5168  0.3388 -0.1947
15022TIP3    H166481   3.411   4.764   6.516  1.8981 -0.6034  1.3871
15022TIP3    H266482   3.424   4.622   6.467 -0.2899 -0.1201 -0.7702
15023TIP3   OH266483   3.124   6.597   1.730  0.1485 -0.8050  0.4997
15023TIP3    H166484   3.173   6.586   1.811  0.2296 -0.4417  0.5042
15023TIP3    H266485   3.060   6.526   1.730  1.9515 -2.5617 -0.4476
15024TIP3   OH266486   0.766   1.595   2.388 -0.0176 -0.2367  0.4361
15024TIP3    H166487   0.779   1.680   2.431  0.3182  0.3118 -0.7105
15024TIP3    H266488   0.675   1.573   2.405  0.0450  0.0749  1.2295
15025TIP3   OH266489   2.581   4.760   5.805  0.5009  0.4870  0.4451
15025TIP3    H166490   2.525   4.719   5.871 -1.3857 -2.7270 -2.8141
15025TIP3    H266491   2.531   4.838   5.777 -1.2560 -0.9331 -0.6107
15026TIP3   OH266492   0.586   6.659  11.663 -0.3984 -0.2505 -0.0125
15026TIP3    H166493   0.678   6.632  11.655 -0.2808  0.6279 -2.1959
15026TIP3    H266494   0.585   6.717  11.739  1.4246  1.8035 -1.4320
15027TIP3   OH266495   1.297   6.386   1.487  0.2505  0.0243  0.2111
15027TIP3    H166496   1.225   6.329   1.512  1.1605 -0.8336  0.9896
15027TIP3    H266497   1.374   6.328   1.485  1.2394  1.2333  1.2003
15028TIP3   OH266498   5.569   0.283   1.825 -0.2847 -0.1144 -0.2988
15028TIP3    H166499   5.641   0.335   1.860 -0.7303 -0.3403  0.9933
15028TIP3    H266500   5.531   0.239   1.901 -1.2166 -0.7179 -1.0811
15029TIP3   OH266501   4.492   4.844  12.753  0.3376 -0.0372  0.2925
15029TIP3    H166502   4.496   4.809  12.843 -0.8967  0.4804  0.5623
15029TIP3    H266503   4.526   4.773  12.699  0.4054 -0.6406  1.1051
15030TIP3   OH266504   1.444   4.041  16.424  0.1338  0.9836  0.0004
15030TIP3    H166505   1.392   4.049  16.344 -1.8395  2.0870  1.2985
15030TIP3    H266506   1.406   3.965  16.469  2.2070 -0.5771 -0.7002
15031TIP3   OH266507   5.722   0.164  16.928 -0.3654 -0.5631  0.1617
15031TIP3    H166508   5.670   0.126  16.857 -0.5351 -0.0341 -0.0091
15031TIP3    H266509   5.755   0.246  16.892  0.0810 -0.5979  0.4826
15032TIP3   OH266510   2.743   5.907   4.532 -0.0938  0.8023 -0.4822
15032TIP3    H166511   2.824   5.906   4.480  0.9696 -2.4388  0.9696
15032TIP3    H266512   2.675   5.878   4.472  0.6470 -0.4384 -0.7585
15033TIP3   OH266513   6.738   5.624  17.242 -0.5636 -0.6255  0.9015
15033TIP3    H166514   6.810   5.602  17.301 -0.1155 -1.2729  0.1477
15033TIP3    H266515   6.660   5.626  17.297 -0.3603 -2.4650  1.3358
15034TIP3   OH266516   0.313   1.445  14.416  0.5248 -0.1642  0.2234
15034TIP3    H166517   0.333   1.361  14.375  0.9259 -0.5540  1.1918
15034TIP3    H266518   0.219   1.442  14.435 -0.0373  0.6568 -2.0399
15035TIP3   OH266519   1.880   2.889   3.975 -0.0722 -0.6554 -0.5675
15035TIP3    H166520   1.870   2.857   4.065 -0.0249  1.2689  0.1536
15035TIP3    H266521   1.969   2.866   3.952  0.2196 -0.3664  0.2217
15036TIP3   OH266522   1.044   3.906  13.530 -0.1292 -0.2989  0.2197
15036TIP3    H166523   1.068   3.995  13.554 -0.6919 -0.0812 -0.0171
15036TIP3    H266524   1.092   3.851  13.592 -1.1268  0.2316  1.5244
15037TIP3   OH266525   5.128   6.676   1.615 -0.5802  0.1382 -0.0082
15037TIP3    H166526   5.087   6.591   1.631  0.0593 -0.6216 -2.0483
15037TIP3    H266527   5.204   6.655   1.560 -0.3714  2.0264 -0.4995
15038TIP3   OH266528   2.920   2.647  12.599 -0.4570 -0.2443 -0.6038
15038TIP3    H166529   2.887   2.720  12.652  0.3210  1.1024 -1.8731
15038TIP3    H266530   3.003   2.623  12.640 -1.6876 -1.8969  1.0632
15039TIP3   OH266531   3.574   3.042   2.046  0.0438  0.0643 -0.8717
15039TIP3    H166532   3.616   3.066   2.129  0.0049  0.0197 -0.8390
15039TIP3    H266533   3.589   3.118   1.989  0.4385 -0.0780 -0.9592
15040TIP3   OH266534   1.392   0.717   4.173  0.6341 -0.3057 -0.0147
15040TIP3    H166535   1.407   0.623   4.176  1.0163 -0.2149  1.8619
15040TIP3    H266536   1.478   0.754   4.150  0.0912 -0.4550 -2.5730
15041TIP3   OH266537   4.365   1.841  14.259 -0.4064 -0.2666  0.2958
15041TIP3    H166538   4.384   1.768  14.318 -0.2994 -0.5519 -0.0845
15041TIP3    H266539   4.287   1.814  14.211 -0.0509 -0.3784 -0.2397
15042TIP3   OH266540   6.579   0.814  13.991  0.6454  0.3802  0.6472
15042TIP3    H166541   6.527   0.893  13.979 -2.4143 -1.7643 -1.7141
15042TIP3    H266542   6.594   0.809  14.085 -0.8039  2.6935  1.0794
15043TIP3   OH266543   6.107   2.573  12.739  0.0968  0.3001  0.1828
15043TIP3    H166544   6.055   2.495  12.718  1.9304 -1.4769  1.6920
15043TIP3    H266545   6.177   2.573  12.674  0.6612  0.0687  0.7745
15044TIP3   OH266546   1.346   5.880  15.985  0.1655  0.1820 -0.0789
15044TIP3    H166547   1.306   5.794  15.972  0.3151 -0.0667  1.0176
15044TIP3    H266548   1.353   5.917  15.897 -0.6660 -0.5818 -0.4809
15045TIP3   OH266549   1.558   5.243  14.401  0.9856  0.0164  0.2745
15045TIP3    H166550   1.623   5.255  14.332  2.6736  0.7261  1.9141
15045TIP3    H266551   1.518   5.329  14.412 -0.3009 -0.4161 -0.7274
15046TIP3   OH266552   4.843   3.705   4.355 -1.1404  0.1129 -0.9130
15046TIP3    H166553   4.760   3.657   4.358 -1.4653  0.5811 -2.0148
15046TIP3    H266554   4.897   3.656   4.293 -0.1421 -0.8252  0.6073
15047TIP3   OH266555   0.722   1.231  14.567  0.2810 -0.6217 -0.2175
15047TIP3    H166556   0.815   1.208  14.566  0.1212 -1.3154  0.1037
15047TIP3    H266557   0.710   1.281  14.647  0.3604 -0.6372 -0.1959
15048TIP3   OH266558   5.085   4.307   3.501  0.5902  0.3918  0.0799
15048TIP3    H166559   5.083   4.272   3.590 -1.4547  0.1490 -0.0155
15048TIP3    H266560   5.177   4.329   3.486  0.9504  0.6120  2.3013
15049TIP3   OH266561   0.909   4.673  16.701 -0.3438  0.4175 -0.3952
15049TIP3    H166562   0.932   4.679  16.608 -1.8117  2.5391 -0.6941
15049TIP3    H266563   0.978   4.723  16.745 -0.4328  0.6576 -0.5224
15050TIP3   OH266564   0.965   3.973   4.235 -0.3895 -0.3515  0.3127
15050TIP3    H166565   0.877   3.992   4.267  0.4414  0.9117  1.9582
15050TIP3    H266566   1.020   4.041   4.272  1.6439 -2.2310  0.9896
15051TIP3   OH266567   0.047   1.014  11.588  0.1460  0.3630  0.0766
15051TIP3    H166568   0.003   0.963  11.656  0.2541 -0.5247 -0.5129
15051TIP3    H266569  -0.008   1.005  11.511  1.3693 -0.8224 -0.6943
15052TIP3   OH266570   1.233   3.395   6.608  0.4703 -0.2115 -0.2030
15052TIP3    H166571   1.278   3.479   6.604  0.0307  0.0343 -0.0400
15052TIP3    H266572   1.297   3.332   6.574  0.4753  0.3135 -1.2004
15053TIP3   OH266573   1.738   6.198   4.925  0.3038 -0.0045  0.8261
15053TIP3    H166574   1.795   6.182   5.000  0.6370 -2.4904  0.1348
15053TIP3    H266575   1.667   6.134   4.935  0.5826 -0.6865 -1.1637
15054TIP3   OH266576   3.317   2.547   6.015 -0.0860  0.2045  0.0594
15054TIP3    H166577   3.304   2.454   6.033 -0.4092  0.0754 -0.7657
15054TIP3    H266578   3.398   2.569   6.059 -0.3428 -0.3077  0.8165
15055TIP3   OH266579   5.415   2.080  13.656  0.5505 -0.2566  0.3441
15055TIP3    H166580   5.443   1.989  13.669 -0.0200 -0.4950 -0.0905
15055TIP3    H266581   5.384   2.083  13.566  1.9907  0.7482 -0.1503
15056TIP3   OH266582   6.265   6.245   3.710  0.2807  0.3422  0.7419
15056TIP3    H166583   6.279   6.164   3.661 -1.4674 -0.7402  1.9101
15056TIP3    H266584   6.200   6.222   3.777  0.0476  2.6052  1.3934
15057TIP3   OH266585   2.493   4.083   1.129 -0.0356 -0.1498  0.0100
15057TIP3    H166586   2.587   4.084   1.108 -0.0640 -2.1976 -0.4219
15057TIP3    H266587   2.450   4.107   1.048  0.0896 -0.3343 -0.1124
15058TIP3   OH266588   4.027   3.619  12.726  0.4661  0.3069  0.1961
15058TIP3    H166589   3.942   3.595  12.762 -0.8570  1.0939 -2.2216
15058TIP3    H266590   4.043   3.708  12.760 -0.2940  0.6619 -0.3601
15059TIP3   OH266591   3.384   0.732   0.143  0.7899 -0.2641  0.2731
15059TIP3    H166592   3.333   0.813   0.143 -0.5062 -1.0306 -1.1673
15059TIP3    H266593   3.370   0.695   0.230  1.8388  1.2807  1.1485
15060TIP3   OH266594   4.867   2.681   2.573  0.2301 -0.2560 -0.0896
15060TIP3    H166595   4.946   2.678   2.518  0.9489  1.0977  0.8117
15060TIP3    H266596   4.823   2.762   2.547 -0.7805 -0.8863 -0.4260
15061TIP3   OH266597   0.444   5.854   1.367  0.3056 -0.2118  0.1094
15061TIP3    H166598   0.369   5.800   1.344 -0.9154  1.4508  0.0800
15061TIP3    H266599   0.515   5.820   1.312 -0.5131 -1.4983 -0.1976
15062TIP3   OH266600   4.810   2.487   0.805 -0.2988  0.5222  0.7964
15062TIP3    H166601   4.755   2.533   0.869 -0.6150 -1.7671  2.2629
15062TIP3    H266602   4.812   2.396   0.835  1.2918 -0.2206 -1.3007
15063TIP3   OH266603   6.628   3.305   4.428  0.0354 -0.3396 -0.0556
15063TIP3    H166604   6.545   3.276   4.390 -0.2711  1.4181 -0.8275
15063TIP3    H266605   6.604   3.375   4.488  0.8318 -0.9574  1.0268
15064TIP3   OH266606   6.687   4.140   2.890 -0.1294 -0.2060  0.9873
15064TIP3    H166607   6.776   4.104   2.895 -0.9353 -2.1604  3.1567
15064TIP3    H266608   6.634   4.068   2.855 -0.8451  1.0676 -0.6750
15065TIP3   OH266609   2.365   3.499   3.893  0.1767 -0.3213  0.3962
15065TIP3    H166610   2.400   3.580   3.930  0.0568  0.8819 -1.8903
15065TIP3    H266611   2.274   3.519   3.872 -0.0464 -1.2757  0.3958
15066TIP3   OH266612   2.876   6.583   0.402  1.0330 -0.4116  0.3364
15066TIP3    H166613   2.908   6.649   0.340 -2.1735  0.0438 -0.9986
15066TIP3    H266614   2.892   6.622   0.488  0.5184  1.5029 -0.3764
15067TIP3   OH266615   6.752   1.429   5.806  0.6856 -0.2964  0.0042
15067TIP3    H166616   6.683   1.492   5.787  0.7915 -0.1967 -0.0447
15067TIP3    H266617   6.834   1.477   5.794  0.7604 -0.2698  0.5544
15068TIP3   OH266618   5.784   3.716  15.922 -0.3000 -0.6046  0.2116
15068TIP3    H166619   5.866   3.668  15.938 -1.2825 -2.0743  1.1583
15068TIP3    H266620   5.716   3.649  15.931 -1.7107  0.8616  0.9156
15069TIP3   OH266621   5.478   3.783  17.018 -0.1442  0.1411 -0.7330
15069TIP3    H166622   5.533   3.846  17.065 -3.2149  1.4717  1.4486
15069TIP3    H266623   5.446   3.832  16.942  0.5939 -0.2027 -1.2813
15070TIP3   OH266624   2.642   5.884  13.388 -0.2390 -0.6081  0.2463
15070TIP3    H166625   2.554   5.921  13.381  0.2422  0.4764 -0.2503
15070TIP3    H266626   2.675   5.881  13.298  0.5995 -0.0724  0.5209
15071TIP3   OH266627   6.465   5.915  12.700 -0.3017 -0.2444 -0.0687
15071TIP3    H166628   6.465   6.000  12.744 -1.0613  0.3446 -1.1578
15071TIP3    H266629   6.429   5.854  12.764 -0.8463  0.4777  0.3169
15072TIP3   OH266630   4.146   3.877   5.511 -0.2093 -0.1156  0.1078
15072TIP3    H166631   4.169   3.787   5.490 -1.8793 -0.9529  1.6079
15072TIP3    H266632   4.124   3.876   5.604 -2.3680  1.3623 -0.2991
15073TIP3   OH266633   6.742   4.282   5.668 -0.0466  0.5113 -0.3576
15073TIP3    H166634   6.700   4.243   5.592  0.4901 -0.0935 -0.3506
15073TIP3    H266635   6.727   4.376   5.658 -1.8362  0.2933 -0.0776
15074TIP3   OH266636   3.078   1.768   3.631  0.5678  0.6766  0.7645
15074TIP3    H166637   3.081   1.683   3.586 -0.8324  1.0016 -0.0023
15074TIP3    H266638   2.990   1.771   3.670  0.0413  2.3622 -0.4501
15075TIP3   OH266639   3.482   5.555  16.755 -0.0537  0.4622 -0.8785
15075TIP3    H166640   3.499   5.573  16.847 -2.0069  1.1251 -0.6077
15075TIP3    H266641   3.511   5.634  16.709  3.9486 -1.0134 -1.3365
15076TIP3   OH266642   4.443   5.551  16.525 -0.3861  0.2065  1.0717
15076TIP3    H166643   4.452   5.639  16.488 -2.3365 -0.1106 -0.2896
15076TIP3    H266644   4.453   5.492  16.450 -0.0496 -0.7031  1.8050
15077TIP3   OH266645   2.954   1.877  13.924 -0.1176  0.1855 -0.0283
15077TIP3    H166646   2.926   1.786  13.927  1.2967 -0.2437  0.9314
15077TIP3    H266647   2.895   1.918  13.860 -0.3887 -1.5090 -0.9158
15078TIP3   OH266648   0.344   4.462   4.180  0.5066  0.1846  0.6317
15078TIP3    H166649   0.431   4.463   4.140  0.8942 -1.4066  1.3463
15078TIP3    H266650   0.307   4.377   4.155 -0.7674  0.7371  0.5348
15079TIP3   OH266651   3.767   2.891  12.021 -0.7447  0.3262  0.2682
15079TIP3    H166652   3.776   2.822  11.955  1.3346 -0.6678  1.4871
15079TIP3    H266653   3.814   2.966  11.983  0.6564 -0.3164  0.6467
15080TIP3   OH266654   1.647   1.251  16.243  0.0179 -0.1952 -0.0907
15080TIP3    H166655   1.661   1.335  16.198 -1.2810 -0.2965 -0.7235
15080TIP3    H266656   1.713   1.250  16.313  1.9313  0.0799 -1.8059
15081TIP3   OH266657   1.399   1.818   5.885 -0.0006 -0.2815 -0.3449
15081TIP3    H166658   1.456   1.842   5.812 -0.1342 -0.0679 -0.3801
15081TIP3    H266659   1.452   1.757   5.938 -0.6264 -2.1325 -1.7323
15082TIP3   OH266660   5.274   5.607  11.817 -0.3395 -0.2333  0.0832
15082TIP3    H166661   5.272   5.552  11.738  3.6174 -0.8037  0.1948
15082TIP3    H266662   5.236   5.552  11.885 -1.8937 -0.5104 -0.9452
15083TIP3   OH266663   0.114   3.189   0.327  0.3245 -0.1057  0.0036
15083TIP3    H166664   0.101   3.118   0.390 -0.1244 -0.0820 -0.0583
15083TIP3    H266665   0.036   3.186   0.271  2.1667 -2.2502 -2.6565
15084TIP3   OH266666   1.743   2.454   2.066 -0.0273 -0.1568  0.0643
15084TIP3    H166667   1.782   2.421   1.984  2.0310 -1.7421  1.5462
15084TIP3    H266668   1.761   2.548   2.065 -0.4577 -0.0586 -1.4877
15085TIP3   OH266669   2.359   0.502  16.555 -0.0012  0.0003  0.0994
15085TIP3    H166670   2.304   0.465  16.486 -0.8652  0.2191  0.6569
15085TIP3    H266671   2.447   0.506  16.517 -0.5566  0.5959 -1.1633
15086TIP3   OH266672   6.117   3.666  13.330 -0.0368 -0.2804  0.5054
15086TIP3    H166673   6.187   3.696  13.272 -1.2330 -1.5669 -1.7400
15086TIP3    H266674   6.157   3.664  13.417  2.5018 -0.2988 -0.5762
15087TIP3   OH266675   4.364   0.125   3.971  0.1769 -0.4304 -0.0673
15087TIP3    H166676   4.274   0.156   3.968  0.1614 -0.4832 -0.1357
15087TIP3    H266677   4.415   0.196   3.931  0.3962  0.4348  1.6290
15088TIP3   OH266678   1.400   6.664   4.533 -0.0804  0.6614  0.2396
15088TIP3    H166679   1.464   6.724   4.571 -0.3999  0.2457  1.4975
15088TIP3    H266680   1.448   6.617   4.464  1.1337 -0.0069  1.4880
15089TIP3   OH266681   1.119   2.251   5.490  0.3453 -0.1323  0.5808
15089TIP3    H166682   1.117   2.289   5.579  1.0642  0.6337  0.2814
15089TIP3    H266683   1.178   2.308   5.441  1.4805 -1.6602  0.1001
15090TIP3   OH266684   3.774   2.997   3.674 -0.6546  0.5680  0.1032
15090TIP3    H166685   3.703   2.934   3.666 -1.3842  1.4348 -0.4324
15090TIP3    H266686   3.734   3.081   3.654  0.6950  0.9816 -1.0477
15091TIP3   OH266687   6.297   3.196   1.788 -0.4564  0.2467 -0.1700
15091TIP3    H166688   6.310   3.264   1.854  1.5179  0.5417 -0.7785
15091TIP3    H266689   6.325   3.115   1.831 -2.3821 -0.1607  0.4069
15092TIP3   OH266690   6.754   6.286   2.279  0.1567  0.3317 -0.3122
15092TIP3    H166691   6.759   6.296   2.374  0.4774 -0.4875 -0.2358
15092TIP3    H266692   6.781   6.196   2.263  2.2344  1.0819 -1.3614
15093TIP3   OH266693   0.872   0.435   0.405  0.1108  0.1219  0.5021
15093TIP3    H166694   0.853   0.342   0.393  0.3311 -0.0260  1.2582
15093TIP3    H266695   0.941   0.437   0.472  1.8697  0.6952 -1.2113
15094TIP3   OH266696   0.193   1.761  15.072  0.3016  0.0151 -0.5306
15094TIP3    H166697   0.168   1.828  15.008  0.9609  0.0659 -0.7450
15094TIP3    H266698   0.233   1.811  15.144 -0.4208 -0.0441 -0.0874
15095TIP3   OH266699   1.671   0.135   3.490 -0.3529 -0.3429  0.8525
15095TIP3    H166700   1.600   0.121   3.426  0.9541 -2.6918 -0.2509
15095TIP3    H266701   1.723   0.206   3.453 -0.0415 -1.1691 -0.3985
15096TIP3   OH266702   5.468   3.974  12.700 -0.0551  0.1127  0.4624
15096TIP3    H166703   5.430   3.887  12.712 -1.1557  0.5615  0.3333
15096TIP3    H266704   5.472   4.010  12.789  0.7828 -0.2037  0.5688
15097TIP3   OH266705   2.311   2.552   0.473 -0.3133 -0.9097  0.3196
15097TIP3    H166706   2.304   2.540   0.568  1.5811 -1.3752  0.4507
15097TIP3    H266707   2.363   2.478   0.443 -1.2386 -1.0022 -1.1713
15098TIP3   OH266708   3.059   3.707  16.885 -0.7401  0.4337  0.1859
15098TIP3    H166709   2.995   3.698  16.955  0.0580 -1.4275  0.7493
15098TIP3    H266710   3.103   3.790  16.903 -2.9192  1.7614 -0.2168
15099TIP3   OH266711   3.013   5.808  15.284  0.1500  0.1286  0.2243
15099TIP3    H166712   3.005   5.891  15.238 -1.3898 -0.3931 -0.5407
15099TIP3    H266713   2.953   5.816  15.358 -0.9741 -0.7257 -0.5652
15100TIP3   OH266714   5.814   4.131   1.624  0.2730 -0.4493 -0.0414
15100TIP3    H166715   5.778   4.053   1.665  0.1958 -1.3677 -1.7374
15100TIP3    H266716   5.893   4.099   1.579 -1.0385 -0.1597 -2.7943
15101TIP3   OH266717   0.791   6.529  16.666  0.3164  0.5892  0.2702
15101TIP3    H166718   0.789   6.436  16.641  0.6818  0.9122 -1.0411
15101TIP3    H266719   0.876   6.560  16.636  0.3179  1.2814  0.9693
15102TIP3   OH266720   1.103   5.457   5.871 -0.5058  0.1748 -0.0171
15102TIP3    H166721   1.080   5.502   5.789 -0.0198 -2.0854 -1.4880
15102TIP3    H266722   1.055   5.505   5.938 -2.0111  1.3213 -1.7937
15103TIP3   OH266723   4.717   0.363   0.868 -0.2882  0.1492  0.1224
15103TIP3    H166724   4.749   0.386   0.781 -1.7463  1.8234 -0.0337
15103TIP3    H266725   4.671   0.280   0.856  1.6931 -0.9518 -0.1473
15104TIP3   OH266726   4.141   5.623   5.304 -0.7741 -0.2346 -0.2409
15104TIP3    H166727   4.179   5.620   5.392  1.2956 -1.0323 -1.0991
15104TIP3    H266728   4.071   5.557   5.306 -1.5776  0.5972  1.1101
15105TIP3   OH266729   5.564   6.283  14.667 -1.4023 -0.2950 -0.3979
15105TIP3    H166730   5.647   6.309  14.629 -1.9644 -2.1263 -3.1294
15105TIP3    H266731   5.583   6.203  14.716 -1.1245  0.7811  1.3451
15106TIP3   OH266732   6.677   0.845   3.715 -0.4761  0.0154  0.9032
15106TIP3    H166733   6.754   0.790   3.700 -0.4180 -0.0801  1.5163
15106TIP3    H266734   6.711   0.934   3.722 -0.7599  0.4399 -1.9840
15107TIP3   OH266735   3.655   2.375   6.233 -0.5321 -0.1113 -0.1664
15107TIP3    H166736   3.611   2.316   6.172 -1.7462  0.7279 -0.1420
15107TIP3    H266737   3.592   2.446   6.247  0.7246  0.9805  0.1207
15108TIP3   OH266738   0.923   4.278   1.671 -0.1926  0.1318 -0.1934
15108TIP3    H166739   0.898   4.197   1.627  0.2348 -0.4257  0.5659
15108TIP3    H266740   0.917   4.345   1.603  2.0532 -0.9516 -1.5570
15109TIP3   OH266741   1.497   3.062   5.625 -0.4123  0.5789  0.6097
15109TIP3    H166742   1.539   2.982   5.655 -0.1365  0.2776 -0.5428
15109TIP3    H266743   1.568   3.125   5.616 -0.2322  0.2090 -0.8758
15110TIP3   OH266744   3.129   1.004  15.347 -0.5275 -0.6356  0.5269
15110TIP3    H166745   3.205   1.051  15.312 -0.5693 -0.0713  1.1717
15110TIP3    H266746   3.099   1.058  15.420 -1.1013 -1.2378  0.7470
15111TIP3   OH266747   5.893   4.799  13.008  0.2598 -0.3126  0.0706
15111TIP3    H166748   5.951   4.785  12.932 -0.3012  1.2283 -0.6900
15111TIP3    H266749   5.934   4.751  13.079  2.9991  1.3889 -0.2096
15112TIP3   OH266750   3.831   1.900   2.419  0.2482  0.0183 -0.2180
15112TIP3    H166751   3.809   1.810   2.394 -0.2653 -0.1587  0.8098
15112TIP3    H266752   3.829   1.899   2.515 -1.9329  1.6185 -0.1712
15113TIP3   OH266753   4.638   5.144  12.258 -0.6998  0.3773 -0.2671
15113TIP3    H166754   4.581   5.079  12.300 -0.1176 -0.0219 -0.0705
15113TIP3    H266755   4.655   5.108  12.171  0.7664 -0.4761  0.3275
15114TIP3   OH266756   5.325   5.616  12.875 -0.0060 -0.2202  0.2175
15114TIP3    H166757   5.257   5.595  12.811  0.8666 -0.6636 -0.5923
15114TIP3    H266758   5.321   5.544  12.939 -0.3815 -0.1755  0.2429
15115TIP3   OH266759   3.319   5.639   2.868  0.4493 -0.2150 -0.6356
15115TIP3    H166760   3.351   5.711   2.815  0.8069 -1.4172 -2.1323
15115TIP3    H266761   3.225   5.657   2.879  0.5412  0.4861 -0.9418
15116TIP3   OH266762   0.507   4.050   5.503  0.1209  0.0410 -0.1290
15116TIP3    H166763   0.440   4.089   5.559  0.2716 -0.3718  0.3482
15116TIP3    H266764   0.479   4.071   5.414  0.6759  2.0475  0.0995
15117TIP3   OH266765   4.017   4.424   4.168 -0.0907 -0.0849  1.1446
15117TIP3    H166766   3.983   4.340   4.198 -0.1486  0.4399  2.6439
15117TIP3    H266767   4.103   4.404   4.131 -0.8330 -1.0289 -0.1607
15118TIP3   OH266768   4.785   4.124   5.253  0.2649  0.4546 -0.5030
15118TIP3    H166769   4.833   4.199   5.218  0.1519  0.1135 -1.4395
15118TIP3    H266770   4.714   4.162   5.304  1.6298  0.9699  1.0834
15119TIP3   OH266771   3.852   5.565   5.281 -0.2867 -0.4291 -0.0767
15119TIP3    H166772   3.829   5.657   5.297 -0.7721 -0.1867 -1.9503
15119TIP3    H266773   3.801   5.516   5.346 -2.1003  0.4753 -0.7444
15120TIP3   OH266774   1.790   5.688  14.197 -0.1458  0.4507 -0.0673
15120TIP3    H166775   1.719   5.719  14.140  0.0127 -0.4534 -0.7757
15120TIP3    H266776   1.868   5.688  14.141  0.6597  2.4051  0.9768
15121TIP3   OH266777   6.773   5.284  12.637  0.2586 -0.0434  0.3611
15121TIP3    H166778   6.771   5.194  12.604 -1.6422 -0.9510  2.6363
15121TIP3    H266779   6.779   5.338  12.558 -0.4270 -2.1026 -1.2093
15122TIP3   OH266780   1.277   1.476  15.298  0.9483 -0.7072 -0.0873
15122TIP3    H166781   1.199   1.527  15.320 -0.1463 -2.0769 -0.6568
15122TIP3    H266782   1.307   1.513  15.214  0.6602 -0.4534 -0.0793
15123TIP3   OH266783   2.561   5.609  15.465 -0.2668  0.0386  0.2730
15123TIP3    H166784   2.604   5.591  15.548 -1.8339 -1.7538  0.7598
15123TIP3    H266785   2.592   5.540  15.406  1.2074  1.5643 -0.8484
15124TIP3   OH266786   0.375   1.532  11.513 -0.5099 -0.6292 -0.2750
15124TIP3    H166787   0.304   1.496  11.567 -0.7013 -1.4196 -1.0488
15124TIP3    H266788   0.373   1.626  11.531 -0.2790 -0.9070  1.4452
15125TIP3   OH266789   3.021   0.724   1.812  0.0996  0.4065 -0.5104
15125TIP3    H166790   3.054   0.651   1.760 -1.2647 -0.1634 -0.6279
15125TIP3    H266791   3.060   0.713   1.898 -1.7209 -1.7451  0.1234
15126TIP3   OH266792   5.202   0.974  13.387 -0.7079  0.4504 -0.3978
15126TIP3    H166793   5.203   0.886  13.350 -0.6206 -0.1341  0.9319
15126TIP3    H266794   5.113   1.006  13.369 -0.4936  0.4162 -1.5787
15127TIP3   OH266795   2.243   6.367   1.753  0.3175  0.1101  0.2493
15127TIP3    H166796   2.330   6.401   1.734 -0.6375  1.0619 -3.1196
15127TIP3    H266797   2.186   6.444   1.751 -0.8879 -0.7518  0.1922
15128TIP3   OH266798   2.573   6.354  15.355  0.2626 -0.1257 -0.3925
15128TIP3    H166799   2.646   6.319  15.405  1.1283  0.9409 -0.8676
15128TIP3    H266800   2.507   6.376  15.421  0.4076 -0.9643  0.0463
15129TIP3   OH266801   3.772   6.591  12.729  0.4407  0.0561 -0.0346
15129TIP3    H166802   3.686   6.590  12.771  0.1742 -0.4106 -0.5824
15129TIP3    H266803   3.801   6.682  12.735  0.5318 -0.0348  1.4003
15130TIP3   OH266804   1.474   1.037  15.897 -0.2826 -0.4406 -0.0008
15130TIP3    H166805   1.412   0.974  15.859 -1.0191  0.3624 -0.1700
15130TIP3    H266806   1.548   0.983  15.926 -0.6601 -1.3215 -0.6070
15131TIP3   OH266807   3.413   2.444  14.178  0.5593  0.1373 -0.1595
15131TIP3    H166808   3.428   2.481  14.265  1.7636 -0.5231 -0.0718
15131TIP3    H266809   3.484   2.479  14.124  0.2671 -0.0771 -0.6912
15132TIP3   OH266810   6.533   0.007   1.766 -0.1084  0.3526  0.3997
15132TIP3    H166811   6.449   0.046   1.790 -0.5320 -0.6613  0.6227
15132TIP3    H266812   6.591   0.028   1.838 -0.4009  0.3527  0.6363
15133TIP3   OH266813   3.266   1.807   2.801 -0.1080  0.3324  0.3640
15133TIP3    H166814   3.231   1.744   2.864  1.0981 -0.1240  0.5998
15133TIP3    H266815   3.294   1.881   2.855 -0.2372  0.4840  0.2255
15134TIP3   OH266816   5.642   4.568   1.182 -0.3490  0.3417  0.4932
15134TIP3    H166817   5.689   4.593   1.261  1.2555  1.1064 -0.6412
15134TIP3    H266818   5.558   4.613   1.189 -0.8952 -0.8554  2.4523
15135TIP3   OH266819   3.982   2.942   5.447  0.1183 -0.2598 -0.0319
15135TIP3    H166820   4.023   3.006   5.388  3.8997 -2.2899  0.0896
15135TIP3    H266821   4.002   2.973   5.535 -1.0512  0.0920  0.1343
15136TIP3   OH266822   3.774   5.162   5.178  0.7521 -0.6643  0.1215
15136TIP3    H166823   3.869   5.167   5.187  0.7359 -1.4815  0.8914
15136TIP3    H266824   3.749   5.084   5.227 -0.1885 -1.1945 -1.1531
15137TIP3   OH266825   5.699   6.569  15.034 -0.4423 -0.3877  0.8160
15137TIP3    H166826   5.714   6.584  15.127 -0.2420 -0.1366  0.7470
15137TIP3    H266827   5.682   6.657  14.999  1.4176 -0.1839  0.2770
15138TIP3   OH266828   2.515   0.217  14.942 -0.1475  0.0912 -0.0483
15138TIP3    H166829   2.556   0.133  14.922 -0.1751 -0.3921  1.7786
15138TIP3    H266830   2.425   0.208  14.909  0.2343 -0.0700 -1.0840
15139TIP3   OH266831   4.832   4.039  11.596 -0.6396 -0.1997 -0.2944
15139TIP3    H166832   4.756   4.092  11.619 -1.4213 -0.9251 -1.0901
15139TIP3    H266833   4.827   3.963  11.654 -0.6388 -0.3498 -0.4900
15140TIP3   OH266834   5.264   5.302  12.809  0.0352 -0.3139 -0.1688
15140TIP3    H166835   5.250   5.352  12.889 -0.1949  0.5307 -0.7249
15140TIP3    H266836   5.182   5.309  12.761 -0.1421 -1.5643 -0.0878
15141TIP3   OH266837   3.929   3.859  16.096  0.3331  0.3547  0.3933
15141TIP3    H166838   3.893   3.771  16.108  1.4464 -0.0671  0.8552
15141TIP3    H266839   3.896   3.909  16.171 -0.9491  0.5666 -0.2950
15142TIP3   OH266840   6.176   5.757   4.659 -0.6027 -0.4786  0.3495
15142TIP3    H166841   6.136   5.683   4.705 -0.4403 -0.2178  0.9175
15142TIP3    H266842   6.147   5.747   4.568  2.3100 -3.3448 -0.4819
15143TIP3   OH266843   2.163   5.128   0.704  0.4445  0.0633  0.2180
15143TIP3    H166844   2.122   5.174   0.631  0.5963 -0.2720 -0.0821
15143TIP3    H266845   2.114   5.156   0.781 -2.1132 -2.3189 -0.4039
15144TIP3   OH266846   3.012   1.762  15.241  0.3016 -0.0481  0.2107
15144TIP3    H166847   3.005   1.798  15.329  0.9893 -0.7823  0.5910
15144TIP3    H266848   2.927   1.721  15.224 -0.1630  0.9267  0.1392
15145TIP3   OH266849   2.643   0.034  17.165  0.1795  0.0094  0.1569
15145TIP3    H166850   2.679   0.083  17.091 -0.9975  0.4129 -0.1719
15145TIP3    H266851   2.617   0.102  17.228 -0.3319 -0.2583  0.2345
15146TIP3   OH266852   0.688   4.792  13.574 -0.0321 -0.1500  0.3723
15146TIP3    H166853   0.761   4.731  13.583  0.4324  0.5305  1.3781
15146TIP3    H266854   0.673   4.797  13.479  1.2923 -0.2317  0.1381
15147TIP3   OH266855   6.305   3.604  14.682  0.2024 -0.4867 -0.3648
15147TIP3    H166856   6.252   3.684  14.676  0.6559 -0.2679 -2.1012
15147TIP3    H266857   6.366   3.611  14.608  1.2924 -1.7055  0.3899
15148TIP3   OH266858   4.419   3.893   0.538 -0.2873 -0.1149 -0.1402
15148TIP3    H166859   4.326   3.874   0.550 -0.2868 -0.0928 -0.1031
15148TIP3    H266860   4.453   3.905   0.627 -0.3552  0.3956 -0.1854
15149TIP3   OH266861   1.435   5.622  16.417  0.0426 -0.1050  0.7338
15149TIP3    H166862   1.345   5.651  16.403  0.0255 -0.2742  0.4786
15149TIP3    H266863   1.485   5.703  16.426  0.0610  0.0242 -0.3915
15150TIP3   OH266864   5.442   5.108  12.907  0.0347  0.1120 -0.4863
15150TIP3    H166865   5.394   5.180  12.868  2.0044  0.8936 -1.6238
15150TIP3    H266866   5.443   5.128  13.001 -0.6749  0.7928 -0.6202
15151TIP3   OH266867   2.571   5.992   5.212  0.1052 -0.3237  0.3372
15151TIP3    H166868   2.666   5.978   5.218  0.0338 -0.5513  1.0226
15151TIP3    H266869   2.540   5.917   5.160  0.7496  1.7471 -3.4109
15152TIP3   OH266870   5.850   5.232  16.184  0.3351 -0.5325  0.3189
15152TIP3    H166871   5.841   5.299  16.115  1.7863 -2.3183 -1.7267
15152TIP3    H266872   5.920   5.265  16.240 -0.5714  0.7399  0.7743
15153TIP3   OH266873   2.898   4.919  13.706 -0.6292 -0.0148  0.8535
15153TIP3    H166874   2.910   4.830  13.672 -1.4371  0.5599 -1.1463
15153TIP3    H266875   2.854   4.966  13.634  0.3523  2.1790  1.5872
15154TIP3   OH266876   0.889   1.532   3.361 -0.4175 -0.0698 -0.0931
15154TIP3    H166877   0.953   1.602   3.347 -0.6883 -0.2815 -2.8017
15154TIP3    H266878   0.909   1.466   3.295 -2.0264 -1.2016  0.4718
15155TIP3   OH266879   6.071   1.978   2.359 -0.3845 -0.0249 -0.2886
15155TIP3    H166880   6.137   1.943   2.419 -1.0977  0.1701  0.6337
15155TIP3    H266881   6.121   2.014   2.286  0.4278 -2.1175 -0.8360
15156TIP3   OH266882   3.467   0.919  11.920  0.4150  0.1469  0.1664
15156TIP3    H166883   3.495   1.002  11.881 -0.2169  0.2897  0.0082
15156TIP3    H266884   3.496   0.925  12.011  1.2436  0.1228 -0.0904
15157TIP3   OH266885   5.688   5.780  11.178 -0.0463  0.1359 -0.3034
15157TIP3    H166886   5.688   5.833  11.258 -2.5913  1.7944 -1.2663
15157TIP3    H266887   5.631   5.706  11.198  0.6411 -0.3371 -0.0792
15158TIP3   OH266888   4.154   3.689   4.971  0.6284  0.5149  0.3853
15158TIP3    H166889   4.185   3.730   5.051  0.8258 -1.1466  1.2020
15158TIP3    H266890   4.079   3.743   4.944 -0.6032  0.1093  2.7065
15159TIP3   OH266891   4.815   6.520  11.400  0.4580  0.3580  0.3676
15159TIP3    H166892   4.825   6.469  11.320 -1.8070 -1.0907  0.9196
15159TIP3    H266893   4.730   6.564  11.390  0.8638  1.4023  1.3112
15160TIP3   OH266894   1.653   5.489   2.623  0.3507 -0.6847 -0.0346
15160TIP3    H166895   1.699   5.465   2.704  0.8256  0.9781  0.2247
15160TIP3    H266896   1.591   5.418   2.609 -0.1832 -0.7162  2.1392
15161TIP3   OH266897   2.435   4.616   5.980 -0.4675 -0.1517 -0.6909
15161TIP3    H166898   2.406   4.534   5.940  0.8798 -1.3444  0.6452
15161TIP3    H266899   2.385   4.623   6.061 -0.2645  0.1173 -0.5856
15162TIP3   OH266900   4.266   4.153   2.435  0.0993 -0.2695  0.5650
15162TIP3    H166901   4.321   4.118   2.505  0.7800 -0.8899 -0.2407
15162TIP3    H266902   4.329   4.180   2.368 -0.5618 -0.6017 -0.2016
15163TIP3   OH266903   1.954   5.905   1.448  0.5349 -0.3665 -0.9779
15163TIP3    H166904   1.982   5.823   1.489  2.2741  0.2182 -0.9215
15163TIP3    H266905   2.005   5.911   1.367  1.2933  1.1641 -0.4408
15164TIP3   OH266906   4.983   4.133  12.158  0.4328  0.3215 -0.0159
15164TIP3    H166907   5.060   4.077  12.173  0.8451  0.1797 -2.3227
15164TIP3    H266908   5.011   4.194  12.089 -1.6436 -0.0246 -1.2322
15165TIP3   OH266909   1.515   4.466  16.622 -0.1137 -0.2307  0.0875
15165TIP3    H166910   1.471   4.391  16.583 -0.0047 -0.9097  1.2247
15165TIP3    H266911   1.525   4.443  16.715  0.7373  0.7977  0.2784
15166TIP3   OH266912   4.227   5.425  12.534 -0.0502 -0.4861 -0.4549
15166TIP3    H166913   4.300   5.364  12.536 -1.4313 -2.2633 -1.1690
15166TIP3    H266914   4.217   5.447  12.441  0.0418  0.3333 -0.2725
15167TIP3   OH266915   4.533   0.746  12.109 -0.1941 -0.0642  0.2622
15167TIP3    H166916   4.534   0.835  12.075  0.2595  0.7549  2.3095
15167TIP3    H266917   4.604   0.743  12.173 -1.0106 -1.4886  1.1672
15168TIP3   OH266918   4.967   3.562   6.252 -0.2991 -0.4314  0.9090
15168TIP3    H166919   4.938   3.500   6.319 -1.1161  0.0998  1.0557
15168TIP3    H266920   4.992   3.641   6.301 -0.6398 -0.1359  0.6102
15169TIP3   OH266921   5.422   3.344  11.415 -0.4133 -0.3502 -0.3126
15169TIP3    H166922   5.505   3.324  11.458 -0.3650  1.0482  0.2805
15169TIP3    H266923   5.357   3.292  11.463 -0.2545  0.6293  1.0134
15170TIP3   OH266924   0.463   3.200   2.757  0.4446  0.6689 -0.1996
15170TIP3    H166925   0.475   3.268   2.823 -0.6602  0.7269 -0.0304
15170TIP3    H266926   0.521   3.129   2.784  2.1809  1.8078 -0.7847
15171TIP3   OH266927   2.525   1.238  15.467  0.2559  0.3133  0.7400
15171TIP3    H166928   2.506   1.331  15.465  2.4162  0.7755 -0.8832
15171TIP3    H266929   2.446   1.197  15.429 -1.0295  1.3463  2.1676
15172TIP3   OH266930   5.897   6.137  16.675 -0.1381 -0.0239  0.2082
15172TIP3    H166931   5.871   6.108  16.588 -0.0843  0.6020 -0.0259
15172TIP3    H266932   5.992   6.144  16.670 -0.0401 -0.8979  0.6138
15173TIP3   OH266933   4.410   1.263   4.291 -0.0380 -0.2078  0.4332
15173TIP3    H166934   4.366   1.237   4.372 -1.5077 -0.1588 -0.3237
15173TIP3    H266935   4.340   1.297   4.235  1.0970  0.6738 -0.5015
15174TIP3   OH266936   4.781   3.723  15.879  0.2690 -0.5125 -0.0347
15174TIP3    H166937   4.757   3.671  15.803  2.0415  0.4632 -1.3534
15174TIP3    H266938   4.861   3.682  15.912  1.3568  0.9167 -0.7421
15175TIP3   OH266939   2.320   0.369   0.795 -0.4203 -0.1878  0.0428
15175TIP3    H166940   2.320   0.450   0.744 -0.5808 -0.1216  0.1449
15175TIP3    H266941   2.399   0.323   0.769 -0.5209 -0.1716 -0.2934
15176TIP3   OH266942   3.587   1.316  11.543  0.4088  0.2630  0.0082
15176TIP3    H166943   3.663   1.279  11.588  0.2392  0.3720  0.3841
15176TIP3    H266944   3.600   1.291  11.451  0.9771  0.4168  0.0432
15177TIP3   OH266945   3.798   3.105  17.179 -0.1847  0.0308  0.1785
15177TIP3    H166946   3.782   3.011  17.188  1.4807 -0.2493  0.6870
15177TIP3    H266947   3.765   3.143  17.261 -0.6180 -0.1416  0.0844
15178TIP3   OH266948   4.016   6.688  13.980  0.0785  0.5082 -0.4906
15178TIP3    H166949   4.036   6.596  13.997 -0.6811  0.6755  1.5879
15178TIP3    H266950   3.923   6.697  14.002 -0.3858  1.3819 -2.5502
15179TIP3   OH266951   6.388   0.434   3.095 -0.1695 -0.3508  0.2455
15179TIP3    H166952   6.359   0.362   3.039  1.0484 -0.3671 -0.3777
15179TIP3    H266953   6.477   0.410   3.121  0.9347  1.7009 -1.3550
15180TIP3   OH266954   4.962   1.718   4.939  0.6894  0.3939  0.1702
15180TIP3    H166955   4.986   1.656   4.869  0.6689  1.8773 -1.2034
15180TIP3    H266956   5.045   1.754   4.970  0.5868  2.3129 -1.5738
15181TIP3   OH266957   1.372   1.873  11.247 -0.9336 -0.3138 -0.0115
15181TIP3    H166958   1.422   1.878  11.166 -0.2373 -0.3405  0.4034
15181TIP3    H266959   1.436   1.846  11.313 -1.9120 -2.3753  0.1788
15182TIP3   OH266960   1.557   0.903  12.226 -0.4745 -0.3342  0.5081
15182TIP3    H166961   1.576   0.878  12.316  1.8282  0.5347  0.3286
15182TIP3    H266962   1.558   0.999  12.226 -1.6229 -0.2963 -0.2440
15183TIP3   OH266963   6.099   4.346  13.623 -0.0721 -0.1142  0.2577
15183TIP3    H166964   6.148   4.266  13.641  0.4576  0.5379  1.8567
15183TIP3    H266965   6.034   4.351  13.694 -1.6394 -0.2821 -1.0923
15184TIP3   OH266966   4.659   3.895   3.390 -0.3915  0.3356  0.2517
15184TIP3    H166967   4.629   3.804   3.397  1.0352 -0.5109 -2.7881
15184TIP3    H266968   4.743   3.895   3.436 -0.8178  0.4074  1.0605
15185TIP3   OH266969   0.772   4.003   0.307 -0.3217  0.5216 -0.1752
15185TIP3    H166970   0.693   3.950   0.322 -0.2317  0.8076  1.5092
15185TIP3    H266971   0.806   3.971   0.223 -0.3478 -2.0172  0.6739
15186TIP3   OH266972   0.478   1.618  16.724 -0.6868 -0.0568  0.1372
15186TIP3    H166973   0.400   1.575  16.686 -1.0240 -0.6433  1.4447
15186TIP3    H266974   0.449   1.648  16.810  0.1608  0.9479  0.0785
15187TIP3   OH266975   6.518   4.666  11.619  0.0617  0.3250 -0.0244
15187TIP3    H166976   6.532   4.587  11.671  0.1779  0.7329  0.5691
15187TIP3    H266977   6.566   4.650  11.538 -2.4992 -1.5672 -1.3294
15188TIP3   OH266978   6.772   6.656   0.245 -0.6753 -0.2051 -0.0044
15188TIP3    H166979   6.751   6.662   0.338 -0.1319  0.0580  0.1070
15188TIP3    H266980   6.747   6.741   0.209 -0.8466 -0.2921 -0.0937
15189TIP3   OH266981   0.778   3.333  15.243 -0.1906 -0.3461  0.9547
15189TIP3    H166982   0.828   3.252  15.256  0.8721  0.2519  0.6215
15189TIP3    H266983   0.840   3.403  15.261 -0.6926  0.4174 -0.1953
15190TIP3   OH266984   2.180   5.958  14.202 -0.0493  0.1016 -0.2361
15190TIP3    H166985   2.269   5.990  14.212 -0.3760  0.7559  0.7909
15190TIP3    H266986   2.179   5.876  14.251 -0.0538  0.1874 -0.0916
15191TIP3   OH266987   6.568   2.705  15.912  0.1582  0.2414  0.1920
15191TIP3    H166988   6.624   2.722  15.837 -0.6574  0.8712 -0.2889
15191TIP3    H266989   6.572   2.610  15.924 -1.1888 -0.1451 -1.8653
15192TIP3   OH266990   4.168   3.773   0.610  0.2502  0.0584  0.4548
15192TIP3    H166991   4.223   3.711   0.659 -0.6703 -1.5910 -0.4852
15192TIP3    H266992   4.081   3.764   0.651  0.2284  1.2344  0.7076
15193TIP3   OH266993   1.676   2.237  11.348 -0.2835 -0.0079  0.1807
15193TIP3    H166994   1.669   2.299  11.275  1.6491  1.0300  0.8028
15193TIP3    H266995   1.656   2.289  11.426  2.9912  0.4313  0.8912
15194TIP3   OH266996   4.441   4.723   0.582 -0.1269 -0.1176 -0.3849
15194TIP3    H166997   4.452   4.740   0.676  0.0088  1.0599 -0.5961
15194TIP3    H266998   4.420   4.630   0.577  0.6388 -0.3834  0.7554
15195TIP3   OH266999   5.211   3.661  11.514 -0.5046  0.1105  0.9883
15195TIP3    H167000   5.297   3.636  11.481  0.3140 -1.3167  3.8950
15195TIP3    H267001   5.158   3.582  11.506 -0.7703  0.2265  1.5549
15196TIP3   OH267002   3.665   5.597  15.027 -0.3119  0.7105 -0.2449
15196TIP3    H167003   3.720   5.590  14.949  1.7479 -0.4325  1.2292
15196TIP3    H267004   3.702   5.534  15.089 -1.0478  2.4632  2.1374
15197TIP3   OH267005   3.675   0.139   4.507  0.3256 -0.0088  0.1064
15197TIP3    H167006   3.584   0.119   4.532  0.5147 -1.1176 -0.0260
15197TIP3    H267007   3.676   0.129   4.412  0.1940  1.7524 -0.1098
15198TIP3   OH267008   6.427   4.843   5.702  0.3336 -0.0980 -0.1428
15198TIP3    H167009   6.438   4.938   5.700  0.7526 -0.1446 -0.2614
15198TIP3    H267010   6.402   4.823   5.792 -1.1100  0.2588 -0.4400
15199TIP3   OH267011   0.352   3.167  12.484 -0.6587  0.1890  0.3548
15199TIP3    H167012   0.273   3.185  12.433  0.2451 -0.4695 -1.3813
15199TIP3    H267013   0.323   3.105  12.552 -1.9882  1.4442  0.9799
15200TIP3   OH267014   6.010   0.886  15.420 -0.0113  0.0638  0.1287
15200TIP3    H167015   5.956   0.858  15.346 -1.7595  1.7748  0.6733
15200TIP3    H267016   5.995   0.820  15.487 -0.5927 -0.0507 -0.1065
15201TIP3   OH267017   4.157   1.145  16.284 -0.6260 -0.1901  0.2712
15201TIP3    H167018   4.102   1.218  16.256 -0.8972  0.0619  1.4002
15201TIP3    H267019   4.210   1.182  16.355  0.0056 -0.8112  0.1326
15202TIP3   OH267020   2.399   2.362   4.548 -0.1037 -0.2040 -0.4704
15202TIP3    H167021   2.348   2.442   4.559 -0.2571 -0.1702 -1.4009
15202TIP3    H267022   2.344   2.293   4.585 -1.6450 -0.4542 -3.0169
15203TIP3   OH267023   1.521   3.590  11.013  0.0600 -0.5252  0.3274
15203TIP3    H167024   1.567   3.605  11.095 -0.4734 -0.4787  0.6272
15203TIP3    H267025   1.571   3.523  10.968 -1.4505 -3.0901  2.2059
15204TIP3   OH267026   3.832   2.357   2.097  0.1497 -0.2090 -0.6055
15204TIP3    H167027   3.927   2.366   2.089  0.1590  0.0974 -0.1807
15204TIP3    H267028   3.810   2.284   2.040  0.7411 -0.8121 -0.0793
15205TIP3   OH267029   6.192   1.443   2.538 -0.1144 -0.3336  0.1643
15205TIP3    H167030   6.147   1.361   2.558 -1.1492  0.2029  0.0972
15205TIP3    H267031   6.149   1.475   2.459  1.5215 -0.6378 -0.9143
15206TIP3   OH267032   0.252   6.699  12.151  0.1054  0.4454 -0.2532
15206TIP3    H167033   0.262   6.611  12.115  0.2206  0.6999 -0.8553
15206TIP3    H267034   0.274   6.690  12.244 -0.8550 -0.3575 -0.0816
15207TIP3   OH267035   1.837   3.865  11.462  0.1748 -0.0502  0.1476
15207TIP3    H167036   1.768   3.898  11.404  0.2093  1.6707  1.0440
15207TIP3    H267037   1.842   3.771  11.441 -2.6161 -0.3084  0.2532
15208TIP3   OH267038   4.803   2.650   0.285 -0.1197 -0.1328 -0.4099
15208TIP3    H167039   4.866   2.582   0.264  0.8730  0.4994  0.4685
15208TIP3    H267040   4.793   2.646   0.380 -1.6427 -0.4103 -0.5526
15209TIP3   OH267041   4.740   6.196  10.990 -0.1224 -0.0296  0.2182
15209TIP3    H167042   4.771   6.155  11.070  0.6582  0.0052 -0.0543
15209TIP3    H267043   4.713   6.284  11.016  1.2256  0.3977  0.2622
15210TIP3   OH267044   4.599   2.330  15.361  0.1166  0.1700 -0.2208
15210TIP3    H167045   4.612   2.412  15.312  0.5565 -0.2139 -0.7577
15210TIP3    H267046   4.648   2.265  15.311 -1.2181 -0.6734 -0.4829
15211TIP3   OH267047   4.904   1.704   4.562  0.4765  0.2731  0.3464
15211TIP3    H167048   4.996   1.689   4.581  0.8132 -0.7402 -1.7798
15211TIP3    H267049   4.879   1.776   4.619  1.9342 -0.9359  2.6492
15212TIP3   OH267050   1.570   3.224  10.656  0.2667 -0.2002 -0.2188
15212TIP3    H167051   1.478   3.208  10.634  0.9520 -3.2495 -1.2481
15212TIP3    H267052   1.612   3.139  10.650  2.7763  0.6816  2.4609
15213TIP3   OH267053   1.050   5.734   0.590  0.1007 -0.0438  0.3507
15213TIP3    H167054   1.143   5.710   0.589  0.4800  1.3215 -1.7754
15213TIP3    H267055   1.044   5.804   0.654  1.0467  1.5113 -1.1838
15214TIP3   OH267056   0.552   6.364  14.557  0.0036 -0.0790  0.4518
15214TIP3    H167057   0.494   6.289  14.543  2.3550 -1.6202 -2.1882
15214TIP3    H267058   0.625   6.329  14.607  0.0413  1.0822  1.2463
15215TIP3   OH267059   6.500   0.778   5.117 -0.7517  0.3364  0.3998
15215TIP3    H167060   6.509   0.691   5.156 -0.7696  0.1384 -0.0260
15215TIP3    H267061   6.536   0.838   5.182 -1.0922  0.0492  0.8626
15216TIP3   OH267062   4.414   2.360  13.536  0.1236 -0.4612 -0.0201
15216TIP3    H167063   4.335   2.374  13.483 -0.9836 -0.9443  1.4281
15216TIP3    H267064   4.423   2.440  13.587  0.5171 -0.4540 -0.0965
15217TIP3   OH267065   1.249   0.704  14.466 -0.2256  0.0443 -0.4435
15217TIP3    H167066   1.208   0.721  14.551  1.2724 -0.7798  0.4860
15217TIP3    H267067   1.184   0.655  14.416 -0.1563 -1.9286  1.2816
15218TIP3   OH267068   5.963   2.155   0.673  0.3445  0.1674 -0.0045
15218TIP3    H167069   5.985   2.176   0.582 -0.9753 -0.3140 -0.4604
15218TIP3    H267070   5.868   2.148   0.673  0.2666  0.8299  1.5702
15219TIP3   OH267071   4.411   0.994  15.557 -0.3745 -0.3859 -0.3607
15219TIP3    H167072   4.408   0.902  15.584 -1.2696  0.0170  1.0188
15219TIP3    H267073   4.319   1.022  15.556 -0.4039 -0.2591 -3.6430
15220TIP3   OH267074   5.170   3.573  14.571 -0.5718  0.4331 -0.0736
15220TIP3    H167075   5.228   3.517  14.519  0.4608  0.0158  1.4453
15220TIP3    H267076   5.223   3.650  14.593 -1.1906  0.8930 -0.1404
15221TIP3   OH267077   5.681   3.940  11.168  0.2151 -0.5642 -0.3552
15221TIP3    H167078   5.672   3.865  11.109 -1.9358 -1.0621  0.5429
15221TIP3    H267079   5.672   4.016  11.111 -0.8243 -1.0305 -0.8374
15222TIP3   OH267080   4.862   1.123  14.318 -0.8915 -0.0419 -0.1359
15222TIP3    H167081   4.898   1.202  14.358  1.6009 -0.6253 -1.0397
15222TIP3    H267082   4.812   1.155  14.243  2.1857  0.7433 -2.0671
15223TIP3   OH267083   1.678   4.293  14.457  0.3271 -0.6718  0.0009
15223TIP3    H167084   1.720   4.280  14.371  1.1958  1.7349  0.0077
15223TIP3    H267085   1.678   4.205  14.496 -0.5329 -1.9442 -2.6126
15224TIP3   OH267086   5.163   4.997  12.770 -0.1123  0.3692 -0.0914
15224TIP3    H167087   5.211   5.002  12.852 -0.0290  1.3011 -0.1780
15224TIP3    H267088   5.097   5.067  12.777  0.0178  0.5846 -0.8864
15225TIP3   OH267089   5.395   2.344  14.705  0.2581 -0.3995  0.0325
15225TIP3    H167090   5.393   2.363  14.611 -1.2689 -0.1223  0.1032
15225TIP3    H267091   5.467   2.397  14.738 -1.6665  2.7250 -0.3438
15226TIP3   OH267092   0.575   6.144  13.968  0.2361  0.6866 -0.4023
15226TIP3    H167093   0.660   6.160  14.009 -0.0432  0.0378  0.4809
15226TIP3    H267094   0.591   6.151  13.874  0.4980  4.2177 -0.2308
15227TIP3   OH267095   5.170   3.482  15.728  0.7663 -0.3376 -0.5973
15227TIP3    H167096   5.120   3.539  15.668  0.3603  0.4047  0.4095
15227TIP3    H267097   5.126   3.397  15.722 -0.1128  0.0850 -0.3560
15228TIP3   OH267098   3.418   6.198  12.130  0.2336  0.2556 -0.0557
15228TIP3    H167099   3.508   6.173  12.108 -0.0976 -0.6139 -0.4959
15228TIP3    H267100   3.389   6.250  12.056  0.8953  1.9547  0.8228
15229TIP3   OH267101   3.323   2.573  16.624 -0.1996  0.7460 -0.6924
15229TIP3    H167102   3.401   2.584  16.570 -0.3880  0.5976 -1.0021
15229TIP3    H267103   3.353   2.526  16.702  0.0548  0.8673 -0.7191
15230TIP3   OH267104   1.136   4.881  12.641 -0.2092  0.5121  0.3305
15230TIP3    H167105   1.211   4.922  12.684 -0.6156  0.9566  0.6222
15230TIP3    H267106   1.137   4.791  12.672 -1.5366  1.2402  2.7354
15231TIP3   OH267107   0.158   4.826   3.051 -0.4752 -0.5305 -0.0900
15231TIP3    H167108   0.240   4.866   3.023 -0.9725  0.1740 -0.5785
15231TIP3    H267109   0.135   4.765   2.980 -0.8449 -0.0381 -0.3965
15232TIP3   OH267110   6.346   4.461   2.488 -0.2861  0.1563 -0.3314
15232TIP3    H167111   6.311   4.455   2.577 -1.6994  0.9269 -0.8151
15232TIP3    H267112   6.312   4.384   2.443  1.3429 -0.8465  0.0599
15233TIP3   OH267113   4.080   5.884   5.234  0.1528 -0.4949 -0.1376
15233TIP3    H167114   3.990   5.869   5.207 -0.1926  0.2997  0.5267
15233TIP3    H267115   4.115   5.796   5.249 -0.7143 -0.7939  0.2201
15234TIP3   OH267116   6.331   0.338   3.995  0.1669 -0.0140 -0.5779
15234TIP3    H167117   6.307   0.406   4.058 -0.4460  0.3203 -1.1618
15234TIP3    H267118   6.248   0.295   3.973  0.4896 -0.6720 -0.5385
15235TIP3   OH267119   4.373   6.388  12.255 -1.1036  0.2468  0.6705
15235TIP3    H167120   4.399   6.334  12.181 -2.0954  0.7089 -0.0445
15235TIP3    H267121   4.308   6.335  12.301  0.1655 -0.4176  1.7669
15236TIP3   OH267122   4.750   2.844   0.962 -0.2462  0.0619 -0.2096
15236TIP3    H167123   4.678   2.907   0.959 -0.1073  0.2028 -0.7305
15236TIP3    H267124   4.708   2.762   0.990  0.0254  0.9510  3.1551
15237TIP3   OH267125   3.962   0.103  13.455 -0.2005 -0.5699 -0.2947
15237TIP3    H167126   4.009   0.029  13.416  0.3053 -0.5585  0.2742
15237TIP3    H267127   3.926   0.068  13.537  0.0408 -0.1873 -0.0220
15238TIP3   OH267128   2.394   3.413  13.076 -0.1646  0.0356  0.3293
15238TIP3    H167129   2.302   3.390  13.065 -0.6474  1.9672 -0.0885
15238TIP3    H267130   2.393   3.502  13.111  1.5573 -0.4522  1.8177
15239TIP3   OH267131   2.728   5.874   2.361  0.1841 -0.2359 -0.6682
15239TIP3    H167132   2.667   5.851   2.432  1.2165 -0.7757  0.0688
15239TIP3    H267133   2.752   5.790   2.322  0.9744 -0.0908 -0.5113
15240TIP3   OH267134   2.585   6.680   4.190 -0.5017 -0.4871 -0.1515
15240TIP3    H167135   2.524   6.745   4.225  1.1423  1.3921 -0.5877
15240TIP3    H267136   2.670   6.704   4.227  0.6091 -0.7725 -2.3283
15241TIP3   OH267137   6.773   3.729  11.427  0.5533 -0.5569  0.7096
15241TIP3    H167138   6.695   3.692  11.469 -0.9005  1.4793 -0.0392
15241TIP3    H267139   6.823   3.767  11.499 -1.1843  1.6146  0.8626
15242TIP3   OH267140   3.995   6.747  12.610  0.2889 -0.2169 -0.0321
15242TIP3    H167141   4.061   6.763  12.677  2.0913  0.4781 -1.8444
15242TIP3    H267142   3.968   6.834  12.583 -0.0436 -0.4709 -0.5266
15243TIP3   OH267143   0.626   0.392  11.852  0.1741  0.0413 -0.0986
15243TIP3    H167144   0.720   0.378  11.866  0.2708  0.1490 -0.6119
15243TIP3    H267145   0.619   0.417  11.760 -0.2894  0.6334  0.0854
15244TIP3   OH267146   2.140   2.147   2.230 -0.3470  0.0152  0.5202
15244TIP3    H167147   2.065   2.088   2.219 -1.2627  1.3124 -0.6224
15244TIP3    H267148   2.204   2.116   2.166 -1.1920  0.7656 -0.7395
15245TIP3   OH267149   1.689   4.025  12.754 -0.3436  0.6041 -0.1348
15245TIP3    H167150   1.643   4.108  12.746 -1.0163  0.3164  0.6141
15245TIP3    H267151   1.758   4.030  12.688 -1.4453  1.0465 -1.3157
15246TIP3   OH267152   0.451   4.481  15.361  0.1724 -0.6982 -0.3806
15246TIP3    H167153   0.372   4.515  15.403 -0.0688 -0.7340 -0.8067
15246TIP3    H267154   0.436   4.386  15.357 -0.0584 -0.6343 -1.0733
15247TIP3   OH267155   2.958   3.149   2.225  0.0470  0.4349 -0.3456
15247TIP3    H167156   2.947   3.079   2.289  0.0661  1.2873  0.6101
15247TIP3    H267157   2.909   3.120   2.148 -1.5414  0.2259  0.7108
15248TIP3   OH267158   5.886   0.898   5.665 -0.1573 -0.1169 -0.1322
15248TIP3    H167159   5.846   0.969   5.715 -2.6365 -1.4252 -0.1119
15248TIP3    H267160   5.815   0.837   5.649  1.6408 -2.0717 -1.1362
15249TIP3   OH267161   0.509   3.531  15.536  0.2223 -0.0133 -0.7362
15249TIP3    H167162   0.445   3.487  15.480 -0.0996  1.0659 -1.2365
15249TIP3    H267163   0.460   3.556  15.614  0.3104 -0.1938 -0.6230
15250TIP3   OH267164   5.034   3.299   1.594 -0.2288  0.3900  0.3858
15250TIP3    H167165   4.998   3.284   1.507 -1.1781 -1.0345  0.9997
15250TIP3    H267166   5.036   3.213   1.635 -0.4160  1.1136  2.0080
15251TIP3   OH267167   4.998   2.460   0.243  0.5750  0.6039  0.2818
15251TIP3    H167168   5.049   2.403   0.186  1.4661  0.7340  0.9247
15251TIP3    H267169   4.995   2.414   0.327 -1.0723  0.2190  0.0616
15252TIP3   OH267170   4.120   0.520  16.282  0.1163 -0.3157  0.7375
15252TIP3    H167171   4.174   0.443  16.300  2.4308  0.8059 -0.9043
15252TIP3    H267172   4.123   0.572  16.362  1.2634 -0.4296  0.7811
15253TIP3   OH267173   3.603   6.440   5.674 -0.0052  0.8105 -0.1656
15253TIP3    H167174   3.575   6.531   5.659 -1.4076  0.4987  0.4211
15253TIP3    H267175   3.522   6.390   5.671  0.0255  0.1698  4.2432
15254TIP3   OH267176   4.785   4.069  16.353  0.5896  0.3932 -0.3156
15254TIP3    H167177   4.784   4.008  16.278  0.2765 -0.3990  0.3164
15254TIP3    H267178   4.715   4.132  16.333 -0.3847 -0.5822 -0.0953
15255TIP3   OH267179   2.718   4.781  17.147 -0.6648  0.6692  0.1558
15255TIP3    H167180   2.664   4.709  17.115 -0.4447  0.2876  0.6274
15255TIP3    H267181   2.738   4.833  17.069  0.3847 -0.5827 -0.4547
15256TIP3   OH267182   4.419   6.512  14.840  0.5846  0.3214  0.2298
15256TIP3    H167183   4.484   6.469  14.784 -0.3360 -0.9446  0.0998
15256TIP3    H267184   4.340   6.517  14.787  0.1938  0.6508  0.8324
15257TIP3   OH267185   5.830   4.120  11.734  0.1998 -0.4477 -0.7832
15257TIP3    H167186   5.844   4.214  11.722  0.0476 -0.1825  0.8521
15257TIP3    H267187   5.779   4.093  11.657 -0.4582  0.9682 -0.8792
15258TIP3   OH267188   1.235   2.321  14.337  0.4211 -0.0646  0.1778
15258TIP3    H167189   1.219   2.350  14.427  2.0521 -1.1518  0.8422
15258TIP3    H267190   1.251   2.403  14.289 -2.3746  0.7164  0.3820
15259TIP3   OH267191   2.233   1.218   1.864  0.2622  0.0536 -0.4149
15259TIP3    H167192   2.269   1.285   1.924 -1.4842  1.2140 -0.5920
15259TIP3    H267193   2.139   1.231   1.868 -0.0799 -1.9832 -1.0192
15260TIP3   OH267194   5.652   2.224  14.429 -0.1302  1.1491  0.2291
15260TIP3    H167195   5.671   2.316  14.446  0.8862  1.0844 -0.4631
15260TIP3    H267196   5.679   2.210  14.338  0.4786 -0.0139  0.5636
15261TIP3   OH267197   6.164   1.953  16.170  0.3820  0.2233  0.3071
15261TIP3    H167198   6.175   1.873  16.118 -1.2109  0.0766  0.1473
15261TIP3    H267199   6.126   1.923  16.252 -0.4927  0.8268  0.1390
15262TIP3   OH267200   4.783   4.057  14.230  0.1434 -0.2103  0.5825
15262TIP3    H167201   4.773   3.969  14.265 -0.4632 -0.5269 -0.3389
15262TIP3    H267202   4.828   4.045  14.147 -3.0542 -0.1045 -1.3352
15263TIP3   OH267203   1.191   1.876   2.452  0.2948 -0.0660 -0.1215
15263TIP3    H167204   1.146   1.795   2.477 -2.6620  0.6633 -2.5222
15263TIP3    H267205   1.212   1.864   2.359  2.1775  0.9781  0.1299
15264TIP3   OH267206   5.525   5.497  15.518  0.4987 -0.0478  0.0732
15264TIP3    H167207   5.585   5.427  15.496 -1.0301 -1.7531  1.0878
15264TIP3    H267208   5.477   5.515  15.437  0.8569 -0.1989 -0.1713
15265TIP3   OH267209   5.488   2.458   1.892 -0.0039 -0.7433 -0.1327
15265TIP3    H167210   5.410   2.487   1.939 -1.0406 -1.3629 -1.4208
15265TIP3    H267211   5.508   2.531   1.832  0.1290 -0.7791 -0.1323
15266TIP3   OH267212   2.220   3.394  15.008 -0.0464  0.3095  0.7122
15266TIP3    H167213   2.184   3.322  14.957 -1.7226 -0.2679  2.5631
15266TIP3    H267214   2.170   3.392  15.090  0.2311  3.2304  1.0483
15267TIP3   OH267215   5.009   2.659  15.020 -0.5647  0.2374 -0.2298
15267TIP3    H167216   5.019   2.672  15.115 -0.3827  1.6982 -0.4275
15267TIP3    H267217   5.095   2.678  14.984 -0.7343  0.0793 -0.7165
15268TIP3   OH267218   1.538   5.385  13.275 -0.0630  0.2461  0.0684
15268TIP3    H167219   1.454   5.405  13.235 -0.0849 -1.5790 -0.8875
15268TIP3    H267220   1.568   5.306  13.230  1.4535 -0.0053  1.4316
15269TIP3   OH267221   1.853   0.654  14.622 -0.5849 -0.0900  0.4791
15269TIP3    H167222   1.762   0.668  14.595 -0.3388  0.2632 -0.1986
15269TIP3    H267223   1.875   0.733  14.670 -0.1990  0.4748 -0.5905
15270TIP3   OH267224   6.659   3.577   1.392 -0.3600  0.1345  0.0421
15270TIP3    H167225   6.714   3.651   1.365  0.0639 -0.0484  0.3827
15270TIP3    H267226   6.678   3.509   1.327  0.3105 -0.1467  0.5143
15271TIP3   OH267227   3.364   3.188  11.278  0.2401  0.2122  0.4834
15271TIP3    H167228   3.430   3.199  11.209 -0.7314 -0.4391 -0.5821
15271TIP3    H267229   3.288   3.151  11.233 -0.4144 -0.2616  1.9168
15272TIP3   OH267230   0.981   3.776   4.630  0.2213  0.1697 -0.5268
15272TIP3    H167231   0.887   3.777   4.612 -0.0240 -2.0359  0.3689
15272TIP3    H267232   0.987   3.789   4.724  0.8050  0.2105 -0.5682
15273TIP3   OH267233   4.427   1.248   1.028  0.1272  0.3720  0.0927
15273TIP3    H167234   4.363   1.189   1.068 -0.0955 -1.0189 -2.1304
15273TIP3    H267235   4.377   1.299   0.965  1.0433 -0.3380 -1.2734
15274TIP3   OH267236   1.763   5.200   3.116 -0.5570 -0.1822 -0.5408
15274TIP3    H167237   1.843   5.226   3.072  0.7629 -1.1284  1.1644
15274TIP3    H267238   1.723   5.283   3.145  0.9498  0.2261  0.4650
15275TIP3   OH267239   6.713   4.358  15.103 -0.3914  0.0246  1.0386
15275TIP3    H167240   6.661   4.278  15.093 -2.0367  1.0783  0.8259
15275TIP3    H267241   6.773   4.338  15.175  0.8714 -2.1938 -0.5204
15276TIP3   OH267242   6.516   3.439  10.362  0.2333 -0.4285  1.3566
15276TIP3    H167243   6.586   3.393  10.408  0.9996 -0.0171  0.6291
15276TIP3    H267244   6.530   3.532  10.382  1.2554 -0.1219 -0.5342
15277TIP3   OH267245   6.776   1.970  17.268  0.1018  0.1814 -0.0343
15277TIP3    H167246   6.816   1.891  17.232  1.3193  1.4346 -1.5657
15277TIP3    H267247   6.850   2.026  17.293 -0.7044  1.4336 -0.3547
15278TIP3   OH267248   0.259   3.796  14.998 -0.2554 -0.0771  0.2943
15278TIP3    H167249   0.212   3.803  14.914 -0.5266  0.4323  0.4837
15278TIP3    H267250   0.333   3.856  14.988  0.2674 -0.7393  0.0667
15279TIP3   OH267251   2.376   3.452   6.232 -0.2741  0.1838  0.6641
15279TIP3    H167252   2.440   3.483   6.296 -1.6611  0.5065  1.9521
15279TIP3    H267253   2.421   3.383   6.185  1.8192  1.9475 -0.0867
15280TIP3   OH267254   6.257   6.216  15.116 -0.2272 -0.7424  0.7007
15280TIP3    H167255   6.248   6.204  15.210 -0.2357 -0.3804  0.7486
15280TIP3    H267256   6.351   6.221  15.101 -0.2472  0.3835  0.8521
15281TIP3   OH267257   4.564   3.591   4.297 -0.6514 -0.3068 -0.4675
15281TIP3    H167258   4.556   3.545   4.213 -0.6863  0.0395 -0.6550
15281TIP3    H267259   4.502   3.545   4.355  0.5751 -1.6197 -0.1369
15282TIP3   OH267260   1.960   4.716  13.338  0.3030 -0.0747  0.2540
15282TIP3    H167261   2.051   4.743  13.327  0.1547  0.4594  0.2968
15282TIP3    H267262   1.937   4.742  13.427  0.1245 -0.2563  0.2633
15283TIP3   OH267263   0.719   3.382   2.412  0.1691 -0.1739  0.0574
15283TIP3    H167264   0.721   3.413   2.503 -0.2050  0.2974 -0.0877
15283TIP3    H267265   0.643   3.325   2.408 -1.7112  2.2127 -0.6804
15284TIP3   OH267266   6.019   4.848   3.115  0.1057  0.1639 -0.5474
15284TIP3    H167267   6.039   4.939   3.136  0.5867 -0.0189 -0.1961
15284TIP3    H267268   6.040   4.799   3.194  1.1210 -0.4212 -1.1477
15285TIP3   OH267269   3.006   5.249  11.808 -0.2488  0.1849 -0.0601
15285TIP3    H167270   3.029   5.322  11.866  1.2182 -0.0969 -0.2342
15285TIP3    H267271   2.945   5.286  11.745  0.6153  1.3333 -0.2593
15286TIP3   OH267272   4.985   2.247   1.634 -0.0543  0.6110 -0.1618
15286TIP3    H167273   5.071   2.228   1.672 -0.9287 -0.0384  1.6072
15286TIP3    H267274   4.983   2.196   1.553  1.2194  0.6270 -0.2147
15287TIP3   OH267275   2.185   1.559  13.706  0.4073 -0.5215  0.0218
15287TIP3    H167276   2.271   1.563  13.747  0.5709  0.0240 -0.3636
15287TIP3    H267277   2.132   1.508  13.767  0.6171  0.3642  0.9715
15288TIP3   OH267278   2.326   1.272   5.388 -0.2652 -0.8780  0.5255
15288TIP3    H167279   2.331   1.239   5.478  0.6418 -1.7701  0.1767
15288TIP3    H267280   2.387   1.346   5.385 -1.4322  0.1320  1.0142
15289TIP3   OH267281   4.537   3.785  15.278 -0.2214  0.1429 -0.1550
15289TIP3    H167282   4.582   3.714  15.234 -0.9681 -0.3851 -0.0815
15289TIP3    H267283   4.533   3.856  15.213  1.0433  0.3426 -0.0319
15290TIP3   OH267284   5.803   4.999   1.258 -0.0807  0.3084  0.1853
15290TIP3    H167285   5.726   4.962   1.302  0.3491  0.6100  1.2300
15290TIP3    H267286   5.873   4.934   1.274 -0.2928 -0.3727 -1.4663
15291TIP3   OH267287   0.167   2.768   1.194  0.1685  0.5684  0.0799
15291TIP3    H167288   0.184   2.859   1.218  0.5283  0.4846  0.1343
15291TIP3    H267289   0.228   2.717   1.246  0.4865  0.3425 -0.5138
15292TIP3   OH267290   5.586   3.756  13.702 -0.7796 -0.3381 -0.5134
15292TIP3    H167291   5.603   3.849  13.717  0.9053 -0.3550 -1.9604
15292TIP3    H267292   5.511   3.755  13.642  0.6023  0.2634 -2.3707
15293TIP3   OH267293   4.608   1.413  14.501 -0.1104 -0.3751  0.0188
15293TIP3    H167294   4.644   1.394  14.588 -0.6748  0.9215  0.5624
15293TIP3    H267295   4.667   1.479  14.465 -0.5284 -0.0745 -0.1115
15294TIP3   OH267296   2.296   6.559   6.873 -0.7655  0.4098 -0.3794
15294TIP3    H167297   2.226   6.576   6.936 -0.3987  0.8737 -0.0838
15294TIP3    H267298   2.255   6.573   6.788 -1.2569 -0.1883 -0.2521
15295TIP3   OH267299   3.178   4.436  12.656  0.7916  0.1995 -0.3086
15295TIP3    H167300   3.154   4.527  12.675  1.0553  0.4480 -1.1256
15295TIP3    H267301   3.167   4.428  12.562  0.0575 -0.8424 -0.1481
15296TIP3   OH267302   4.483   3.470  13.212  0.2663 -0.2540  0.0088
15296TIP3    H167303   4.515   3.464  13.122  0.6759 -0.4789  0.1683
15296TIP3    H267304   4.468   3.379  13.238 -0.9093 -0.1325 -0.2062
15297TIP3   OH267305   6.592   1.786   5.065 -0.1016  0.2006  0.0449
15297TIP3    H167306   6.588   1.876   5.097 -0.0293  0.5199 -0.8355
15297TIP3    H267307   6.651   1.789   4.990 -0.1313 -0.5765 -0.0208
15298TIP3   OH267308   6.259   4.209   6.262  0.1132  0.1378  0.2827
15298TIP3    H167309   6.331   4.162   6.305 -0.4048  0.4721  1.5587
15298TIP3    H267310   6.196   4.140   6.240 -0.9070  0.2003  2.6644
15299TIP3   OH267311   6.730   6.008  15.536  0.0141  0.3445 -0.0566
15299TIP3    H167312   6.665   6.066  15.575  0.8945  2.0416 -0.9938
15299TIP3    H267313   6.697   5.991  15.448 -0.3821 -0.8414  0.3113
15300TIP3   OH267314   6.768   0.044   1.468 -0.2585 -0.5868 -0.1809
15300TIP3    H167315   6.760   0.140   1.466 -0.2083 -0.5933 -1.2105
15300TIP3    H267316   6.839   0.027   1.529  1.7114  0.1801 -2.1581
15301TIP3   OH267317   6.367   3.135  12.285  0.3572  0.1131  0.1414
15301TIP3    H167318   6.385   3.142  12.379  0.0648  0.2861  0.1839
15301TIP3    H267319   6.452   3.111  12.247  0.4423 -0.1183  0.4661
15302TIP3   OH267320   5.449   5.404   6.147 -0.3562  0.1966 -0.3931
15302TIP3    H167321   5.381   5.351   6.189  0.1566 -1.3351 -1.3662
15302TIP3    H267322   5.402   5.454   6.080 -0.5747 -0.9049 -1.1111
15303TIP3   OH267323   1.904   2.758   3.617 -0.3934 -0.4752 -0.3003
15303TIP3    H167324   1.982   2.807   3.644  1.4741 -3.0878 -0.6364
15303TIP3    H267325   1.863   2.813   3.551  1.6342  0.6075 -0.7322
15304TIP3   OH267326   6.648   1.794   2.358  0.7686 -0.4197  0.7600
15304TIP3    H167327   6.723   1.760   2.308  0.2411 -2.0867  1.0410
15304TIP3    H267328   6.648   1.742   2.438  0.3696  0.8117  1.5795
15305TIP3   OH267329   0.050   5.326  13.014 -0.3183 -0.6061  0.1060
15305TIP3    H167330  -0.010   5.350  12.943  2.5381 -0.3320 -2.4135
15305TIP3    H267331   0.100   5.406  13.032  1.3668 -1.5508 -0.1112
15306TIP3   OH267332   5.411   0.771  10.296  0.4928  0.1615  0.2074
15306TIP3    H167333   5.354   0.836  10.337  1.0407  0.0814  1.1338
15306TIP3    H267334   5.350   0.707  10.259 -0.0529 -0.4327  2.0068
15307TIP3   OH267335   6.411   2.593  11.684  0.2074 -0.3079  0.2252
15307TIP3    H167336   6.413   2.687  11.700 -0.1149 -0.0848 -0.9576
15307TIP3    H267337   6.338   2.561  11.737 -3.5045  1.0260 -3.5160
15308TIP3   OH267338   3.361   3.419   4.455  0.1560  0.2630 -0.3483
15308TIP3    H167339   3.299   3.361   4.499 -1.2349  1.2967 -0.8674
15308TIP3    H267340   3.363   3.390   4.364 -0.5566  1.0108 -0.6139
15309TIP3   OH267341   4.813   1.784   1.132 -0.1311 -0.2085 -0.1390
15309TIP3    H167342   4.872   1.731   1.185 -1.4293  0.1411  1.7719
15309TIP3    H267343   4.729   1.738   1.136 -0.2313 -0.3211 -2.1936
15310TIP3   OH267344   1.763   4.893  16.710 -0.0463 -0.0934  0.4504
15310TIP3    H167345   1.759   4.830  16.638  0.1216  1.4507 -0.9492
15310TIP3    H267346   1.857   4.908  16.724 -0.0907  0.0540  0.5941
15311TIP3   OH267347   5.487   2.974  15.879 -0.2190  0.1119  0.2880
15311TIP3    H167348   5.558   2.998  15.938 -0.3339 -0.5698  0.7083
15311TIP3    H267349   5.454   2.891  15.913 -0.5023 -0.1252 -0.5415
15312TIP3   OH267350   6.268   6.618  14.725 -0.4041  0.3462  0.2818
15312TIP3    H167351   6.299   6.615  14.815 -1.5197 -0.3454  0.6554
15312TIP3    H267352   6.346   6.596  14.672  0.4996  1.7061  0.9875
15313TIP3   OH267353   4.179   5.945   4.321 -0.4432  0.0583  0.1516
15313TIP3    H167354   4.271   5.940   4.350 -0.1592  0.2882 -0.6753
15313TIP3    H267355   4.163   6.038   4.311 -1.1143  0.0792  1.3386
15314TIP3   OH267356   6.707   4.993  11.515  0.0443  0.1528 -0.4292
15314TIP3    H167357   6.696   5.017  11.607 -1.5955 -2.1025  0.0482
15314TIP3    H267358   6.621   5.007  11.476  0.2309 -0.6380 -1.1699
15315TIP3   OH267359   2.427   1.189  11.186 -0.0762 -0.1833 -0.3656
15315TIP3    H167360   2.404   1.136  11.110 -0.1163 -1.2227  0.3492
15315TIP3    H267361   2.481   1.131  11.241 -0.1136  0.5132  0.4366
15316TIP3   OH267362   5.878   6.316  15.950  0.2994 -0.1095 -0.4879
15316TIP3    H167363   5.791   6.302  15.989  1.3867  0.8503  2.6163
15316TIP3    H267364   5.883   6.411  15.939  1.7486  0.1498  1.7248
15317TIP3   OH267365   1.864   2.846   2.455  0.4250  0.2670  0.3142
15317TIP3    H167366   1.811   2.798   2.518  0.3311 -1.8159 -1.2568
15317TIP3    H267367   1.800   2.891   2.399  0.4284  0.2090  0.2640
15318TIP3   OH267368   0.185   5.078   5.910 -0.1156  0.4056 -0.4244
15318TIP3    H167369   0.215   5.066   6.000 -0.0581  0.5382 -0.4262
15318TIP3    H267370   0.198   5.171   5.892  0.6824  0.2104 -0.8670
15319TIP3   OH267371   2.805   3.779   5.438 -0.0457  0.0411  0.2092
15319TIP3    H167372   2.781   3.835   5.364  0.3062 -0.3558 -0.2113
15319TIP3    H267373   2.882   3.731   5.408 -0.1723 -0.4591  0.6640
15320TIP3   OH267374   5.786   1.614  13.370  0.3241 -0.5222  0.0590
15320TIP3    H167375   5.781   1.633  13.277  2.0881 -0.7876 -0.1280
15320TIP3    H267376   5.784   1.700  13.412 -0.1333 -0.3880 -0.2290
15321TIP3   OH267377   5.254   2.871   3.785 -0.0637 -0.4253 -0.3190
15321TIP3    H167378   5.236   2.965   3.785  4.1705  0.6299 -0.1630
15321TIP3    H267379   5.266   2.849   3.877 -0.0162 -0.8434 -0.4261
15322TIP3   OH267380   5.674   4.941  11.497  0.2611 -0.2562  0.3829
15322TIP3    H167381   5.758   4.984  11.484 -0.2452  1.3928  2.0923
15322TIP3    H267382   5.614   5.012  11.518 -1.0698 -1.6001  1.3926
15323TIP3   OH267383   3.964   1.506   4.027 -0.2992  0.2456 -0.5491
15323TIP3    H167384   4.014   1.557   3.963 -0.0758  0.3567 -0.2867
15323TIP3    H267385   3.936   1.429   3.979 -1.0659  0.8506 -1.0989
15324TIP3   OH267386   2.494   3.508  16.165 -0.0854 -0.2078  0.4244
15324TIP3    H167387   2.445   3.434  16.203 -0.5456 -0.1284  0.0043
15324TIP3    H267388   2.531   3.473  16.084  2.1745 -0.8255  1.6411
15325TIP3   OH267389   6.686   2.075  13.269 -0.3069 -0.0517  0.0564
15325TIP3    H167390   6.675   2.127  13.190  0.5873  0.0846  0.0072
15325TIP3    H267391   6.599   2.071  13.309 -0.3881  1.4998  0.0786
15326TIP3   OH267392   6.384   5.082   2.593  0.2640 -0.2194  0.1535
15326TIP3    H167393   6.450   5.150   2.607  1.3196 -1.1267 -0.2937
15326TIP3    H267394   6.434   5.004   2.569 -0.9992 -0.8423 -0.5617
15327TIP3   OH267395   3.777   0.724  13.551 -0.7794  0.0885  0.0394
15327TIP3    H167396   3.871   0.719  13.566 -1.1833 -0.7538  2.7949
15327TIP3    H267397   3.759   0.655  13.487  0.6064  1.2716 -1.7307
15328TIP3   OH267398   4.545   4.179  15.228  0.1387  0.3943  0.3960
15328TIP3    H167399   4.558   4.101  15.173 -0.5204  1.1039 -0.8084
15328TIP3    H267400   4.452   4.177  15.250 -0.2621  1.6863 -1.0170
15329TIP3   OH267401   4.731   2.840   2.383  0.0423  0.1963  0.0299
15329TIP3    H167402   4.726   2.866   2.291  2.2265 -0.4723 -0.3338
15329TIP3    H267403   4.667   2.770   2.392 -1.3976  1.3978 -0.5244
15330TIP3   OH267404   5.212   4.860  14.469  0.5860  0.4915  0.9763
15330TIP3    H167405   5.122   4.834  14.452  0.8825  0.6568 -1.1312
15330TIP3    H267406   5.207   4.918  14.545 -1.4156  2.3087 -0.4438
15331TIP3   OH267407   1.932   5.425   4.097  0.4859 -0.7400 -0.5657
15331TIP3    H167408   2.009   5.474   4.124  0.1692 -1.0733  1.0899
15331TIP3    H267409   1.858   5.475   4.131  0.0390 -1.0560 -1.0517
15332TIP3   OH267410   0.032   3.481   3.490  0.0124 -0.2933  0.2285
15332TIP3    H167411  -0.000   3.391   3.490  1.4326 -0.8826 -1.6065
15332TIP3    H267412   0.097   3.483   3.560  1.0816 -1.2181 -0.6690
15333TIP3   OH267413   4.678   3.123   3.393 -0.1089 -0.1167  0.6884
15333TIP3    H167414   4.741   3.080   3.335  0.5942  0.1604  1.2253
15333TIP3    H267415   4.633   3.051   3.437  0.2628 -0.3181  0.7474
15334TIP3   OH267416   4.868   3.394   3.050 -0.0850 -0.2846  0.3137
15334TIP3    H167417   4.789   3.342   3.068 -0.8700  0.6663 -0.2971
15334TIP3    H267418   4.877   3.450   3.127 -1.1626  0.9960 -0.4657
15335TIP3   OH267419   2.585   0.113  12.725  0.3485 -0.2258 -0.2411
15335TIP3    H167420   2.541   0.030  12.705  0.2211 -0.5051  1.1250
15335TIP3    H267421   2.673   0.087  12.754  0.4295  0.1467 -0.1488
15336TIP3   OH267422   6.613   5.325  11.357  0.0159  0.6685 -0.5187
15336TIP3    H167423   6.587   5.384  11.287  2.6008  0.1994 -2.0153
15336TIP3    H267424   6.550   5.253  11.354 -0.1292  0.8331 -2.1636
15337TIP3   OH267425   1.822   5.312   1.874 -0.1451 -0.3679 -0.1427
15337TIP3    H167426   1.792   5.222   1.888 -3.0884  0.4267 -0.6945
15337TIP3    H267427   1.824   5.351   1.961 -1.7184 -0.2001 -0.1529
15338TIP3   OH267428   4.928   1.744   5.304 -0.1444 -0.1592  0.1037
15338TIP3    H167429   4.975   1.697   5.235 -0.3569 -0.5394  0.2112
15338TIP3    H267430   4.995   1.796   5.348 -0.2132  1.0504 -1.1615
15339TIP3   OH267431   1.716   3.724  15.583  0.4401 -0.0030  0.0707
15339TIP3    H167432   1.789   3.663  15.573 -0.0577 -0.7584  0.8545
15339TIP3    H267433   1.700   3.726  15.678 -1.5097 -1.0372 -0.1854
15340TIP3   OH267434   3.907   4.275  13.576  0.1484 -0.1587  0.2543
15340TIP3    H167435   3.927   4.187  13.609  1.3503  0.5136  1.4228
15340TIP3    H267436   3.974   4.292  13.510  0.3023  0.1253  0.4825
15341TIP3   OH267437   3.258   2.967  12.925 -0.7452  0.0485 -0.4008
15341TIP3    H167438   3.204   3.024  12.980 -0.5686 -0.0748 -0.0933
15341TIP3    H267439   3.243   2.998  12.836 -2.1812 -0.6847 -0.4408
15342TIP3   OH267440   5.509   1.308   1.709 -0.0195  0.4604  0.3981
15342TIP3    H167441   5.575   1.246   1.739  0.5042  1.3449  1.0872
15342TIP3    H267442   5.426   1.262   1.722  0.3798 -0.2097  0.6103
15343TIP3   OH267443   2.286   0.338  12.694  0.6564  0.3850 -0.1366
15343TIP3    H167444   2.340   0.319  12.770  0.9581 -1.5368 -0.7578
15343TIP3    H267445   2.214   0.275  12.701  0.1669  0.8476 -0.9256
15344TIP3   OH267446   5.218   4.310   6.292  0.1009  0.2458 -0.5642
15344TIP3    H167447   5.207   4.339   6.382 -0.6159 -0.4393 -0.4220
15344TIP3    H267448   5.155   4.239   6.281  0.2772  0.2217 -1.5626
15345TIP3   OH267449   1.749   1.549  14.242  0.5677 -0.1520 -0.1045
15345TIP3    H167450   1.732   1.644  14.244 -0.0899 -0.2781  1.2576
15345TIP3    H267451   1.726   1.522  14.153 -0.1529  0.8073 -0.2245
15346TIP3   OH267452   2.073   1.897   2.553 -0.0309  0.6504 -0.2061
15346TIP3    H167453   2.030   1.843   2.619 -1.2721  1.7877 -0.0515
15346TIP3    H267454   2.014   1.970   2.539  0.9922  1.2954 -1.3822
15347TIP3   OH267455   5.165   1.292   4.173  0.1598 -0.2809 -0.0326
15347TIP3    H167456   5.141   1.243   4.252 -0.2066  0.0529  0.0653
15347TIP3    H267457   5.119   1.375   4.181  0.4356 -0.0878 -0.4094
15348TIP3   OH267458   5.030   3.174  11.278 -0.4264  0.2943 -0.5897
15348TIP3    H167459   5.092   3.171  11.351 -0.1128 -1.3537 -0.8636
15348TIP3    H267460   4.984   3.090  11.283 -1.1185  0.5863 -1.6810
15349TIP3   OH267461   5.507   3.590   4.290  0.4472 -0.3690 -0.0093
15349TIP3    H167462   5.465   3.512   4.325 -0.1525 -1.5259 -2.9654
15349TIP3    H267463   5.599   3.581   4.315  0.1871 -1.4653  0.5973
15350TIP3   OH267464   2.597   6.557  11.276 -0.5581 -0.1589  0.2537
15350TIP3    H167465   2.502   6.552  11.282 -0.8638  0.8930 -2.4194
15350TIP3    H267466   2.620   6.637  11.323 -1.0778 -0.0190  0.2770
15351TIP3   OH267467   1.776   3.145   1.913 -0.3608 -0.1191  0.0470
15351TIP3    H167468   1.706   3.080   1.904 -1.1890  0.5117  1.5740
15351TIP3    H267469   1.749   3.218   1.857 -1.1113  0.2552  0.8761
15352TIP3   OH267470   6.158   1.709   3.936  0.1326 -0.5097  0.1529
15352TIP3    H167471   6.167   1.788   3.883  0.4847  0.1757  1.2027
15352TIP3    H267472   6.168   1.637   3.874 -0.4405  0.2552 -0.8650
15353TIP3   OH267473   3.816   2.014   3.788 -0.4815  0.2512  0.3536
15353TIP3    H167474   3.730   1.981   3.766 -0.7712 -0.0086  1.7899
15353TIP3    H267475   3.806   2.052   3.875  0.8604  0.1649  0.5752
15354TIP3   OH267476   6.024   4.810   4.111 -0.6288  0.1813 -0.0249
15354TIP3    H167477   6.036   4.783   4.020 -2.5100  2.4932 -1.0716
15354TIP3    H267478   6.067   4.895   4.116  2.3707 -1.2794  2.2792
15355TIP3   OH267479   4.886   2.670   1.857  0.3704 -0.1626  0.8468
15355TIP3    H167480   4.873   2.588   1.810 -1.5710 -0.0764  1.1774
15355TIP3    H267481   4.867   2.649   1.949 -0.5336  0.7366  0.8778
15356TIP3   OH267482   5.319   3.586  14.938 -0.0132 -0.1594 -0.9242
15356TIP3    H167483   5.285   3.671  14.967 -0.2091 -0.2660 -0.8440
15356TIP3    H267484   5.412   3.603  14.921  0.1409 -0.1254 -0.0938
15357TIP3   OH267485   5.676   6.030   4.676 -0.3159  0.0539  0.0372
15357TIP3    H167486   5.686   6.089   4.751  0.1520 -1.3758  1.1535
15357TIP3    H267487   5.723   6.073   4.605  1.2485  0.3787  1.2014
15358TIP3   OH267488   4.693   3.574  11.649 -0.0249  0.3571  0.0751
15358TIP3    H167489   4.672   3.613  11.733  1.9746  0.4505  0.5868
15358TIP3    H267490   4.725   3.647  11.596  0.5706 -0.0098 -0.0853
15359TIP3   OH267491   2.916   6.128   2.933  0.0511 -0.2863  0.0585
15359TIP3    H167492   2.995   6.075   2.927 -0.6266 -1.4299  0.9299
15359TIP3    H267493   2.904   6.142   3.026 -0.0711  1.0038 -0.1307
15360TIP3   OH267494   1.162   5.496  12.998  0.3318 -0.0143 -0.2414
15360TIP3    H167495   1.075   5.491  12.958 -0.0464 -1.6738  0.7173
15360TIP3    H267496   1.221   5.460  12.932  0.2255  0.5049 -0.6331
15361TIP3   OH267497   2.824   5.656  12.522  0.3057  0.1093  0.5851
15361TIP3    H167498   2.730   5.674  12.531  0.3988  0.4313  0.9567
15361TIP3    H267499   2.850   5.622  12.608  0.2977 -1.0650  0.1337
15362TIP3   OH267500   2.490   1.620  13.026 -0.0432  0.0361 -0.5088
15362TIP3    H167501   2.473   1.713  13.014  0.0680  0.0133 -0.8652
15362TIP3    H267502   2.504   1.587  12.937 -1.0525 -0.5125 -0.4786
15363TIP3   OH267503   4.513   1.027  12.094  0.6447 -0.1972  0.0657
15363TIP3    H167504   4.515   1.121  12.112  3.3079 -0.0473 -0.5549
15363TIP3    H267505   4.471   1.020  12.008 -3.4294 -0.0740  1.8457
15364TIP3   OH267506   0.307   0.185  15.798 -0.0054 -0.4206 -0.2035
15364TIP3    H167507   0.397   0.153  15.792  0.3185  0.3912  0.0910
15364TIP3    H267508   0.290   0.190  15.892 -0.6851 -1.4172 -0.2553
15365TIP3   OH267509   5.819   3.110  11.130  0.0514 -0.0596  0.0959
15365TIP3    H167510   5.796   3.069  11.213 -1.8323  0.7862  0.0414
15365TIP3    H267511   5.893   3.059  11.097  2.0850  0.7116  3.1172
15366TIP3   OH267512   2.183   6.762  14.568 -0.6266  0.1407 -0.1697
15366TIP3    H167513   2.197   6.722  14.654  0.0160  2.0564  0.6789
15366TIP3    H267514   2.088   6.772  14.562 -0.6143  0.9177  0.7810
15367TIP3   OH267515   2.642   1.963  13.052  0.3432 -0.4138  0.8318
15367TIP3    H167516   2.685   2.043  13.081 -0.2506  0.0219  0.5388
15367TIP3    H267517   2.549   1.987  13.047  0.3479 -0.6582 -0.7747
15368TIP3   OH267518   3.542   0.337   0.244 -0.8056 -0.2129  0.5670
15368TIP3    H167519   3.537   0.274   0.171 -0.2844 -2.9405  2.7246
15368TIP3    H267520   3.473   0.309   0.304  0.0788  0.6849  2.0515
15369TIP3   OH267521   3.044   3.939   4.137  0.8505  0.0329  0.5477
15369TIP3    H167522   3.095   4.020   4.146  0.0336  0.5214  0.9764
15369TIP3    H267523   3.058   3.912   4.047 -0.4702  1.8060 -0.2588
15370TIP3   OH267524   6.410   0.667   1.451  0.3811  0.1254  1.0893
15370TIP3    H167525   6.431   0.740   1.510  3.3175 -0.1709  0.5579
15370TIP3    H267526   6.494   0.624   1.435 -0.1347  0.3201 -3.4774
15371TIP3   OH267527   2.236   4.750   3.205  0.0648  0.3860  0.0432
15371TIP3    H167528   2.143   4.771   3.199 -0.3695 -1.1136  1.0416
15371TIP3    H267529   2.247   4.712   3.292  1.7096  0.9524  0.1196
15372TIP3   OH267530   0.802   3.220  12.785  0.7266 -0.2090  0.1566
15372TIP3    H167531   0.741   3.267  12.729  1.0485  0.0773  0.0486
15372TIP3    H267532   0.836   3.149  12.731  2.0492  0.8487 -0.4636
15373TIP3   OH267533   3.762   6.066  13.906 -0.0901  0.0714 -0.2308
15373TIP3    H167534   3.707   6.088  13.831 -2.4955 -1.1000  1.0826
15373TIP3    H267535   3.745   6.136  13.969  2.0703  1.1570 -0.7205
15374TIP3   OH267536   1.221   2.636  14.757 -0.7689  0.0553 -0.3663
15374TIP3    H167537   1.294   2.681  14.716 -1.9173  1.4738 -0.9277
15374TIP3    H267538   1.148   2.698  14.753 -1.0499  0.2641  3.6530
15375TIP3   OH267539   1.292   6.134   0.007 -0.7049 -0.1836 -0.5714
15375TIP3    H167540   1.362   6.072   0.026  0.2137  0.8098 -0.5928
15375TIP3    H267541   1.215   6.080  -0.011  0.5181 -1.3907 -2.4741
15376TIP3   OH267542   3.958   5.820   2.287 -0.1448 -0.3678 -0.4380
15376TIP3    H167543   3.931   5.749   2.229  0.1595 -0.2017 -0.7852
15376TIP3    H267544   4.028   5.864   2.240  0.7111 -0.7640  0.4197
15377TIP3   OH267545   5.138   0.002   0.096  0.1127  0.7900  0.4402
15377TIP3    H167546   5.130  -0.089   0.125 -2.0488  1.7188  3.2072
15377TIP3    H267547   5.205   0.040   0.154  0.8167  1.0664 -0.5269
15378TIP3   OH267548   1.334   2.872   0.515 -0.3076  0.4597 -0.0146
15378TIP3    H167549   1.269   2.866   0.585 -1.7694 -0.4753 -1.3843
15378TIP3    H267550   1.306   2.806   0.451  3.3053 -1.6697  0.3546
15379TIP3   OH267551   4.391   5.305  13.105 -0.2551  0.2655 -0.0116
15379TIP3    H167552   4.344   5.222  13.103  2.3974 -1.3468 -1.2906
15379TIP3    H267553   4.434   5.306  13.191  1.1709 -0.6569 -0.6696
15380TIP3   OH267554   3.434   1.729  14.756  0.1376  0.1624  0.1600
15380TIP3    H167555   3.351   1.774  14.740  1.0049  1.1131 -1.9100
15380TIP3    H267556   3.483   1.789  14.812 -0.2363 -0.0625  0.7484
15381TIP3   OH267557   4.292   4.358   6.183 -0.3803 -0.0888 -0.1676
15381TIP3    H167558   4.375   4.398   6.158  0.1165 -1.7921 -1.4509
15381TIP3    H267559   4.267   4.402   6.264  0.8937  1.6554 -0.6607
15382TIP3   OH267560   0.718   0.357   2.849  0.1795 -0.0421  0.9559
15382TIP3    H167561   0.713   0.264   2.872 -1.1951  0.3223  2.2507
15382TIP3    H267562   0.639   0.395   2.886 -0.4287  1.2676 -1.4786
15383TIP3   OH267563   5.804   5.933  14.198  0.1085  0.4340  0.1526
15383TIP3    H167564   5.814   5.975  14.112  0.7871 -0.9277 -0.4650
15383TIP3    H267565   5.859   5.986  14.256  0.9553  0.4332 -0.6139
15384TIP3   OH267566   2.121   0.824   0.892 -0.1745 -0.0329  0.0070
15384TIP3    H167567   2.079   0.747   0.853  1.0454 -1.8811  2.1113
15384TIP3    H267568   2.050   0.885   0.908 -1.3518 -1.1532 -0.7581
15385TIP3   OH267569   3.966   3.423   1.842  0.2182 -0.4819  0.2691
15385TIP3    H167570   4.057   3.390   1.843  0.5152  0.2958 -0.3266
15385TIP3    H267571   3.932   3.395   1.757  1.1619  2.4844 -1.2031
15386TIP3   OH267572   4.597   2.462   3.999  0.1810  0.0431  0.2800
15386TIP3    H167573   4.650   2.479   4.077 -0.2929  1.3824  0.3446
15386TIP3    H267574   4.539   2.538   3.993  1.3056  0.8258 -2.2937
15387TIP3   OH267575   1.591   5.865  15.017 -0.3578  0.6979  0.3549
15387TIP3    H167576   1.590   5.954  15.051 -0.0675  0.8198  0.0545
15387TIP3    H267577   1.677   5.856  14.975  0.5699 -0.5035  2.3739
15388TIP3   OH267578   5.100   6.346   5.557 -0.7593 -0.4899  0.2921
15388TIP3    H167579   5.155   6.410   5.512 -0.5795 -0.3786  0.6685
15388TIP3    H267580   5.037   6.399   5.607 -0.2433 -0.5933  1.0644
15389TIP3   OH267581   1.304   5.450  16.157 -0.2277  0.7153 -0.0015
15389TIP3    H167582   1.268   5.436  16.244 -0.4115  1.4775  0.0461
15389TIP3    H267583   1.245   5.512  16.116 -0.2050  0.2801 -0.7165
15390TIP3   OH267584   2.007   6.131  13.576 -0.7198 -0.3771  0.2511
15390TIP3    H167585   1.987   6.207  13.630 -1.4361 -0.7040  0.4640
15390TIP3    H267586   2.101   6.114  13.591 -0.3121  1.0238 -0.5532
15391TIP3   OH267587   1.384   2.105  14.252 -0.4594 -0.0849  0.1072
15391TIP3    H167588   1.353   2.031  14.305  0.2424  1.1783  2.4484
15391TIP3    H267589   1.331   2.179  14.282 -1.5371  0.3424 -2.5725
15392TIP3   OH267590   5.747   2.083  11.860 -0.0221  0.0406 -0.1816
15392TIP3    H167591   5.672   2.077  11.920 -0.3180  0.0201 -0.5506
15392TIP3    H267592   5.823   2.074  11.917 -0.3081 -0.5015  0.1325
15393TIP3   OH267593   2.472   6.268  13.432  0.0426 -0.1912 -0.0508
15393TIP3    H167594   2.422   6.331  13.483  0.2106 -0.3025  0.2578
15393TIP3    H267595   2.409   6.232  13.369 -0.5431 -1.0708  0.9997
15394TIP3   OH267596   6.275   5.426   2.627 -0.2386 -0.1996 -0.2672
15394TIP3    H167597   6.242   5.403   2.541  2.0164  0.6178 -1.4201
15394TIP3    H267598   6.254   5.519   2.636  1.6719  0.3423 -1.0370
15395TIP3   OH267599   1.443   1.313   3.913 -0.2850  0.1440  0.2736
15395TIP3    H167600   1.515   1.253   3.897  0.8339  1.8749 -1.6825
15395TIP3    H267601   1.382   1.298   3.841 -0.0240  1.2291 -0.2012
15396TIP3   OH267602   0.295   6.297   5.797 -0.5272 -0.0620 -0.2033
15396TIP3    H167603   0.299   6.293   5.701  0.2160 -0.5889 -0.1599
15396TIP3    H267604   0.223   6.358   5.815  1.1578  2.3490 -1.1227
15397TIP3   OH267605   6.440   3.879  16.431  0.4680  0.1298 -0.1410
15397TIP3    H167606   6.503   3.834  16.486 -0.6213 -0.0161  1.0358
15397TIP3    H267607   6.424   3.962  16.476 -0.6073 -0.0832 -0.1101
15398TIP3   OH267608   1.723   5.393  13.657 -0.4269  0.5355  0.0547
15398TIP3    H167609   1.652   5.424  13.601 -0.4357  0.1288 -0.1628
15398TIP3    H267610   1.784   5.349  13.597 -0.2405  0.4443  0.3096
15399TIP3   OH267611   5.492   6.358  14.960  0.4143  0.1277  0.2423
15399TIP3    H167612   5.562   6.412  14.998  0.4233  0.0874  0.2820
15399TIP3    H267613   5.518   6.348  14.868  1.1066 -0.9230  0.5345
15400TIP3   OH267614   6.037   3.998  10.990  0.2129  0.3231 -0.2212
15400TIP3    H167615   6.060   3.906  10.974 -0.0934 -0.1082  1.5974
15400TIP3    H267616   6.048   4.041  10.905  2.3485 -0.9627 -0.6559
15401TIP3   OH267617   0.826   5.420  12.426  0.2883  0.4085 -0.0727
15401TIP3    H167618   0.866   5.393  12.343 -0.0737 -0.6188  0.0752
15401TIP3    H267619   0.771   5.495  12.402  1.4524  1.1660 -0.4580
15402TIP3   OH267620   6.302   1.637   4.178 -0.0755 -0.3563  0.4444
15402TIP3    H167621   6.392   1.608   4.166 -0.1816 -0.6043  0.2449
15402TIP3    H267622   6.275   1.669   4.092  0.2365  0.9047  0.7951
15403TIP3   OH267623   2.641   3.797   4.296 -0.3923 -0.2055  0.3852
15403TIP3    H167624   2.729   3.833   4.298 -0.4093 -0.0472 -0.9148
15403TIP3    H267625   2.588   3.858   4.347 -0.0559  0.5870 -0.2009
15404TIP3   OH267626   4.325   3.036  11.849  0.3237  0.2299  0.3319
15404TIP3    H167627   4.302   3.029  11.942 -1.9042 -0.4082 -0.2017
15404TIP3    H267628   4.244   3.061  11.806  1.3992  0.8595 -1.4268
15405TIP3   OH267629   2.756   3.002   1.613 -0.5730 -0.3369 -0.3335
15405TIP3    H167630   2.705   2.998   1.694 -0.7583 -1.6318 -0.4927
15405TIP3    H267631   2.691   3.011   1.544 -0.8043 -3.4960 -0.6724
15406TIP3   OH267632   4.586   0.582  14.170  0.2836  0.1305 -0.6632
15406TIP3    H167633   4.606   0.531  14.091  1.3081  1.9902 -1.6841
15406TIP3    H267634   4.667   0.579  14.221  0.3746  0.7876 -0.7685
15407TIP3   OH267635   4.625   0.887  15.813 -0.2112  0.0339 -0.2842
15407TIP3    H167636   4.718   0.874  15.830 -0.6612 -1.4328  1.3399
15407TIP3    H267637   4.619   0.978  15.783  1.5242  0.8228  1.5170
15408TIP3   OH267638   1.060   0.925   4.539 -0.5257 -0.2738  0.2551
15408TIP3    H167639   1.120   0.854   4.516 -0.7404 -0.7357  1.0654
15408TIP3    H267640   1.016   0.947   4.457  0.2305 -0.4252 -0.1981
15409TIP3   OH267641   6.499   3.379   4.837 -0.6032  0.2583 -0.4869
15409TIP3    H167642   6.478   3.452   4.895 -0.1404 -0.2951  0.3928
15409TIP3    H267643   6.512   3.304   4.895 -1.3944 -0.6233 -1.3854
15410TIP3   OH267644   5.876   2.951   5.002  0.2766 -0.0393 -0.0139
15410TIP3    H167645   5.903   2.999   4.923  1.4561 -2.6863 -1.3439
15410TIP3    H267646   5.957   2.931   5.047 -0.2783  0.1542  1.0932
15411TIP3   OH267647   1.318   3.209  12.650 -0.6929 -0.9011 -0.5183
15411TIP3    H167648   1.284   3.298  12.661  0.6943 -0.1875 -1.5577
15411TIP3    H267649   1.413   3.220  12.649 -0.4556 -2.5590  0.4022
15412TIP3   OH267650   5.745   5.032   4.123  0.0426  0.0322  0.1682
15412TIP3    H167651   5.703   4.960   4.076 -0.1241  0.7824 -0.8843
15412TIP3    H267652   5.681   5.104   4.119  1.1099  0.9677 -0.8372
15413TIP3   OH267653   0.488   2.904   1.707  1.0081 -0.3366 -0.4224
15413TIP3    H167654   0.412   2.850   1.727  0.9996  0.1922  1.0591
15413TIP3    H267655   0.489   2.971   1.775  3.1879 -0.7378  0.0108
15414TIP3   OH267656   3.176   4.502   5.604 -0.3353  0.1477  0.3806
15414TIP3    H167657   3.207   4.577   5.654 -0.9115  1.5081 -1.1903
15414TIP3    H267658   3.095   4.532   5.563 -0.1436 -1.0230 -0.9593
15415TIP3   OH267659   6.422   4.096   0.611 -0.1084  0.2981  0.2280
15415TIP3    H167660   6.368   4.170   0.584 -0.1390 -0.6335 -2.5555
15415TIP3    H267661   6.395   4.079   0.701 -5.0173 -0.4498 -1.0653
15416TIP3   OH267662   2.783   1.223  17.186 -0.0042 -0.8037 -0.1251
15416TIP3    H167663   2.747   1.180  17.108 -1.5154 -2.1394  1.2399
15416TIP3    H267664   2.751   1.314  17.179  1.7075 -0.2670 -2.1100
15417TIP3   OH267665   2.489   5.825  10.584 -0.4199  0.4568 -0.4031
15417TIP3    H167666   2.480   5.765  10.510  1.3503  1.4323 -1.4995
15417TIP3    H267667   2.484   5.912  10.545  2.8378  1.0281  0.1596
15418TIP3   OH267668   5.307   4.613   0.429  0.0471  0.0827  0.9385
15418TIP3    H167669   5.232   4.556   0.410 -0.1344  1.3257 -2.8607
15418TIP3    H267670   5.384   4.557   0.417 -0.2025 -0.0159 -0.4082
15419TIP3   OH267671   4.548   5.117  16.082 -0.7055  0.2510 -0.0453
15419TIP3    H167672   4.518   5.207  16.095 -0.4914  0.6848 -2.0797
15419TIP3    H267673   4.509   5.091  15.998  0.4594 -0.9872 -0.2431
15420TIP3   OH267674   3.511   3.413   0.264  0.5002  0.2556 -0.1232
15420TIP3    H167675   3.518   3.509   0.259  1.8605  0.1192 -1.7008
15420TIP3    H267676   3.565   3.389   0.339 -0.0343  0.7152  0.4240
15421TIP3   OH267677   2.272   4.884   0.787 -0.2342 -0.1921  0.0851
15421TIP3    H167678   2.266   4.973   0.752  1.4291  0.3273  1.0090
15421TIP3    H267679   2.359   4.853   0.760 -0.1138 -0.8826  1.2069
15422TIP3   OH267680   2.346   0.153   0.502 -0.1974  0.5923 -0.2363
15422TIP3    H167681   2.386   0.081   0.552  2.7501  3.7478  2.4710
15422TIP3    H267682   2.261   0.166   0.544  1.4389  1.9320  3.0090
15423TIP3   OH267683   4.559   4.576   3.261  0.2982 -0.0569  0.5069
15423TIP3    H167684   4.494   4.541   3.201 -2.5088  1.2199  2.5717
15423TIP3    H267685   4.561   4.670   3.244 -0.4730  0.3165  2.2537
15424TIP3   OH267686   6.383   2.633   1.260  0.0994  0.2012 -0.4254
15424TIP3    H167687   6.447   2.704   1.256 -1.0740  1.3036 -0.5321
15424TIP3    H267688   6.368   2.620   1.353 -0.2543  0.6570 -0.4118
15425TIP3   OH267689   3.956   0.145  13.856 -0.4164  0.8116 -0.0483
15425TIP3    H167690   4.037   0.173  13.814 -1.4688  3.3838 -0.5113
15425TIP3    H267691   3.982   0.070  13.910  2.5980  2.4410  1.0059
15426TIP3   OH267692   3.035   0.088  11.893  0.3914 -0.0466  0.2821
15426TIP3    H167693   3.064   0.175  11.868  0.5417  0.0621  0.8166
15426TIP3    H267694   3.107   0.053  11.946 -0.5551  0.3385  1.8742
15427TIP3   OH267695   6.063   3.485   0.704  0.0219  0.1513 -0.0186
15427TIP3    H167696   6.008   3.453   0.632 -0.1119  0.0662  0.1227
15427TIP3    H267697   6.119   3.550   0.662 -1.3269  1.4869  0.1585
15428TIP3   OH267698   1.629   1.749   1.917  0.3005  0.2253  0.1697
15428TIP3    H167699   1.669   1.836   1.916  0.8887 -0.0372 -0.4146
15428TIP3    H267700   1.699   1.691   1.886 -0.5876 -0.2259 -1.0522
15429TIP3   OH267701   1.614   3.229   3.150 -0.0823 -0.0873  0.4480
15429TIP3    H167702   1.575   3.207   3.235 -2.2030  1.0567 -0.1586
15429TIP3    H267703   1.540   3.233   3.090  1.2367  0.2705 -1.2319
15430TIP3   OH267704   1.365   3.530   1.861  0.7624  0.0657  0.0731
15430TIP3    H167705   1.347   3.467   1.931 -2.0313 -1.1052 -1.5551
15430TIP3    H267706   1.319   3.609   1.888  3.5184  1.2955  1.6665
15431TIP3   OH267707   6.697   1.103  13.423  0.3121  0.3372  0.1473
15431TIP3    H167708   6.704   1.042  13.349 -0.2774  1.0443 -0.5027
15431TIP3    H267709   6.719   1.049  13.500 -0.0887 -0.6692 -0.4214
15432TIP3   OH267710   4.982   4.770  16.374 -0.0263 -0.0831  0.2174
15432TIP3    H167711   5.004   4.753  16.465 -1.4930 -0.1441  0.5784
15432TIP3    H267712   4.886   4.767  16.371  0.0105 -2.5844 -1.7877
15433TIP3   OH267713   4.527   2.475  15.734  0.2563 -0.1237 -0.2593
15433TIP3    H167714   4.517   2.475  15.830  1.2276 -1.1367 -0.1418
15433TIP3    H267715   4.502   2.386  15.708  1.7135 -0.4084 -0.7477
15434TIP3   OH267716   3.622   0.931   4.086 -0.3687 -0.1296  0.3217
15434TIP3    H167717   3.564   0.967   4.154  0.2557  0.8382  0.3568
15434TIP3    H267718   3.706   0.973   4.101  0.0150 -0.5698 -0.5147
15435TIP3   OH267719   1.839   3.589   3.175  0.1067 -0.0201 -0.0878
15435TIP3    H167720   1.767   3.571   3.114 -0.1880 -0.7146  0.4472
15435TIP3    H267721   1.873   3.502   3.198  0.7231  0.2751  0.1312
15436TIP3   OH267722   5.413   4.502  15.611  0.6877  0.4160  0.7507
15436TIP3    H167723   5.427   4.427  15.553 -1.7371  0.3424  0.1454
15436TIP3    H267724   5.424   4.578  15.554  1.6444  0.4735  1.0070
15437TIP3   OH267725   0.961   1.351   3.709  0.0010  0.0850  0.0378
15437TIP3    H167726   1.048   1.348   3.670  0.0325 -0.4369  0.1408
15437TIP3    H267727   0.976   1.373   3.801  0.1713 -1.5743  0.4511
15438TIP3   OH267728   1.072   4.947  16.518 -0.1861  0.1296 -0.2166
15438TIP3    H167729   1.137   4.954  16.588 -1.0266 -0.2057  0.6186
15438TIP3    H267730   1.059   4.852  16.508 -1.0290  0.2028  0.0973
15439TIP3   OH267731   0.494   2.534  15.742 -0.4005  0.4916 -0.3707
15439TIP3    H167732   0.529   2.622  15.727 -0.9572  0.8045  0.1426
15439TIP3    H267733   0.408   2.535  15.698 -0.4022  0.1968 -0.3764
15440TIP3   OH267734   4.186   1.386  15.786  0.0250 -0.3366  0.1435
15440TIP3    H167735   4.128   1.320  15.748 -0.7129  1.3270 -1.7964
15440TIP3    H267736   4.269   1.375  15.740 -0.1820  0.2486 -0.3761
15441TIP3   OH267737   0.508   5.647   3.724 -0.1432  0.6353  0.0816
15441TIP3    H167738   0.469   5.708   3.786 -1.1803  0.0547  0.0277
15441TIP3    H267739   0.587   5.615   3.768 -0.8139  0.3023  1.0710
15442TIP3   OH267740   2.199   0.070  12.594 -0.0074 -0.0861  0.5125
15442TIP3    H167741   2.157   0.001  12.646  0.2640 -0.4249  0.2897
15442TIP3    H267742   2.290   0.043  12.587  0.0752  0.2368  0.3206
15443TIP3   OH267743   1.049   3.459  11.352 -0.2897 -1.1363 -0.0212
15443TIP3    H167744   1.048   3.491  11.262 -0.3222 -0.1284  0.3302
15443TIP3    H267745   0.959   3.431  11.368 -0.4437 -0.6875 -0.0848
15444TIP3   OH267746   3.167   4.193  10.926 -0.0402  0.0827 -0.0305
15444TIP3    H167747   3.117   4.262  10.971 -0.1069 -0.9355  1.5418
15444TIP3    H267748   3.156   4.212  10.833 -0.7805  1.6763  0.3481
15445TIP3   OH267749   2.954   6.359  16.453  0.1300  0.2928 -0.4345
15445TIP3    H167750   3.039   6.321  16.430  0.2985  0.4840 -0.1395
15445TIP3    H267751   2.893   6.320  16.390  0.2340 -0.7417  0.0812
15446TIP3   OH267752   3.059   3.348  16.225 -0.0984 -0.9330  0.1182
15446TIP3    H167753   2.967   3.321  16.222 -0.4032 -0.0810  1.2498
15446TIP3    H267754   3.074   3.376  16.315  1.4271 -1.5357  0.0889
15447TIP3   OH267755   0.290   2.082   4.983 -0.8001  0.2023  0.0746
15447TIP3    H167756   0.232   2.151   5.013 -0.6352 -0.4956  2.1695
15447TIP3    H267757   0.363   2.083   5.046  1.3072  0.7797 -2.2025
15448TIP3   OH267758   6.009   2.242   5.405 -0.4142 -0.4788  0.9834
15448TIP3    H167759   5.961   2.169   5.444 -0.7345 -0.1579  1.2108
15448TIP3    H267760   5.942   2.292   5.358 -0.0217 -0.8853 -0.0337
15449TIP3   OH267761   3.745   2.253  14.994  0.3070  0.3355 -0.3341
15449TIP3    H167762   3.756   2.348  14.988  0.6665  0.2920 -0.3886
15449TIP3    H267763   3.827   2.222  15.031  0.4191 -0.0134 -0.8642
15450TIP3   OH267764   3.818   2.880   2.458  0.6830  0.1925 -0.1531
15450TIP3    H167765   3.779   2.793   2.467  2.7661 -0.8923 -0.9015
15450TIP3    H267766   3.788   2.928   2.536 -3.1843  0.0044 -1.3154
15451TIP3   OH267767   6.522   4.719   6.261  0.0614  0.7115 -0.1786
15451TIP3    H167768   6.593   4.775   6.294 -1.4046  1.4275  2.0076
15451TIP3    H267769   6.552   4.630   6.281  0.9112  0.9184 -0.4867
15452TIP3   OH267770   0.238   2.965  11.417  0.2094  0.2415 -0.3447
15452TIP3    H167771   0.209   3.047  11.457  3.2452  1.2163  0.0558
15452TIP3    H267772   0.272   2.991  11.331  3.7766  0.0050  0.8433
15453TIP3   OH267773   1.890   5.477  15.453 -0.7816  0.4302 -0.0122
15453TIP3    H167774   1.811   5.499  15.502 -0.2390  1.7365  0.3375
15453TIP3    H267775   1.860   5.422  15.381 -1.5442 -2.0191  2.0194
15454TIP3   OH267776   3.328   0.077  15.047  0.1919 -0.2383  0.2431
15454TIP3    H167777   3.319   0.035  15.133  0.3677 -0.6459  0.0632
15454TIP3    H267778   3.418   0.060  15.021  0.1027 -0.2225 -0.0805
15455TIP3   OH267779   1.260   5.526   2.370  0.2802 -0.4158  0.6336
15455TIP3    H167780   1.350   5.550   2.346 -0.4335 -0.5150 -2.5882
15455TIP3    H267781   1.243   5.574   2.451  1.5991  3.6707 -1.2553
15456TIP3   OH267782   4.431   6.006  12.399 -0.0029 -0.2864  0.1365
15456TIP3    H167783   4.436   5.932  12.460 -1.5188 -0.9456 -0.5054
15456TIP3    H267784   4.515   6.004  12.353  0.3563 -1.0128  0.7973
15457TIP3   OH267785   0.481   2.827   2.197 -0.1456 -0.0777  0.1263
15457TIP3    H167786   0.485   2.756   2.261 -0.4248 -1.7939 -1.6924
15457TIP3    H267787   0.515   2.790   2.116 -1.3087  1.5221 -1.1784
15458TIP3   OH267788   5.927   3.582  15.183 -0.0005  0.1598  0.2070
15458TIP3    H167789   6.008   3.558  15.229 -0.8391 -2.2140  0.5797
15458TIP3    H267790   5.857   3.548  15.238 -1.0793 -2.2653 -2.4248
15459TIP3   OH267791   3.288   4.558  14.246  0.1502  0.0554 -0.3629
15459TIP3    H167792   3.226   4.574  14.317  0.1686 -0.1895 -0.2920
15459TIP3    H267793   3.272   4.629  14.184  1.6827  1.6370  0.9293
15460TIP3   OH267794   4.161   0.039  15.535  0.6896 -0.1475 -0.3004
15460TIP3    H167795   4.094  -0.023  15.505  1.1766 -0.3596 -0.9809
15460TIP3    H267796   4.114   0.122  15.545  0.4805 -0.0724 -1.6650
15461TIP3   OH267797   2.570   3.083   1.400 -0.0080  0.5492  0.8594
15461TIP3    H167798   2.551   3.169   1.438  0.0386  0.9857 -0.0904
15461TIP3    H267799   2.621   3.102   1.321 -0.8431 -0.2910  0.0968
15462TIP3   OH267800   6.764   1.913  16.608  0.2070  0.0399 -0.1273
15462TIP3    H167801   6.727   2.000  16.592 -0.5349  0.0887  1.6617
15462TIP3    H267802   6.692   1.863  16.646  0.7155 -1.2866 -0.8344
15463TIP3   OH267803   5.489   2.799   6.616 -0.1638 -0.0527  0.3464
15463TIP3    H167804   5.514   2.872   6.673 -0.5502 -0.1020  0.5865
15463TIP3    H267805   5.425   2.749   6.668  0.0814 -0.5515  0.1769
15464TIP3   OH267806   6.300   2.611  11.380  0.6639  0.2124 -0.7030
15464TIP3    H167807   6.245   2.546  11.425 -0.0109  0.3963 -1.2457
15464TIP3    H267808   6.321   2.676  11.447  0.5391 -0.0660 -0.3949
15465TIP3   OH267809   3.355   2.427  11.817 -0.4327 -0.3313 -0.5006
15465TIP3    H167810   3.377   2.339  11.849  0.2571 -0.4829 -1.3395
15465TIP3    H267811   3.401   2.486  11.877  0.7086 -0.6056 -1.0847
15466TIP3   OH267812   5.121   6.491   2.803 -0.4927 -0.0773 -0.5022
15466TIP3    H167813   5.140   6.559   2.868 -0.3707 -0.5589 -0.0323
15466TIP3    H267814   5.179   6.512   2.730 -1.1956  0.9355 -0.7937
15467TIP3   OH267815   0.933   0.419  11.867  0.0113 -0.0843 -0.0519
15467TIP3    H167816   0.896   0.507  11.878 -0.6912 -0.2978 -0.6348
15467TIP3    H267817   1.015   0.421  11.917 -1.2141  0.1058  2.0234
15468TIP3   OH267818   2.502   1.236   1.729 -0.5313  0.4784  0.0525
15468TIP3    H167819   2.545   1.320   1.746  0.3927  0.2115 -0.8703
15468TIP3    H267820   2.451   1.219   1.808  1.2797  0.6775  1.3326
15469TIP3   OH267821   3.860   1.240   6.391  0.2010 -0.0735  0.1087
15469TIP3    H167822   3.877   1.155   6.433  0.7368 -0.5888 -1.0715
15469TIP3    H267823   3.777   1.269   6.427  0.1781 -0.9342  0.7935
15470TIP3   OH267824   5.559   4.316  14.095 -0.7415 -0.4645 -0.4671
15470TIP3    H167825   5.586   4.226  14.112 -0.2941  0.1463  2.5086
15470TIP3    H267826   5.510   4.342  14.173 -0.2497  2.1127 -0.9173
15471TIP3   OH267827   4.428   1.429  12.620  0.6261  0.3756 -0.2740
15471TIP3    H167828   4.483   1.458  12.547  3.4800  2.5261  2.4453
15471TIP3    H267829   4.485   1.373  12.673 -0.3545  1.1207  1.6939
15472TIP3   OH267830   6.577   3.582   3.536 -0.1317  0.3262 -0.6977
15472TIP3    H167831   6.568   3.648   3.604  0.0533 -0.7032  0.3728
15472TIP3    H267832   6.659   3.537   3.558 -0.8681 -1.0459 -0.6589
15473TIP3   OH267833   4.447   3.497   4.641  0.0123  0.5705  0.1975
15473TIP3    H167834   4.410   3.584   4.656  1.4618  1.2246  0.0902
15473TIP3    H267835   4.410   3.470   4.557 -0.1025  1.2650  0.0179
15474TIP3   OH267836   6.247   5.658  15.745 -0.4956 -0.4378  0.3930
15474TIP3    H167837   6.214   5.586  15.798  0.2891 -0.5929  0.6941
15474TIP3    H267838   6.339   5.635  15.728 -0.4785  0.0722 -0.2323
15475TIP3   OH267839   3.228   3.620  15.524  0.0039 -0.1552 -0.2227
15475TIP3    H167840   3.269   3.541  15.490  1.8046  0.6402 -0.0057
15475TIP3    H267841   3.169   3.648  15.454 -0.6930 -1.6726 -0.2848
15476TIP3   OH267842   0.588   1.373   5.406  0.0469 -0.7431 -0.5254
15476TIP3    H167843   0.594   1.332   5.492 -1.8775  0.7454  0.4294
15476TIP3    H267844   0.573   1.301   5.345  1.6345 -1.8404  0.3218
15477TIP3   OH267845   6.667   0.293  10.898  0.4283 -0.1610  0.5528
15477TIP3    H167846   6.616   0.213  10.889 -0.0747  0.1830  0.2890
15477TIP3    H267847   6.603   0.363  10.888  0.5169  0.2900  2.6411
15478TIP3   OH267848   3.725   3.960  14.772 -0.5053  0.4057 -0.0434
15478TIP3    H167849   3.677   3.880  14.751  1.3084 -0.5520 -0.7034
15478TIP3    H267850   3.817   3.937  14.761  0.0816  2.5049  0.0368
15479TIP3   OH267851   5.254   0.863  11.088 -0.1152 -0.1911  0.2584
15479TIP3    H167852   5.194   0.834  11.019  1.7155  1.1883 -2.0865
15479TIP3    H267853   5.294   0.783  11.121  0.9476 -0.8292 -2.3089
15480TIP3   OH267854   5.147   1.868  14.606 -0.1943  0.4730 -0.1624
15480TIP3    H167855   5.199   1.948  14.605  2.2067 -0.9773 -0.9675
15480TIP3    H267856   5.096   1.871  14.525  1.0975  0.4961 -1.0075
15481TIP3   OH267857   5.543   0.640   2.460  0.0508  0.3874  0.3727
15481TIP3    H167858   5.523   0.580   2.388  0.6148 -0.5783  1.0049
15481TIP3    H267859   5.528   0.588   2.539  0.6601  1.0423  0.9252
15482TIP3   OH267860   5.238   5.689   5.391 -0.0591  0.5669 -0.3601
15482TIP3    H167861   5.168   5.640   5.433 -1.3414  2.3629 -0.2796
15482TIP3    H267862   5.238   5.658   5.301 -0.9497  0.5054 -0.3485
15483TIP3   OH267863   3.515   1.540  11.681  0.5399  0.2467  0.0291
15483TIP3    H167864   3.553   1.455  11.657 -0.5836  0.0480 -1.0774
15483TIP3    H267865   3.508   1.588  11.599 -0.4838  0.7326  0.3843
15484TIP3   OH267866   3.958   4.922  14.864 -0.0678 -0.2853 -0.3068
15484TIP3    H167867   4.050   4.902  14.850  0.7102  0.7881  2.5184
15484TIP3    H267868   3.931   4.862  14.934 -0.4747  1.5969  1.2614
15485TIP3   OH267869   1.420   4.060  16.132  0.5495 -0.3525  0.4676
15485TIP3    H167870   1.504   4.040  16.174  0.3461 -0.1768  0.9747
15485TIP3    H267871   1.433   4.039  16.040  0.9698 -0.8816  0.6415
15486TIP3   OH267872   3.189   6.356  11.335 -0.1660  0.2619 -1.2680
15486TIP3    H167873   3.202   6.320  11.248  1.1845  2.2695 -1.9688
15486TIP3    H267874   3.169   6.448  11.320  0.9057  0.8463  0.5508
15487TIP3   OH267875   5.594   6.121   3.548 -0.3202  0.1512 -0.4046
15487TIP3    H167876   5.610   6.177   3.472  0.0156 -2.0066 -2.0263
15487TIP3    H267877   5.675   6.073   3.560 -0.7904 -0.4249  0.5716
15488TIP3   OH267878   4.222   2.054   2.155 -0.1581 -0.3559 -0.4256
15488TIP3    H167879   4.283   2.128   2.150  0.4701 -0.5647  2.3815
15488TIP3    H267880   4.148   2.088   2.206  1.6590 -2.3693  4.0900
15489TIP3   OH267881   3.953   0.152  15.300 -0.0479 -0.0276 -0.5766
15489TIP3    H167882   3.924   0.242  15.283 -0.5444  0.1312  0.9359
15489TIP3    H267883   4.036   0.144  15.253  0.1134  1.2876 -0.5546
15490TIP3   OH267884   5.988   2.338  16.175 -0.2574 -0.2091 -0.5268
15490TIP3    H167885   5.921   2.305  16.235  0.0963 -1.3316 -0.7275
15490TIP3    H267886   5.939   2.388  16.110 -0.9749 -1.3374 -0.8917
15491TIP3   OH267887   0.220   4.359   4.869  0.2185 -0.1713  0.2375
15491TIP3    H167888   0.247   4.401   4.951  1.4047 -0.6498  0.1161
15491TIP3    H267889   0.147   4.302   4.893  0.8595 -0.6600  1.0539
15492TIP3   OH267890   3.232   3.010  14.785 -0.9065  0.3537  0.0946
15492TIP3    H167891   3.137   3.011  14.789 -0.8917 -0.5889  2.3488
15492TIP3    H267892   3.255   2.918  14.777 -0.1825  0.5387 -0.0242
15493TIP3   OH267893   0.809   6.775  15.675 -0.1713  0.0594 -0.2234
15493TIP3    H167894   0.892   6.727  15.680 -0.8115 -1.0225  0.6528
15493TIP3    H267895   0.745   6.709  15.648 -0.7788  0.8543 -0.7845
15494TIP3   OH267896   2.805   0.070  12.892 -0.0464 -0.3053  0.6459
15494TIP3    H167897   2.817   0.165  12.887 -0.8704 -0.2017  0.6075
15494TIP3    H267898   2.885   0.034  12.854  1.1502  0.3464  2.3979
15495TIP3   OH267899   0.783   2.397   1.281 -0.0789  0.2723 -0.7196
15495TIP3    H167900   0.816   2.483   1.309 -2.1704  0.3472  2.0494
15495TIP3    H267901   0.757   2.409   1.190 -1.2370  2.9679 -0.1417
15496TIP3   OH267902   3.794   1.155  14.754  0.0045  0.1573  0.0339
15496TIP3    H167903   3.763   1.114  14.673 -0.3292 -0.6509  0.5504
15496TIP3    H267904   3.765   1.095  14.823  0.3990  0.7660  0.7407
15497TIP3   OH267905   4.639   1.557   3.938 -0.3569  0.0927  0.1072
15497TIP3    H167906   4.687   1.585   3.860 -2.2794  1.0034 -0.8226
15497TIP3    H267907   4.655   1.625   4.003  1.8146 -1.0135  0.8074
15498TIP3   OH267908   0.324   0.810   3.245 -0.2153  0.2416  0.0498
15498TIP3    H167909   0.410   0.835   3.280 -0.5605  2.1785 -0.3804
15498TIP3    H267910   0.294   0.740   3.303  0.3266  1.6473  2.1388
15499TIP3   OH267911   2.626   6.460   5.472 -0.3719  0.5861  0.2278
15499TIP3    H167912   2.562   6.403   5.515  0.0642  0.2475  0.4453
15499TIP3    H267913   2.624   6.541   5.522 -0.8122  0.6650  0.0788
15500TIP3   OH267914   4.671   0.399  16.144  0.1889 -0.0915 -0.0124
15500TIP3    H167915   4.623   0.377  16.064  0.8624  1.8097 -1.0102
15500TIP3    H267916   4.751   0.347  16.138  0.0629 -0.2500 -0.3810
15501TIP3   OH267917   3.852   5.426  16.758 -0.1452 -0.1698  0.1509
15501TIP3    H167918   3.769   5.380  16.765 -0.6280  0.3913 -1.3925
15501TIP3    H267919   3.873   5.424  16.664  0.7074  1.1622  0.2789
15502TIP3   OH267920   4.356   4.689  16.323  0.6742 -0.1040  0.3459
15502TIP3    H167921   4.306   4.680  16.403 -1.1016 -1.3999 -0.8463
15502TIP3    H267922   4.403   4.606  16.314 -0.8780 -0.8927 -1.0211
15503TIP3   OH267923   3.101   5.809  16.316 -0.0014 -0.8844 -0.5428
15503TIP3    H167924   3.086   5.764  16.399  0.1311 -1.5245 -0.8585
15503TIP3    H267925   3.146   5.890  16.340 -1.0544 -0.4757  0.1160
15504TIP3   OH267926   5.483   5.714   5.500 -0.0382  0.0018  0.2195
15504TIP3    H167927   5.471   5.664   5.580 -1.4817  2.2875  1.5581
15504TIP3    H267928   5.397   5.714   5.458  0.6959 -1.1397 -1.3559
15505TIP3   OH267929   4.940   6.577  12.695 -0.7224 -0.0688  0.2164
15505TIP3    H167930   5.012   6.638  12.713 -0.7140 -0.0214  0.0206
15505TIP3    H267931   4.894   6.570  12.778 -0.2800 -0.3750  0.4407
15506TIP3   OH267932   4.959   2.647   2.123 -0.3477 -0.4944  0.1920
15506TIP3    H167933   5.010   2.716   2.166  0.5196  0.3187 -1.9757
15506TIP3    H267934   4.913   2.603   2.194 -0.5162  1.9792  1.7391
15507TIP3   OH267935   1.040   0.169  14.507  0.5077 -0.2334 -0.1243
15507TIP3    H167936   1.062   0.262  14.520 -2.1325  0.3891  0.5164
15507TIP3    H267937   1.016   0.138  14.594 -1.0258 -0.7995 -0.7262
15508TIP3   OH267938   5.714   1.050   4.258  0.1018 -0.8212  0.1582
15508TIP3    H167939   5.693   1.020   4.170  1.3405  1.0772 -0.8308
15508TIP3    H267940   5.630   1.051   4.304 -1.0457  0.8991 -1.8728
15509TIP3   OH267941   4.049   3.310  12.385 -0.3782 -0.2072 -0.1648
15509TIP3    H167942   4.131   3.263  12.398 -0.2575 -0.0582 -0.3988
15509TIP3    H267943   3.985   3.241  12.365 -0.6326 -0.4884  1.4278
15510TIP3   OH267944   4.872   2.206   2.886  0.6533 -0.1560 -0.5105
15510TIP3    H167945   4.871   2.219   2.981  0.1952  1.4943 -0.7036
15510TIP3    H267946   4.819   2.279   2.852  0.9689 -0.6158 -2.0425
15511TIP3   OH267947   1.128   4.587   1.815 -0.3203  0.5211  0.1684
15511TIP3    H167948   1.191   4.600   1.743  0.7282 -2.1318  0.4986
15511TIP3    H267949   1.175   4.533   1.878 -1.9051  1.1439  1.9658
15512TIP3   OH267950   1.151   0.899  16.483 -0.0603  0.2355  0.3284
15512TIP3    H167951   1.100   0.882  16.562  0.8461 -0.4271  0.7933
15512TIP3    H267952   1.172   0.992  16.487 -1.4313  0.5878 -0.0146
15513TIP3   OH267953   1.069   2.813   3.096  0.0961 -0.3154 -0.0327
15513TIP3    H167954   1.105   2.885   3.045 -1.4651  1.4715  1.2208
15513TIP3    H267955   1.143   2.778   3.145  0.7443  1.1377  0.0807
15514TIP3   OH267956   3.799   5.631   6.324  0.0035 -0.1175 -0.0606
15514TIP3    H167957   3.830   5.714   6.290  0.6203  0.5369  1.9367
15514TIP3    H267958   3.787   5.647   6.418 -0.7814 -2.0127  0.2069
15515TIP3   OH267959   4.762   0.815   1.800  0.2014  0.1778 -0.0736
15515TIP3    H167960   4.844   0.766   1.804 -0.0471 -0.4647 -1.9464
15515TIP3    H267961   4.729   0.798   1.712 -0.8512  2.2011 -0.1075
15516TIP3   OH267962   4.376   5.842  10.893 -0.4038 -0.4523  0.1966
15516TIP3    H167963   4.344   5.819  10.980  0.7375 -0.6323  0.5850
15516TIP3    H267964   4.458   5.793  10.884 -0.4177 -0.2937 -0.9097
15517TIP3   OH267965   0.194   1.456  13.200  0.2188  0.4994 -0.1123
15517TIP3    H167966   0.212   1.442  13.107 -0.9585 -0.0219 -0.2719
15517TIP3    H267967   0.242   1.386  13.244 -1.9187 -1.3678 -0.5901
15518TIP3   OH267968   3.988   5.118  13.757 -0.2143 -0.1220 -0.2334
15518TIP3    H167969   4.024   5.198  13.719 -1.0898  0.2773 -0.2499
15518TIP3    H267970   4.025   5.115  13.846 -1.4733  1.2222  0.3782
15519TIP3   OH267971   6.700   4.491   5.092 -0.4047  0.5823  0.1358
15519TIP3    H167972   6.636   4.487   5.021 -1.8343  1.4934  1.3117
15519TIP3    H267973   6.654   4.536   5.163  1.2180  0.3497  1.3892
15520TIP3   OH267974   3.054   5.562  10.327  0.0574 -0.0065  0.5017
15520TIP3    H167975   3.101   5.625  10.272  0.7834 -0.7153  0.2795
15520TIP3    H267976   3.085   5.580  10.416  2.1429 -1.5579  0.1875
15521TIP3   OH267977   4.467   1.576  13.590  0.2598  0.5848 -0.3123
15521TIP3    H167978   4.413   1.527  13.528  0.7287 -0.7834  0.3233
15521TIP3    H267979   4.423   1.660  13.598 -1.3062 -0.1837 -0.4705
15522TIP3   OH267980   6.300   0.663  12.970 -0.3829  0.2710 -0.1173
15522TIP3    H167981   6.291   0.593  13.035 -2.4948  0.0357 -0.5809
15522TIP3    H267982   6.324   0.618  12.890  0.6925  0.3884  0.1230
15523TIP3   OH267983   2.652   1.827   3.205  0.8895  0.0681 -0.1334
15523TIP3    H167984   2.724   1.830   3.267  0.1588 -0.0165  0.7327
15523TIP3    H267985   2.694   1.809   3.120  1.8771  0.0485  0.3518
15524TIP3   OH267986   6.251   6.212   6.440 -0.1196 -0.2282  0.1249
15524TIP3    H167987   6.163   6.176   6.428  1.0689 -2.6165 -2.4475
15524TIP3    H267988   6.305   6.137   6.464  1.5218  0.8629  0.0176
15525TIP3   OH267989   0.651   3.811   6.201 -0.2859  0.2433  0.4448
15525TIP3    H167990   0.730   3.856   6.232 -0.0338 -1.3015  2.2210
15525TIP3    H267991   0.579   3.861   6.239 -0.0458 -0.0865  1.3612
15526TIP3   OH267992   5.840   2.216  11.202 -0.0560 -0.2519  0.4249
15526TIP3    H167993   5.775   2.238  11.136 -1.7593 -1.9111  1.4593
15526TIP3    H267994   5.894   2.148  11.161  1.7237  1.7576 -0.7691
15527TIP3   OH267995   6.123   1.141  12.397 -0.1875  0.5226  0.3968
15527TIP3    H167996   6.076   1.058  12.389 -0.2026  0.5969 -0.3634
15527TIP3    H267997   6.145   1.148  12.490 -2.1293  0.7223  0.8862
15528TIP3   OH267998   1.904   0.220  16.507  0.1567  0.1230  0.1602
15528TIP3    H167999   1.905   0.130  16.539 -1.1197  0.2673  0.6618
15528TIP3    H268000   1.839   0.219  16.436  1.6969  0.1941 -1.3243
15529TIP3   OH268001   5.104   6.195  16.924  0.3141  0.6384  0.0605
15529TIP3    H168002   5.166   6.191  16.997  0.0224  0.0979  0.2807
15529TIP3    H268003   5.112   6.109  16.881  0.4652  0.9402 -0.5312
15530TIP3   OH268004   6.237   6.478  15.675 -0.2262  0.4179 -0.0236
15530TIP3    H168005   6.251   6.535  15.750 -0.2885  0.6389 -0.1789
15530TIP3    H268006   6.156   6.431  15.695 -0.3093  0.5678 -0.0083
15531TIP3   OH268007   1.223   4.394  14.345 -0.3134  0.2725  0.2449
15531TIP3    H168008   1.206   4.483  14.316 -1.4035 -0.2845 -0.8886
15531TIP3    H268009   1.142   4.346  14.328  0.6801 -1.2508 -0.4175
15532TIP3   OH268010   2.522   5.388   6.059 -0.0420  0.1435 -0.2006
15532TIP3    H168011   2.549   5.371   6.149 -0.8698  1.4559  0.3168
15532TIP3    H268012   2.596   5.357   6.006  1.2475  0.9848  1.0122
15533TIP3   OH268013   6.279   2.109   4.877 -0.8509 -0.1391  0.6843
15533TIP3    H168014   6.250   2.082   4.790 -1.3181 -1.8844  1.3408
15533TIP3    H268015   6.356   2.163   4.860 -1.2974  0.0934 -0.8279
15534TIP3   OH268016   0.448   3.918  17.205  0.1509  0.4872  0.0429
15534TIP3    H168017   0.436   3.823  17.214  1.4657  0.5315  3.5523
15534TIP3    H268018   0.363   3.949  17.174 -0.7840 -1.6790  0.2332
15535TIP3   OH268019   1.812   2.153   6.454 -0.3394  0.3365 -0.0964
15535TIP3    H168020   1.863   2.168   6.533 -0.5240 -1.8219  0.5120
15535TIP3    H268021   1.852   2.209   6.388  0.6465  1.2085  1.2014
15536TIP3   OH268022   2.585   6.285  14.117 -0.3184  0.2584 -0.4888
15536TIP3    H168023   2.533   6.332  14.051  0.6840  0.2663 -1.3102
15536TIP3    H268024   2.619   6.354  14.174  0.4180  0.4614 -1.1568
15537TIP3   OH268025   5.908   6.670   0.757 -0.0835 -0.3384  0.6676
15537TIP3    H168026   5.981   6.608   0.768  0.5543  0.3007  0.1960
15537TIP3    H268027   5.873   6.650   0.671  0.1245 -0.0557  0.5139
15538TIP3   OH268028   2.130   2.497   5.381  0.0816 -0.5043 -0.1219
15538TIP3    H168029   2.214   2.503   5.425  0.1723 -0.8098 -0.2537
15538TIP3    H268030   2.146   2.442   5.304 -0.0983 -0.0608 -0.4857
15539TIP3   OH268031   4.697   0.924   3.510 -0.3152 -0.1634 -0.8968
15539TIP3    H168032   4.668   0.836   3.488  2.7455 -1.3385 -0.7162
15539TIP3    H268033   4.708   0.967   3.425 -1.3620 -0.1105 -1.0082
15540TIP3   OH268034   5.718   3.927   1.778  0.2127  0.2276 -0.2680
15540TIP3    H168035   5.624   3.908   1.777  0.1434  0.4810  0.6674
15540TIP3    H268036   5.760   3.842   1.788 -0.0628  0.3489  2.9651
15541TIP3   OH268037   0.607   1.979   2.708  0.8315 -0.4201 -0.1068
15541TIP3    H168038   0.525   1.947   2.672  1.3650 -0.2851 -1.5330
15541TIP3    H268039   0.610   2.071   2.682  1.2795 -0.3341  0.2361
15542TIP3   OH268040   3.934   1.697  11.659  0.1515 -0.2467  0.0528
15542TIP3    H168041   3.949   1.606  11.632  1.8764 -0.3788  1.2712
15542TIP3    H268042   3.839   1.707  11.656 -0.1863 -2.4295  0.8657
15543TIP3   OH268043   5.554   6.260   0.896 -0.1513 -0.5050 -0.1415
15543TIP3    H168044   5.644   6.260   0.931 -0.3331 -0.5411  0.3372
15543TIP3    H268045   5.528   6.352   0.899 -0.2920 -0.5525  0.1559
15544TIP3   OH268046   5.975   2.336   6.397  0.6980 -0.0731 -0.3008
15544TIP3    H168047   5.990   2.244   6.378  1.3698  0.1132 -0.6941
15544TIP3    H268048   5.996   2.345   6.490  0.3502 -0.3723 -0.1920
15545TIP3   OH268049   2.486   0.416   5.452 -0.0185  0.4150  0.0853
15545TIP3    H168050   2.492   0.377   5.365 -1.4341  0.9359 -0.2797
15545TIP3    H268051   2.521   0.350   5.511 -2.2664 -1.4469 -0.5046
15546TIP3   OH268052   4.201   3.556  13.729 -0.1510 -0.4313  0.3291
15546TIP3    H168053   4.116   3.574  13.688 -0.4845 -1.7827  0.4024
15546TIP3    H268054   4.220   3.465  13.706  1.1490 -0.2322  0.5575
15547TIP3   OH268055   3.562   1.995  17.166 -0.0384  0.2534  0.0603
15547TIP3    H168056   3.479   1.957  17.139 -0.4495  1.7182 -0.8610
15547TIP3    H268057   3.551   2.012  17.260 -0.3384 -0.5895  0.1926
15548TIP3   OH268058   6.413   1.542  13.818 -0.0832  0.0542 -0.2370
15548TIP3    H168059   6.443   1.496  13.740  0.9505  0.9656 -0.4109
15548TIP3    H268060   6.493   1.577  13.857 -0.8575  2.9333 -0.9321
15549TIP3   OH268061   0.712   1.063  13.307 -0.4429 -0.4252 -0.2294
15549TIP3    H168062   0.745   1.115  13.234 -1.5379 -0.1412 -0.5385
15549TIP3    H268063   0.637   1.113  13.340 -1.3927 -1.6975 -0.3895
15550TIP3   OH268064   0.857   5.739   2.321  0.2862  1.1846 -0.0988
15550TIP3    H168065   0.937   5.733   2.269 -0.7104  0.5161 -1.6169
15550TIP3    H268066   0.793   5.779   2.262 -1.0747 -0.2357  0.3592
15551TIP3   OH268067   3.999   5.745  15.034 -0.0195  0.0517 -0.2890
15551TIP3    H168068   3.952   5.810  14.980  1.6441  1.3948 -0.2086
15551TIP3    H268069   4.017   5.673  14.974 -1.9036 -0.3998 -0.3833
15552TIP3   OH268070   1.269   1.543  12.512 -0.7168 -0.0964  0.6448
15552TIP3    H168071   1.323   1.575  12.584 -0.8290  3.0439 -0.4686
15552TIP3    H268072   1.328   1.543  12.436 -1.2776 -0.5943  0.1994
15553TIP3   OH268073   2.545   2.062  11.282  0.3590  0.1681 -0.2659
15553TIP3    H168074   2.618   2.093  11.229  1.7860 -1.2326  0.7592
15553TIP3    H268075   2.503   2.141  11.316  1.7818  0.9918 -0.3892
15554TIP3   OH268076   6.214   0.825  16.346  0.5107  0.0402  0.1886
15554TIP3    H168077   6.307   0.840  16.363  0.8329 -0.2803 -1.1369
15554TIP3    H268078   6.169   0.892  16.396  1.3747 -0.5577  1.8474
15555TIP3   OH268079   5.006   6.625   0.849 -0.1434 -0.0993  0.1680
15555TIP3    H168080   5.013   6.684   0.925  0.9023 -0.1964  0.1601
15555TIP3    H268081   4.931   6.658   0.800 -0.3530  0.4466  0.8405
15556TIP3   OH268082   1.567   5.235   2.527 -0.0166 -0.0940  0.0933
15556TIP3    H168083   1.661   5.221   2.539  0.2530 -0.4570 -1.9477
15556TIP3    H268084   1.546   5.186   2.447 -2.2747 -1.3334  1.3372
15557TIP3   OH268085   6.453   5.620   2.430  0.0628  0.0997 -0.2173
15557TIP3    H168086   6.442   5.549   2.367  1.7823 -0.2349 -0.1832
15557TIP3    H268087   6.489   5.692   2.378  2.5903 -0.5446  0.5113
15558TIP3   OH268088   2.973   6.168   4.206  0.0799  0.8053  1.0012
15558TIP3    H168089   2.892   6.118   4.193  1.2801 -0.9396 -0.3400
15558TIP3    H268090   2.945   6.259   4.207 -1.7055  0.4036 -1.6037
15559TIP3   OH268091   0.231   0.989  10.920 -0.5262 -0.0431  0.2060
15559TIP3    H168092   0.216   1.069  10.869 -0.6484  0.4325  0.9797
15559TIP3    H268093   0.231   1.017  11.011  1.4442 -0.5876  0.4352
15560TIP3   OH268094   3.256   3.825  15.002  0.2672  0.4143 -0.0305
15560TIP3    H168095   3.286   3.740  15.034  1.1501  0.6863 -0.1220
15560TIP3    H268096   3.208   3.805  14.922  0.2137 -0.0279  0.1125
15561TIP3   OH268097   5.275   0.669  14.295 -0.5939 -0.1238  0.2160
15561TIP3    H168098   5.298   0.681  14.203  1.9419  1.0948  0.9239
15561TIP3    H268099   5.189   0.710  14.304 -0.7516 -0.0044 -1.5403
15562TIP3   OH268100   6.757   0.543  11.671  0.2018  0.9251  0.1378
15562TIP3    H168101   6.733   0.585  11.589  1.7956  1.5702 -0.0256
15562TIP3    H268102   6.752   0.612  11.736  0.3590  0.7636  0.3223
15563TIP3   OH268103   4.787   0.723  12.265  0.4262 -0.0353  0.2733
15563TIP3    H168104   4.882   0.729  12.273  0.3036  1.1055  1.0987
15563TIP3    H268105   4.773   0.653  12.202  1.7912 -0.8267  0.8019
15564TIP3   OH268106   5.837   0.944   0.799 -0.5569 -0.0356  0.0258
15564TIP3    H168107   5.880   1.022   0.764 -1.0195  0.0339 -0.3963
15564TIP3    H268108   5.910   0.886   0.823 -0.2189  0.3242 -0.1111
15565TIP3   OH268109   0.280   6.551  15.620 -0.3926  0.2767 -0.4179
15565TIP3    H168110   0.356   6.579  15.570  0.6966  0.3945  1.2280
15565TIP3    H268111   0.226   6.629  15.627  1.1567  1.2612  1.5376
15566TIP3   OH268112   1.942   6.356   6.345 -0.1797  0.1670  0.2285
15566TIP3    H168113   1.881   6.324   6.412 -0.3477  1.6124  0.7885
15566TIP3    H268114   2.027   6.355   6.387 -0.4205  2.0001  0.8323
15567TIP3   OH268115   1.107   2.986   4.232  0.0053 -0.2650  0.1665
15567TIP3    H168116   1.146   3.073   4.240 -0.6136  0.3052 -2.2567
15567TIP3    H268117   1.013   3.002   4.228 -0.3075 -1.3070  2.0616
15568TIP3   OH268118   4.968   6.501  10.834  0.1189 -0.9767  0.4930
15568TIP3    H168119   4.991   6.594  10.846  0.2462 -1.1627  1.9118
15568TIP3    H268120   4.891   6.488  10.890 -0.4601 -1.5162 -0.4192
15569TIP3   OH268121   1.596   3.946   3.241 -0.4714  0.2528 -0.3788
15569TIP3    H168122   1.561   3.864   3.276 -1.4883  0.1307 -1.6178
15569TIP3    H268123   1.561   4.013   3.299  0.6223 -0.1822  0.8344
15570TIP3   OH268124   3.272   4.166   2.819 -0.6192  0.1659 -0.4048
15570TIP3    H168125   3.176   4.157   2.820 -0.5856 -0.2291  0.6039
15570TIP3    H268126   3.296   4.174   2.911  0.2154  1.6990 -0.7231
15571TIP3   OH268127   2.724   1.052   5.530  0.8941  0.5593  0.0840
15571TIP3    H168128   2.803   1.056   5.584  0.7403  1.4273  0.2509
15571TIP3    H268129   2.667   1.119   5.565 -0.1910 -0.4660  0.3454
15572TIP3   OH268130   3.612   3.216   3.632 -0.5635 -0.1351  0.3580
15572TIP3    H168131   3.662   3.288   3.672 -2.2282  0.8392  0.7528
15572TIP3    H268132   3.636   3.220   3.539  2.4925 -1.7277  0.9515
15573TIP3   OH268133   1.850   2.444   0.289  1.0334 -0.0332  0.5143
15573TIP3    H168134   1.836   2.528   0.246 -0.2617 -1.7992 -2.8985
15573TIP3    H268135   1.765   2.401   0.287  1.4098 -1.1035  3.1187
15574TIP3   OH268136   2.186   0.839   2.210 -0.4640  0.5080  0.1920
15574TIP3    H168137   2.244   0.809   2.281 -0.9810  0.2169  0.4977
15574TIP3    H268138   2.121   0.769   2.202 -1.0168  1.0259  0.1349
15575TIP3   OH268139   6.277   3.351   5.476  0.6031  0.1295  0.3106
15575TIP3    H168140   6.299   3.391   5.391  0.6672  1.0417  0.7491
15575TIP3    H268141   6.340   3.279   5.485  1.2513  0.6471  0.0291
15576TIP3   OH268142   0.311   6.204   1.665  0.4951 -0.0446 -0.1212
15576TIP3    H168143   0.264   6.121   1.653  0.9591 -0.1542 -1.2934
15576TIP3    H268144   0.401   6.178   1.682  0.8849  0.2126 -1.6486
15577TIP3   OH268145   2.052   1.504  10.909  0.6791 -0.1114  0.0072
15577TIP3    H168146   1.967   1.464  10.893  0.9287 -0.2007 -1.1464
15577TIP3    H268147   2.093   1.510  10.823  2.1819 -0.8105  0.6392
15578TIP3   OH268148   4.255   4.320   4.429  0.3517  0.3531 -0.4227
15578TIP3    H168149   4.208   4.402   4.418  1.3125  0.9161 -0.3516
15578TIP3    H268150   4.347   4.342   4.419  0.7673 -0.3808  1.3766
15579TIP3   OH268151   3.706   4.350   3.690  0.2817  0.4138  0.6318
15579TIP3    H168152   3.755   4.422   3.651  0.9429  0.3779  1.3723
15579TIP3    H268153   3.623   4.389   3.717  0.6358  0.9164  1.0314
15580TIP3   OH268154   2.591   4.467   3.039  0.5852  0.1679  0.1908
15580TIP3    H168155   2.503   4.482   3.074  0.7924  0.7323  0.4706
15580TIP3    H268156   2.610   4.376   3.063  0.6323  0.4638  1.3612
15581TIP3   OH268157   4.130   1.159  11.799 -0.5689 -0.3759  0.1715
15581TIP3    H168158   4.141   1.221  11.871 -1.6551  1.1798 -0.9240
15581TIP3    H268159   4.193   1.089  11.816  1.9610  1.8794  0.5442
15582TIP3   OH268160   2.815   6.192  11.991 -0.2359  0.5119 -0.0473
15582TIP3    H168161   2.779   6.107  12.019 -0.0706  0.7431  0.9011
15582TIP3    H268162   2.738   6.244  11.968 -0.3664  0.2728 -0.1569
15583TIP3   OH268163   5.454   2.081   5.628 -0.8107 -0.2412  0.5202
15583TIP3    H168164   5.359   2.083   5.640 -1.0176 -0.1594 -0.8591
15583TIP3    H268165   5.466   2.099   5.534  0.6039  0.5167  0.8158
15584TIP3   OH268166   4.451   1.754   2.823 -0.3507 -0.6206 -0.6663
15584TIP3    H168167   4.489   1.821   2.766 -0.4056  0.3556  0.4072
15584TIP3    H268168   4.424   1.684   2.764  1.5337 -0.5893 -1.6309
15585TIP3   OH268169   6.349   2.651   0.946  0.2762 -0.3666  0.0942
15585TIP3    H168170   6.436   2.664   0.907 -0.3187  0.9331 -0.8882
15585TIP3    H268171   6.330   2.558   0.931  1.1177 -0.4576 -0.5081
15586TIP3   OH268172   5.518   0.734   5.126 -0.1639  0.4798 -0.4113
15586TIP3    H168173   5.423   0.745   5.129 -0.2305  0.8218 -2.4914
15586TIP3    H268174   5.551   0.819   5.098  0.7757  0.3406  0.2313
15587TIP3   OH268175   2.726   5.274   2.423  0.0873  1.0240 -0.0363
15587TIP3    H168176   2.635   5.303   2.420 -0.9341 -1.3865  2.8251
15587TIP3    H268177   2.740   5.231   2.338 -1.3327  1.6901 -0.6406
15588TIP3   OH268178   2.726   1.913   3.631 -0.6444 -0.0779 -0.4290
15588TIP3    H168179   2.764   1.947   3.712 -1.6989 -0.2179  0.1391
15588TIP3    H268180   2.702   1.991   3.581 -2.2580  0.0515  0.4908
15589TIP3   OH268181   1.297   5.699  11.332 -0.2673 -0.0287  0.0455
15589TIP3    H168182   1.251   5.617  11.351  0.1982 -0.0737  1.0503
15589TIP3    H268183   1.306   5.700  11.237 -1.6985 -0.3652 -0.1241
15590TIP3   OH268184   4.637   3.176   5.620 -0.0115  0.3214  0.3016
15590TIP3    H168185   4.703   3.137   5.563 -0.2384  0.5533 -0.1315
15590TIP3    H268186   4.686   3.231   5.681  0.3038 -0.5594  0.8590
15591TIP3   OH268187   0.954   6.204  11.806 -0.0096  0.2671 -0.3005
15591TIP3    H168188   1.035   6.246  11.775 -1.1288  1.4455 -1.7980
15591TIP3    H268189   0.967   6.111  11.789  1.3483  0.3238  0.2755
15592TIP3   OH268190   2.526   3.076  15.913  0.1397  0.2779 -0.2784
15592TIP3    H168191   2.543   3.091  15.820  1.9143 -0.3737 -0.1091
15592TIP3    H268192   2.594   3.015  15.940 -1.7022 -1.3362  0.9644
15593TIP3   OH268193   1.488   0.677  13.479 -0.2106  0.4494  0.0897
15593TIP3    H168194   1.466   0.764  13.446  0.0540 -0.2606 -2.1211
15593TIP3    H268195   1.430   0.664  13.554 -0.1427  2.5618  0.5606
15594TIP3   OH268196   3.607   1.956  12.707  0.1032 -0.1338 -0.1572
15594TIP3    H168197   3.680   1.952  12.768  1.5907  1.2194 -1.7551
15594TIP3    H268198   3.643   1.996  12.628 -1.8629 -1.3189 -1.7681
15595TIP3   OH268199   5.971   6.060   4.923 -0.4887 -0.4834  0.2821
15595TIP3    H168200   5.985   5.985   4.865 -1.0810 -0.3350 -0.0528
15595TIP3    H268201   5.883   6.048   4.958 -0.3710 -0.2394  0.6716
15596TIP3   OH268202   1.854   0.932  14.298  0.3350  0.2239  0.8229
15596TIP3    H168203   1.950   0.932  14.290  0.2823 -1.4075 -0.4072
15596TIP3    H268204   1.827   0.850  14.256 -1.5578  0.2628  1.8686
15597TIP3   OH268205   5.917   1.259  12.853 -0.5384 -0.4458  0.2295
15597TIP3    H168206   5.857   1.247  12.926 -0.7788  0.5606  0.2100
15597TIP3    H268207   5.965   1.338  12.875 -1.5650  0.6635 -1.3310
15598TIP3   OH268208   2.379   0.177  15.492 -0.4784  0.1433  0.2387
15598TIP3    H168209   2.395   0.113  15.561  1.7832 -0.6383 -0.8722
15598TIP3    H268210   2.325   0.130  15.428 -0.0845 -0.1619  0.1234
15599TIP3   OH268211   3.084   0.074   4.898 -0.3382  0.2889  0.0619
15599TIP3    H168212   3.113   0.076   4.989  0.2314 -0.1722 -0.1015
15599TIP3    H268213   3.005   0.128   4.897 -0.2961  0.3804  0.8080
15600TIP3   OH268214   3.267   3.024   4.417  0.6491  0.1675 -0.6257
15600TIP3    H168215   3.260   3.000   4.325 -0.6297  0.0549 -0.5277
15600TIP3    H268216   3.308   3.111   4.416  1.0626 -0.0300 -1.2650
15601TIP3   OH268217   1.169   5.640  16.016 -0.5122  0.6330 -0.0025
15601TIP3    H168218   1.185   5.587  15.938 -0.2333  1.9180 -0.8293
15601TIP3    H268219   1.077   5.666  16.009 -0.6708  0.2260  0.4452
15602TIP3   OH268220   6.228   4.742   3.651  0.4525  0.3956  0.0921
15602TIP3    H168221   6.308   4.792   3.671  1.3002 -0.4725 -0.9851
15602TIP3    H268222   6.259   4.668   3.598 -0.7738 -1.2170  1.5205
15603TIP3   OH268223   4.896   4.758  13.481 -0.0413  0.1859  0.1342
15603TIP3    H168224   4.876   4.685  13.541  0.1968  1.2237  1.5362
15603TIP3    H268225   4.936   4.824  13.537  0.8283  0.9456 -1.3298
15604TIP3   OH268226   2.084   3.859  11.664  0.3911  0.1091 -0.5195
15604TIP3    H168227   2.152   3.797  11.635 -0.7731 -1.8399  0.6610
15604TIP3    H268228   2.015   3.850  11.598 -0.4133 -1.0496  0.4341
15605TIP3   OH268229   0.017   2.302  11.614 -0.5795 -0.5395  0.1012
15605TIP3    H168230  -0.020   2.249  11.685  2.4640 -0.4505  1.9597
15605TIP3    H268231  -0.032   2.383  11.617 -1.6865 -1.2077  0.9428
15606TIP3   OH268232   2.888   3.999  16.291  0.4573  0.5578 -0.8046
15606TIP3    H168233   2.976   4.009  16.255  0.8271 -2.1123 -0.8881
15606TIP3    H268234   2.841   3.949  16.224 -0.6007  0.5000 -0.0343
15607TIP3   OH268235   6.744   4.600  11.455  0.2733 -0.3446  0.0579
15607TIP3    H168236   6.725   4.552  11.374  0.4297 -1.3348  0.5887
15607TIP3    H268237   6.797   4.539  11.507  1.4484  0.8256  0.3009
15608TIP3   OH268238   3.947   0.915   3.111 -0.2990 -0.3677 -0.2362
15608TIP3    H168239   3.933   0.937   3.202  0.9613 -0.9309  0.1229
15608TIP3    H268240   3.964   0.999   3.068 -0.2691 -0.1668  0.1667
15609TIP3   OH268241   0.533   1.160  12.675 -0.1224  0.5498  0.0834
15609TIP3    H168242   0.467   1.104  12.634 -1.3974  2.1550 -0.2210
15609TIP3    H268243   0.617   1.123  12.649 -0.8977 -1.4553  0.3095
15610TIP3   OH268244   3.450   1.816   2.251  0.0224 -0.7137  0.3421
15610TIP3    H168245   3.543   1.797   2.253  0.0561 -0.5282  0.6320
15610TIP3    H268246   3.434   1.865   2.332 -0.3236 -0.7447  0.2942
15611TIP3   OH268247   6.535   2.799   5.663  0.0592  0.1412 -0.1291
15611TIP3    H168248   6.482   2.849   5.726  2.8507  2.4323  0.6260
15611TIP3    H268249   6.537   2.854   5.585 -2.0727 -1.9631 -1.8189
15612TIP3   OH268250   5.346   4.207   5.699 -0.2279  0.4813  0.1372
15612TIP3    H168251   5.277   4.255   5.744 -1.5914  0.4983 -1.8609
15612TIP3    H268252   5.402   4.274   5.661 -0.0598  0.4684  0.3596
15613TIP3   OH268253   2.539   2.822   1.403 -0.3424 -0.9567 -0.2196
15613TIP3    H168254   2.544   2.918   1.402 -0.1710 -0.9585  0.5306
15613TIP3    H268255   2.624   2.794   1.436  0.0779 -1.4174 -1.6146
15614TIP3   OH268256   1.108   6.270  13.184 -0.2343 -0.1090  0.4960
15614TIP3    H168257   1.030   6.316  13.216  0.2989 -0.6316  2.7170
15614TIP3    H268258   1.181   6.330  13.202 -0.0674  0.4262 -1.6730
15615TIP3   OH268259   2.314   4.096   2.292 -0.2119 -0.0567 -0.6890
15615TIP3    H168260   2.298   4.184   2.327 -1.6536 -0.7366  0.4692
15615TIP3    H268261   2.380   4.059   2.351 -1.7624 -0.7673  0.6887
15616TIP3   OH268262   3.297   4.721   2.693 -0.0738  0.4242  0.0779
15616TIP3    H168263   3.278   4.729   2.599 -0.9771 -0.4876  0.1618
15616TIP3    H268264   3.387   4.689   2.697 -0.5403 -1.1036 -0.5644
15617TIP3   OH268265   1.754   4.616  12.762  0.3300  0.0814  0.2193
15617TIP3    H168266   1.679   4.641  12.816  0.6696  0.7204  0.3942
15617TIP3    H268267   1.716   4.592  12.678 -0.0500  0.6265  0.2357
15618TIP3   OH268268   4.014   5.118   3.963 -0.8131  0.6866 -0.6789
15618TIP3    H168269   3.988   5.029   3.940  0.5539  0.2313 -0.5810
15618TIP3    H268270   4.005   5.167   3.882  0.0228  0.0422 -1.1897
15619TIP3   OH268271   4.057   3.590   2.789  0.3827  0.5498  0.3896
15619TIP3    H168272   4.075   3.683   2.780  1.2680  0.6610  2.5940
15619TIP3    H268273   4.038   3.578   2.882 -0.4279 -1.3621  0.0278
15620TIP3   OH268274   2.141   4.805  11.803 -0.7410 -0.2033  0.3322
15620TIP3    H168275   2.199   4.751  11.856 -2.2372 -0.0044  2.2591
15620TIP3    H268276   2.136   4.888  11.850 -2.2630 -0.0769 -0.0013
15621TIP3   OH268277   3.830   2.029  11.805 -0.0390 -0.0100 -0.7263
15621TIP3    H168278   3.787   1.950  11.772  0.0944  0.2740 -1.5839
15621TIP3    H268279   3.798   2.099  11.748  0.6361  0.3948 -0.6115
15622TIP3   OH268280   4.849   1.477  15.081  0.2242 -0.4965  0.2866
15622TIP3    H168281   4.779   1.473  15.016 -0.0693 -0.1399  0.5770
15622TIP3    H268282   4.832   1.403  15.139  0.6597 -0.9975 -0.2026
15623TIP3   OH268283   5.914   5.916  14.796 -0.8451 -0.1264  0.1101
15623TIP3    H168284   5.907   5.900  14.890 -0.2333  0.2158  0.2197
15623TIP3    H268285   5.856   5.851  14.756 -1.1283 -0.2543  0.7237
15624TIP3   OH268286   3.435   3.091   0.919  0.0500 -0.5156  0.0150
15624TIP3    H168287   3.418   3.013   0.972  1.9706  0.0664  1.6068
15624TIP3    H268288   3.503   3.063   0.857  3.7865  0.7107  3.1819
15625TIP3   OH268289   1.425   0.554  13.227 -0.2634 -0.0896  0.2957
15625TIP3    H168290   1.432   0.623  13.161 -0.1107 -0.0354  0.3683
15625TIP3    H268291   1.418   0.601  13.310 -1.8162 -0.1161  0.2212
15626TIP3   OH268292   0.387   2.187  11.432 -0.0405  0.2846  0.3124
15626TIP3    H168293   0.462   2.192  11.492  1.7714 -0.7400 -1.7045
15626TIP3    H268294   0.377   2.276  11.399 -1.6636  1.0764  2.6917
15627TIP3   OH268295   1.318   0.441  17.053 -0.2152  0.1793 -0.0715
15627TIP3    H168296   1.333   0.397  17.137  1.3935  1.8019  0.5431
15627TIP3    H268297   1.375   0.395  16.992  0.2505  0.3944  0.2022
15628TIP3   OH268298   3.635   1.236  15.754 -0.1369 -0.5040 -0.3921
15628TIP3    H168299   3.668   1.202  15.671 -1.8125 -2.0165 -0.5033
15628TIP3    H268300   3.541   1.244  15.741 -0.1228  1.9854  0.4627
15629TIP3   OH268301   3.194   6.296  14.123  0.0905 -0.4699  0.3500
15629TIP3    H168302   3.107   6.273  14.091  0.1138 -0.2683  0.1415
15629TIP3    H268303   3.177   6.340  14.207  0.1332 -2.7483  1.6290
15630TIP3   OH268304   5.791   3.363   1.743  0.3012 -0.0339 -0.0353
15630TIP3    H168305   5.715   3.421   1.748  0.0271 -0.1898 -1.6900
15630TIP3    H268306   5.756   3.279   1.712  1.0638 -0.2806 -0.2700
15631TIP3   OH268307   2.862   2.695  16.353 -0.1701  0.1280 -0.2254
15631TIP3    H168308   2.810   2.625  16.313 -0.0584  0.4198 -0.8959
15631TIP3    H268309   2.934   2.649  16.396 -0.1611 -0.1778 -0.5584
15632TIP3   OH268310   0.079   3.738   0.086  0.0569 -0.8067  0.9225
15632TIP3    H168311   0.096   3.828   0.060  2.1003 -1.2123  0.6501
15632TIP3    H268312   0.063   3.742   0.180  3.0306 -0.4018  1.5138
15633TIP3   OH268313   2.911   6.395   0.033  0.1688  0.2222  0.1368
15633TIP3    H168314   2.879   6.469  -0.019 -1.3507 -0.4918  0.0032
15633TIP3    H268315   2.935   6.329  -0.032  2.0928  0.7604  0.2297
15634TIP3   OH268316   4.486   2.326  14.401  0.5005  0.3868 -0.4822
15634TIP3    H168317   4.569   2.314  14.354  0.1357  1.0809 -1.3406
15634TIP3    H268318   4.463   2.239  14.433 -0.1871 -0.5366 -3.2508
15635TIP3   OH268319   4.576   5.476  15.404 -0.2847  0.9046 -0.2757
15635TIP3    H168320   4.503   5.538  15.408 -0.8873  0.1891  0.2925
15635TIP3    H268321   4.612   5.475  15.493  1.6106  2.5953 -0.9570
15636TIP3   OH268322   6.104   2.043  11.353  0.2278 -0.3481  0.3848
15636TIP3    H168323   6.062   2.111  11.406 -1.4703 -0.0452 -1.2587
15636TIP3    H268324   6.062   1.961  11.381 -1.3216 -0.0808 -1.0528
15637TIP3   OH268325   2.185   4.625   0.754 -0.5723  0.2124  0.2746
15637TIP3    H168326   2.234   4.641   0.834  0.9294 -0.5435 -0.4438
15637TIP3    H268327   2.165   4.713   0.720  1.3641  0.5889 -0.0039
15638TIP3   OH268328   5.807   6.292  13.354  0.0561 -0.4531 -0.6559
15638TIP3    H168329   5.762   6.210  13.335 -0.6233 -0.0686 -0.7341
15638TIP3    H268330   5.744   6.360  13.329  0.2210  0.0846  0.3671
15639TIP3   OH268331   5.832   5.488  13.106 -0.1835  0.1314 -0.5679
15639TIP3    H168332   5.778   5.534  13.171  0.0020  0.0319 -0.3393
15639TIP3    H268333   5.890   5.433  13.159 -0.7477 -0.7646 -0.8576
15640TIP3   OH268334   1.864   3.401   4.478  0.0371  0.4794  0.3449
15640TIP3    H168335   1.804   3.454   4.531  1.0346  0.7729  1.2275
15640TIP3    H268336   1.812   3.325   4.452 -1.0926  1.3497 -0.0182
15641TIP3   OH268337   5.537   3.476   1.782 -0.0835  0.3221 -0.7160
15641TIP3    H168338   5.481   3.400   1.766  1.1894 -0.3755 -2.1057
15641TIP3    H268339   5.481   3.538   1.829 -0.9837 -1.7027  1.0513
15642TIP3   OH268340   2.524   5.351  16.225 -0.1464  0.0461 -0.1479
15642TIP3    H168341   2.587   5.412  16.260 -0.7964  0.4143  0.4030
15642TIP3    H268342   2.576   5.281  16.186  0.6793 -1.3673  3.1306
15643TIP3   OH268343   6.636   1.838   4.719  0.3973  0.5838  0.4460
15643TIP3    H168344   6.553   1.810   4.681 -0.4766  0.6588  2.1617
15643TIP3    H268345   6.703   1.785   4.675 -0.7552 -0.8535  0.3556
15644TIP3   OH268346   3.142   3.121  16.102  0.0748 -0.0998  0.1214
15644TIP3    H168347   3.099   3.203  16.123  0.6997 -0.1091  1.5541
15644TIP3    H268348   3.220   3.119  16.158  0.9511 -0.9190 -1.0634
15645TIP3   OH268349   6.090   3.655   4.826  0.2408  0.2488  0.0371
15645TIP3    H168350   6.039   3.725   4.785 -0.5921 -0.8838 -0.9268
15645TIP3    H268351   6.121   3.693   4.908  0.7030  2.0878 -0.9426
15646TIP3   OH268352   5.650   6.004   2.765 -0.4871  0.6185  0.3450
15646TIP3    H168353   5.693   5.920   2.749 -0.3347  0.6370  0.6503
15646TIP3    H268354   5.557   5.986   2.750 -0.3655  0.6105 -0.4446
15647TIP3   OH268355   1.061   5.870   1.580 -0.2472  0.2056  0.9558
15647TIP3    H168356   0.998   5.871   1.508  1.0342  0.2493 -0.2172
15647TIP3    H268357   1.008   5.863   1.659 -1.8010  1.9329  0.1321
15648TIP3   OH268358   0.460   4.626  14.070  0.0824  0.6211  0.0468
15648TIP3    H168359   0.518   4.612  13.995  2.5814  2.2906  1.5160
15648TIP3    H268360   0.405   4.699  14.044 -0.2801  0.0671 -0.7797
15649TIP3   OH268361   6.364   4.037   1.855 -0.0212 -0.3219 -0.5221
15649TIP3    H168362   6.350   4.126   1.823  0.4532  0.9483  2.4726
15649TIP3    H268363   6.365   3.983   1.776 -1.0487  2.2015 -2.3902
15650TIP3   OH268364   4.745   4.732  16.953 -0.2451 -0.0918  0.5859
15650TIP3    H168365   4.663   4.727  16.904  1.1271  0.7613 -2.0027
15650TIP3    H268366   4.774   4.823  16.941  1.5390 -0.6264  0.5961
15651TIP3   OH268367   2.609   0.915   1.222  0.1437  0.0111 -0.0512
15651TIP3    H168368   2.550   0.840   1.219 -0.1074  0.1562  0.8797
15651TIP3    H268369   2.660   0.909   1.142  0.9981 -1.8602  0.5779
15652TIP3   OH268370   5.309   5.223  14.464 -0.1331  0.1942  0.0831
15652TIP3    H168371   5.275   5.150  14.516  0.4259  0.2415  0.5293
15652TIP3    H268372   5.265   5.300  14.500  0.7122  0.3080  0.9440
15653TIP3   OH268373   5.960   2.018   4.008 -0.0040 -0.2914  0.6575
15653TIP3    H168374   5.989   2.091   4.062 -2.4357  0.8534  0.5472
15653TIP3    H268375   6.014   2.024   3.929 -0.8158  2.0662  0.1944
15654TIP3   OH268376   0.550   1.291   5.917  0.5678  0.7083 -0.5129
15654TIP3    H168377   0.558   1.345   5.996 -1.5045 -1.1869  1.1360
15654TIP3    H268378   0.458   1.300   5.891  0.8821  0.1753 -1.8777
15655TIP3   OH268379   4.418   2.896  15.492  0.2267 -1.4432  0.1673
15655TIP3    H168380   4.389   2.901  15.401 -2.7421 -1.0010  1.0511
15655TIP3    H268381   4.490   2.833  15.491  1.1737 -0.4823 -2.6445
15656TIP3   OH268382   3.923   3.144  12.848  0.3123  0.2416  0.9273
15656TIP3    H168383   3.954   3.054  12.850  0.1827  0.1908  0.7086
15656TIP3    H268384   3.898   3.159  12.757  1.6855  0.9627  0.6423
15657TIP3   OH268385   3.753   3.088  15.657  0.5553 -0.1067 -0.3457
15657TIP3    H168386   3.792   3.004  15.631  0.0296 -0.7023  0.7333
15657TIP3    H268387   3.706   3.068  15.738 -0.3179  1.0428 -0.5578
15658TIP3   OH268388   6.306   3.541  15.841  0.3810 -0.2650  0.0895
15658TIP3    H168389   6.278   3.632  15.832  0.0307 -0.2281  1.3670
15658TIP3    H268390   6.391   3.546  15.885  2.0344 -0.4290 -2.8105
15659TIP3   OH268391   6.142   1.855  16.645 -0.3068 -0.5607 -0.2233
15659TIP3    H168392   6.093   1.852  16.563 -0.5258  1.6292 -0.2400
15659TIP3    H268393   6.116   1.938  16.685  0.7223 -1.0164  1.4796
15660TIP3   OH268394   5.771   6.741   5.829  0.3449 -0.3386 -0.1311
15660TIP3    H168395   5.852   6.789   5.847  0.6344 -1.0043  0.3628
15660TIP3    H268396   5.800   6.651   5.815 -0.0778 -0.2196 -2.0308
15661TIP3   OH268397   2.511   6.636  14.709 -0.5027  0.5146  0.7157
15661TIP3    H168398   2.424   6.666  14.738  0.0140  0.1143  2.8787
15661TIP3    H268399   2.572   6.701  14.744  0.3455 -1.1610  2.5642
15662TIP3   OH268400   6.276   0.888   1.910  0.0954 -0.5212 -0.0924
15662TIP3    H168401   6.273   0.958   1.975 -1.7829 -0.9043  0.2689
15662TIP3    H268402   6.352   0.910   1.855  0.2844  1.1058  0.7670
15663TIP3   OH268403   5.802   4.143   4.974 -0.4264  0.1175 -0.1026
15663TIP3    H168404   5.870   4.109   4.917 -1.8375  0.6280 -2.2098
15663TIP3    H268405   5.784   4.072   5.035  1.7765 -0.1014  0.3572
15664TIP3   OH268406   3.798   4.729  11.748 -0.3736  0.8727 -0.4636
15664TIP3    H168407   3.883   4.711  11.707  0.2120  2.7467 -0.1654
15664TIP3    H268408   3.761   4.801  11.697 -2.9052 -1.3364 -2.0222
15665TIP3   OH268409   5.512   4.352   4.669  0.2018  0.2590  0.2151
15665TIP3    H168410   5.527   4.258   4.685  0.0045  0.3531  0.9923
15665TIP3    H268411   5.579   4.396   4.721  1.4608  0.5208 -1.5636
15666TIP3   OH268412   5.193   5.257   1.661  0.2104  0.0900 -0.4726
15666TIP3    H168413   5.263   5.280   1.600  0.4299  0.1852 -0.1860
15666TIP3    H268414   5.200   5.322   1.731  0.1729 -0.2213 -0.1773
15667TIP3   OH268415   1.482   2.535  17.254  0.2872 -0.4232  0.7005
15667TIP3    H168416   1.508   2.588  17.179 -0.0246 -0.4645  0.5591
15667TIP3    H268417   1.498   2.445  17.228  0.3003 -0.4302  0.7320
15668TIP3   OH268418   2.664   4.174   1.563  0.1176  0.2697 -0.2271
15668TIP3    H168419   2.696   4.247   1.615 -0.4855  1.5617 -1.5906
15668TIP3    H268420   2.602   4.128   1.620 -0.6140  1.7102  0.1718
15669TIP3   OH268421   3.364   6.434  11.595 -0.8940  0.5230 -0.0660
15669TIP3    H168422   3.388   6.404  11.682  0.4940  1.5465 -0.0492
15669TIP3    H268423   3.372   6.357  11.539  0.7014  0.4008  0.2953
15670TIP3   OH268424   6.176   6.733  13.073 -0.1220  0.1309  0.2277
15670TIP3    H168425   6.261   6.714  13.111 -0.0342 -2.5965 -1.1075
15670TIP3    H268426   6.121   6.759  13.147  0.6448 -2.7024  1.9234
15671TIP3   OH268427   4.328   1.641  11.624  0.1932  0.5399  0.1157
15671TIP3    H168428   4.279   1.638  11.706  1.5004  0.8109  0.9449
15671TIP3    H268429   4.361   1.731  11.619 -0.0985  0.6044 -0.8616
15672TIP3   OH268430   2.052   1.108  17.031 -0.2919 -0.2971 -0.4007
15672TIP3    H168431   2.010   1.189  17.005 -0.6883 -0.0324  0.9836
15672TIP3    H268432   2.132   1.135  17.075 -0.5385 -0.6382  0.2709
15673TIP3   OH268433   1.559   4.524   6.576 -0.1759 -0.0559  0.2388
15673TIP3    H168434   1.506   4.581   6.520 -0.7437 -0.7365  0.0759
15673TIP3    H268435   1.505   4.446   6.589  1.2045 -1.2461 -0.8166
15674TIP3   OH268436   1.652   5.134   0.206  0.1414  0.1945  0.1983
15674TIP3    H168437   1.572   5.171   0.243 -0.2791 -0.4310 -0.0588
15674TIP3    H268438   1.711   5.209   0.195 -0.3044  0.6176  0.6491
15675TIP3   OH268439   5.462   4.666  14.264 -0.4970  0.2378 -0.3724
15675TIP3    H168440   5.415   4.627  14.191 -0.6511 -0.8517  0.2866
15675TIP3    H268441   5.398   4.722  14.308 -1.2712 -1.3628  0.6169
15676TIP3   OH268442   6.294   2.050  14.883 -0.0908  0.0906  0.2561
15676TIP3    H168443   6.202   2.059  14.860  0.1430 -2.3030 -2.0431
15676TIP3    H268444   6.341   2.101  14.817  0.2950  1.6249  1.6445
15677TIP3   OH268445   4.732   4.948  13.147  0.7449  0.3435 -0.8312
15677TIP3    H168446   4.790   4.871  13.143  0.7310  0.3204 -0.6252
15677TIP3    H268447   4.736   4.976  13.239  0.7105  0.5600 -0.8952
15678TIP3   OH268448   4.578   6.388   4.504 -0.5295 -0.9808  0.5047
15678TIP3    H168449   4.522   6.459   4.471 -0.2533 -0.8697  0.2770
15678TIP3    H268450   4.628   6.359   4.428 -1.0900 -1.8489  0.4416
15679TIP3   OH268451   2.250   5.251   4.786 -0.2240  0.2516 -0.7060
15679TIP3    H168452   2.289   5.305   4.719 -2.1059  2.0150 -0.4837
15679TIP3    H268453   2.155   5.258   4.771 -0.6088 -1.3919  0.5656
15680TIP3   OH268454   1.761   3.508   5.762 -0.1010 -0.5690  1.0343
15680TIP3    H168455   1.816   3.539   5.835 -0.1913 -0.4177  1.0385
15680TIP3    H268456   1.672   3.535   5.786  0.2445  2.6574 -0.7623
15681TIP3   OH268457   2.514   1.795  11.711  0.0773  0.2887 -0.3376
15681TIP3    H168458   2.494   1.780  11.803 -0.1454  0.3198 -0.3805
15681TIP3    H268459   2.439   1.844  11.677 -0.4297 -0.7873 -0.8372
15682TIP3   OH268460   2.867   1.516  14.494  0.2339  0.1244 -0.1167
15682TIP3    H168461   2.863   1.571  14.417  0.5156  2.8395  1.6722
15682TIP3    H268462   2.776   1.507  14.522  0.3781  2.6065  1.4183
15683TIP3   OH268463   4.819   0.341  15.071  0.4878 -0.2198  0.2093
15683TIP3    H168464   4.751   0.395  15.030  1.0781  0.6111  0.3005
15683TIP3    H268465   4.778   0.254  15.081 -0.6346  0.3168  0.4716
15684TIP3   OH268466   2.240   4.587  15.154  0.4756  0.1454 -0.2355
15684TIP3    H168467   2.164   4.531  15.168  0.4242  0.1915 -0.3314
15684TIP3    H268468   2.215   4.673  15.188  0.5910  0.0857  0.0051
15685TIP3   OH268469   6.053   3.842   0.591 -0.0695  0.2070  0.1222
15685TIP3    H168470   6.014   3.759   0.619  3.1309 -0.8303  2.0004
15685TIP3    H268471   5.992   3.908   0.624 -1.3115 -1.3133  1.0544
15686TIP3   OH268472   5.811   4.377  14.866 -0.4207  0.7037  0.3460
15686TIP3    H168473   5.787   4.459  14.910 -3.5563 -0.7342  1.6477
15686TIP3    H268474   5.738   4.359  14.807  0.9333 -0.4439 -1.0667
15687TIP3   OH268475   2.649   5.211  11.400  0.7275 -0.0591 -0.4024
15687TIP3    H168476   2.613   5.262  11.327  0.4106 -1.2268 -1.1037
15687TIP3    H268477   2.716   5.156  11.360 -0.2770 -1.5949 -0.0818
15688TIP3   OH268478   1.446   2.086   1.687  0.8086 -0.2174  0.0888
15688TIP3    H168479   1.435   2.180   1.696 -2.8440 -0.6263  1.8460
15688TIP3    H268480   1.428   2.068   1.594 -1.0759  0.6700  0.2300
15689TIP3   OH268481   0.737   1.565  11.722 -0.3763  0.9630  0.1918
15689TIP3    H168482   0.791   1.548  11.798 -1.3286 -1.8885  0.3326
15689TIP3    H268483   0.648   1.569  11.756 -0.8421 -0.5811 -0.7372
15690TIP3   OH268484   4.650   4.176  13.267  0.5481 -0.0885 -0.2544
15690TIP3    H168485   4.633   4.084  13.289 -1.2853  0.6352  1.6653
15690TIP3    H268486   4.741   4.176  13.238  0.6417 -2.4886 -0.2369
15691TIP3   OH268487   6.734   0.145  12.762 -0.0494  0.1948 -0.1433
15691TIP3    H168488   6.644   0.165  12.786 -0.1264  0.7842 -0.8722
15691TIP3    H268489   6.760   0.218  12.705  0.3907 -0.7201 -1.1422
15692TIP3   OH268490   4.848   2.306  11.345  0.4215 -0.2885  0.2391
15692TIP3    H168491   4.862   2.295  11.251 -2.4241 -0.1160 -0.3013
15692TIP3    H268492   4.846   2.401  11.358  0.2608 -0.3045  0.3416
15693TIP3   OH268493   3.726   4.886  14.508  0.2885 -1.0429 -0.2320
15693TIP3    H168494   3.647   4.941  14.507  0.5913 -0.5994 -0.0144
15693TIP3    H268495   3.796   4.945  14.536  0.9406 -1.1135 -1.6232
15694TIP3   OH268496   5.856   0.565   6.249  0.4387 -0.4829 -0.0866
15694TIP3    H168497   5.825   0.521   6.328 -1.2183  0.7729 -0.0011
15694TIP3    H268498   5.855   0.658   6.272  2.4012 -0.2442 -0.7710
15695TIP3   OH268499   3.266   6.477   0.676 -0.4736 -0.4530  0.2084
15695TIP3    H168500   3.347   6.452   0.720 -0.6884  0.5288  1.2304
15695TIP3    H268501   3.252   6.409   0.610  0.6845 -1.1377  0.6336
15696TIP3   OH268502   1.271   5.392  11.319  0.2625  0.2257 -0.0275
15696TIP3    H168503   1.345   5.378  11.379  1.5935  0.6870 -1.5027
15696TIP3    H268504   1.311   5.397  11.232 -1.7410 -1.8328 -1.1699
15697TIP3   OH268505   2.536   2.424   1.513 -0.4506 -0.0831  0.2841
15697TIP3    H168506   2.628   2.450   1.514 -0.5363  0.2610  1.9340
15697TIP3    H268507   2.488   2.503   1.535 -1.1771 -0.2218 -0.7308
15698TIP3   OH268508   2.989   1.944  11.444 -0.1624 -0.4285  0.2530
15698TIP3    H168509   3.054   1.875  11.430 -0.2813 -0.5247  0.1711
15698TIP3    H268510   2.905   1.899  11.437 -0.2395 -0.6148  1.8831
15699TIP3   OH268511   3.972   3.248   2.888 -0.0949  0.0960  0.2659
15699TIP3    H168512   3.946   3.339   2.883  0.1700  0.2383  1.2446
15699TIP3    H268513   4.064   3.250   2.917 -0.2647 -0.4828  0.8791
15700TIP3   OH268514   1.962   5.755  13.375 -0.1433 -0.1558 -0.3523
15700TIP3    H168515   1.964   5.773  13.469  0.6296 -0.9312 -0.2141
15700TIP3    H268516   1.880   5.707  13.362 -0.9559  1.1680 -0.3189
15701TIP3   OH268517   0.550   5.989   6.208  0.0908 -0.2114 -0.0578
15701TIP3    H168518   0.521   5.983   6.117 -1.7052 -1.5799  0.5421
15701TIP3    H268519   0.591   5.904   6.226 -0.9190 -0.5349  0.8166
15702TIP3   OH268520   1.908   6.049   3.795  0.3631  0.0137  0.0425
15702TIP3    H168521   1.820   6.083   3.780 -0.1829 -1.4562 -0.2445
15702TIP3    H268522   1.941   6.098   3.870 -1.3496 -0.5667  1.2093
15703TIP3   OH268523   3.508   6.042   3.085  0.0207 -0.2628  0.4234
15703TIP3    H168524   3.559   5.986   3.144  0.3178 -0.4189  0.0161
15703TIP3    H268525   3.437   5.986   3.054  0.2244 -0.3632  0.1426
15704TIP3   OH268526   6.472   6.215   3.049  0.0910  0.0343 -0.3074
15704TIP3    H168527   6.448   6.307   3.037  0.1068  0.6560  3.3053
15704TIP3    H268528   6.561   6.218   3.084  0.3722 -1.4227 -0.8522
15705TIP3   OH268529   2.723   4.139  17.042  0.1369 -0.9384  0.1520
15705TIP3    H168530   2.758   4.102  16.961  1.2085  0.1337  0.0881
15705TIP3    H268531   2.716   4.065  17.102  1.3005 -1.4191 -0.2802
15706TIP3   OH268532   6.056   6.387  13.295 -0.7635 -0.0701 -0.3274
15706TIP3    H168533   6.052   6.481  13.311  0.8085  0.2136 -1.3845
15706TIP3    H268534   5.979   6.352  13.340 -0.8869  1.5936  0.8629
15707TIP3   OH268535   5.477   0.735  11.837 -0.1779 -0.1010 -0.0838
15707TIP3    H168536   5.416   0.684  11.890 -1.0728  0.8903 -0.1333
15707TIP3    H268537   5.449   0.826  11.848  2.3630  0.6326  1.3189
15708TIP3   OH268538   1.681   5.107  12.383 -0.5858  0.1613  0.0961
15708TIP3    H168539   1.645   5.059  12.308  1.6157 -1.7291  0.1453
15708TIP3    H268540   1.772   5.079  12.388 -0.1488  1.7322  2.3241
15709TIP3   OH268541   0.155   4.825  12.630  0.3801 -0.0200 -0.3181
15709TIP3    H168542   0.077   4.878  12.611 -0.7463 -1.8173 -1.0118
15709TIP3    H268543   0.132   4.738  12.598  3.2554 -0.2970 -1.9207
15710TIP3   OH268544   0.144   3.855   0.467 -0.2348 -0.0336 -0.1742
15710TIP3    H168545   0.181   3.798   0.535  0.1414 -1.0621 -1.2151
15710TIP3    H268546   0.193   3.937   0.475  1.6488 -1.0301 -0.8783
15711TIP3   OH268547   1.497   1.576  17.066 -0.3750 -0.3955  0.0819
15711TIP3    H168548   1.488   1.591  16.972 -0.5907 -0.4998  0.0847
15711TIP3    H268549   1.591   1.569  17.080 -0.2889  0.4734  0.0072
15712TIP3   OH268550   1.680   4.834  15.723  0.5404 -0.1609  0.4196
15712TIP3    H168551   1.715   4.923  15.721  0.0490  0.0221 -0.8788
15712TIP3    H268552   1.586   4.845  15.734  0.4133 -0.4883 -0.2726
15713TIP3   OH268553   3.784   2.829   1.408  0.0437 -0.1494  0.1949
15713TIP3    H168554   3.823   2.753   1.365 -0.1890 -0.6311  0.8209
15713TIP3    H268555   3.731   2.870   1.340  1.6990  0.5891 -0.7130
15714TIP3   OH268556   2.721   4.172  16.444  0.5155  0.2368 -0.6105
15714TIP3    H168557   2.796   4.121  16.414 -0.5838 -0.9266 -1.4908
15714TIP3    H268558   2.677   4.198  16.363  0.0501  1.0499 -0.1077
15715TIP3   OH268559   2.466   5.371   2.414  0.1075 -0.2587  0.1789
15715TIP3    H168560   2.491   5.456   2.378  0.7787 -0.5428 -0.0480
15715TIP3    H268561   2.371   5.375   2.422  0.1906  0.7639  0.8304
15716TIP3   OH268562   1.486   2.134  11.624 -0.0566  0.2922  0.2344
15716TIP3    H168563   1.509   2.227  11.617  1.8237 -0.2855 -3.1742
15716TIP3    H268564   1.408   2.125  11.570  0.6144 -0.3446 -0.6343
15717TIP3   OH268565   2.616   0.540  13.081 -0.0225  0.3393 -0.4567
15717TIP3    H168566   2.658   0.595  13.147 -0.5288  0.9792 -0.6687
15717TIP3    H268567   2.577   0.601  13.019  2.7810 -0.1622 -2.9248
15718TIP3   OH268568   2.846   5.785   4.232  0.2296 -0.4662  0.0644
15718TIP3    H168569   2.818   5.874   4.213 -0.9563 -0.9296 -0.4451
15718TIP3    H268570   2.936   5.780   4.199  0.4803  0.6655  0.5392
15719TIP3   OH268571   5.199   1.875  14.868 -0.5834  0.2540 -0.2148
15719TIP3    H168572   5.156   1.791  14.883  2.0599 -1.0996  0.4627
15719TIP3    H268573   5.235   1.867  14.779 -0.3538  0.6905 -0.1618
15720TIP3   OH268574   2.872   1.828  14.785 -0.3115  0.3795 -0.0214
15720TIP3    H168575   2.854   1.857  14.875 -3.4170 -0.7957 -0.1271
15720TIP3    H268576   2.882   1.733  14.792 -1.4793  0.1661 -0.9790
15721TIP3   OH268577   3.007   5.101  16.364 -0.4936 -0.2702  0.0658
15721TIP3    H168578   3.093   5.113  16.325 -1.0781 -0.2771 -1.2625
15721TIP3    H268579   3.024   5.095  16.458  0.9010  0.1782 -0.1391
15722TIP3   OH268580   3.253   3.089  16.961  0.1256  0.1542  0.6524
15722TIP3    H168581   3.267   3.168  17.014  2.0872  1.3398 -1.4313
15722TIP3    H268582   3.323   3.030  16.988  2.0286  1.3063 -1.3797
15723TIP3   OH268583   6.031   6.102  16.064  0.5083  0.4796 -0.3686
15723TIP3    H168584   5.999   6.025  16.017  1.3061 -0.7311  0.9807
15723TIP3    H268585   5.973   6.173  16.036 -0.0369 -0.5176 -1.9140
15724TIP3   OH268586   5.816   2.607  13.357  0.3778  0.7190 -0.2472
15724TIP3    H168587   5.879   2.559  13.411 -3.0976 -4.5558 -0.2052
15724TIP3    H268588   5.780   2.673  13.417  2.7928  1.0716  0.9495
15725TIP3   OH268589   5.873   6.122   2.838  0.0587 -0.1471  0.2109
15725TIP3    H168590   5.782   6.108   2.812  0.0502 -1.0278  0.6891
15725TIP3    H268591   5.870   6.136   2.932  0.6006 -2.3212  0.6031
15726TIP3   OH268592   1.943   3.523  12.111  0.0928  0.0017  0.1013
15726TIP3    H168593   1.981   3.446  12.152 -0.6656 -0.3562  0.1574
15726TIP3    H268594   1.988   3.597  12.152  0.4500 -0.3974  0.4388
15727TIP3   OH268595   4.300   6.034   1.262 -0.2568 -0.3601  0.2653
15727TIP3    H168596   4.362   6.039   1.335 -0.3056  0.9370  0.2425
15727TIP3    H268597   4.239   6.106   1.278 -2.5851 -2.3676  0.9976
15728TIP3   OH268598   6.003   0.794   5.411 -0.2071 -0.2938 -0.7577
15728TIP3    H168599   5.969   0.819   5.326 -1.5182  0.6146 -0.0044
15728TIP3    H268600   5.942   0.832   5.474  1.4741  0.2463  0.6466
15729TIP3   OH268601   4.434   0.867  16.926  0.0510 -0.0418  0.1835
15729TIP3    H168602   4.421   0.870  16.831 -0.4369  0.9935  0.2678
15729TIP3    H268603   4.514   0.816  16.938  1.7383  2.1843 -0.9529
15730TIP3   OH268604   1.814   1.360   3.392 -0.5829 -0.3581 -0.4139
15730TIP3    H168605   1.874   1.411   3.338 -0.6341 -1.4088 -1.5170
15730TIP3    H268606   1.841   1.269   3.377  0.1061 -0.6461  2.2084
15731TIP3   OH268607   3.701   5.376  13.124  0.0052 -0.2118 -0.0093
15731TIP3    H168608   3.616   5.398  13.162 -0.2486 -0.3628 -0.4840
15731TIP3    H268609   3.704   5.424  13.042  1.9344  2.8131  1.6341
15732TIP3   OH268610   5.111   6.582   2.443 -0.1717  0.1339 -0.0314
15732TIP3    H168611   5.192   6.593   2.493 -0.9493  1.8642  0.9386
15732TIP3    H268612   5.061   6.662   2.460 -1.9976 -0.7892 -0.7825
15733TIP3   OH268613   6.497   2.005   2.481 -0.0131 -0.7398  0.0951
15733TIP3    H168614   6.542   1.938   2.430 -2.0556 -1.4333 -0.9009
15733TIP3    H268615   6.478   2.074   2.418 -0.0165 -0.2963  0.5794
15734TIP3   OH268616   3.501   0.341   3.457 -0.0084  0.2099  0.1242
15734TIP3    H168617   3.431   0.377   3.403  0.0100  0.0360 -0.0168
15734TIP3    H268618   3.456   0.285   3.520  0.1279 -1.4170 -1.1576
15735TIP3   OH268619   4.680   0.635   4.305  0.1720  0.3998  0.0414
15735TIP3    H168620   4.696   0.594   4.390  0.4513 -1.4038 -0.8465
15735TIP3    H268621   4.767   0.660   4.274  0.6011 -2.3221 -1.2956
15736TIP3   OH268622   1.006   1.855  12.368 -0.0078 -0.1001 -0.1896
15736TIP3    H168623   0.924   1.807  12.367 -0.4498  0.6483 -0.6209
15736TIP3    H268624   0.981   1.947  12.361  0.8300  0.1924  0.4151
15737TIP3   OH268625   4.016   1.813  14.811  0.5262  0.1021 -0.1989
15737TIP3    H168626   3.975   1.759  14.879 -0.5726  1.4524  0.2674
15737TIP3    H268627   4.093   1.850  14.853  0.9885 -0.6516 -0.3561
15738TIP3   OH268628   0.310   2.216  10.772 -0.1658 -0.2851 -0.2686
15738TIP3    H168629   0.404   2.228  10.763  0.2628 -2.1810  1.2512
15738TIP3    H268630   0.296   2.122  10.764 -1.9532 -0.0501 -0.4177
15739TIP3   OH268631   2.465   1.849  14.522 -0.1238 -0.3634 -0.1309
15739TIP3    H168632   2.530   1.897  14.573 -1.6207  0.9257  0.6412
15739TIP3    H268633   2.506   1.837  14.436  1.5597 -0.6059  0.6611
15740TIP3   OH268634   4.528   1.577   0.182 -0.5656  0.1200 -0.7155
15740TIP3    H168635   4.616   1.540   0.188 -0.9291 -0.9034 -1.4606
15740TIP3    H268636   4.540   1.670   0.203  0.2393 -0.4986  1.9955
15741TIP3   OH268637   3.007   0.460   3.991  0.4755  0.1399  0.3205
15741TIP3    H168638   2.913   0.448   4.007  0.3878  0.1764 -0.1515
15741TIP3    H268639   3.050   0.398   4.049  0.1045 -1.0463 -0.6282
15742TIP3   OH268640   0.060   3.448   5.630 -0.6149 -0.2957  0.3099
15742TIP3    H168641   0.038   3.483   5.717 -0.1188 -1.4303  0.9190
15742TIP3    H268642   0.151   3.472   5.617 -0.6189 -0.3335  0.2080
15743TIP3   OH268643   3.348   0.236   0.398  0.3814  0.0587 -0.5769
15743TIP3    H168644   3.282   0.288   0.352  0.0044  1.4768  1.4115
15743TIP3    H268645   3.307   0.214   0.482  1.8587 -0.3731  0.0736
15744TIP3   OH268646   0.440   5.659  13.094 -0.0723 -0.0170  0.0579
15744TIP3    H168647   0.353   5.627  13.117 -1.2978  1.5503 -2.0564
15744TIP3    H268648   0.467   5.605  13.020  0.2238  0.2980 -0.0649
15745TIP3   OH268649   3.173   0.382   5.727 -0.1579 -0.3662 -0.2244
15745TIP3    H168650   3.117   0.367   5.651 -2.5911  0.2798  1.3257
15745TIP3    H268651   3.113   0.412   5.795  1.5169 -2.9085  2.6262
15746TIP3   OH268652   5.701   3.851   0.551 -0.3015 -0.2646 -0.2419
15746TIP3    H168653   5.616   3.862   0.594 -0.6628 -1.8155 -0.4759
15746TIP3    H268654   5.759   3.817   0.620 -0.1479 -0.1705 -0.3234
15747TIP3   OH268655   4.091   5.836  16.294  0.2628  0.0550  0.0507
15747TIP3    H168656   4.063   5.745  16.282  1.1165 -0.3158  0.7774
15747TIP3    H268657   4.157   5.832  16.362  1.1336  1.0785 -0.7029
15748TIP3   OH268658   0.745   3.544   6.379 -0.4454 -0.1232  0.0758
15748TIP3    H168659   0.691   3.509   6.308  0.7712 -0.6919 -0.6075
15748TIP3    H268660   0.745   3.639   6.364 -0.5019 -0.2064 -0.4796
15749TIP3   OH268661   1.381   6.035   2.460 -0.0860  0.2709 -0.0252
15749TIP3    H168662   1.459   6.074   2.500 -0.4455  1.6411 -0.6039
15749TIP3    H268663   1.408   5.947   2.435  0.5196 -0.1654  2.0485
15750TIP3   OH268664   4.293   3.553  12.835 -0.4443 -0.7608 -0.3760
15750TIP3    H168665   4.241   3.486  12.791 -1.5011 -0.6657  0.6880
15750TIP3    H268666   4.238   3.631  12.834  0.7940  0.1400 -1.6393
15751TIP3   OH268667   6.250   1.365  13.167  0.5090  0.0764 -0.6564
15751TIP3    H168668   6.262   1.273  13.145 -0.1534 -0.1976  0.0924
15751TIP3    H268669   6.230   1.365  13.261 -0.6606  0.8585 -0.8813
15752TIP3   OH268670   5.975   6.737  14.906  0.0800 -0.2453 -0.3915
15752TIP3    H168671   6.030   6.755  14.982 -0.4301  1.6958 -0.4346
15752TIP3    H268672   5.971   6.641  14.902 -0.4307 -0.4386  2.4249
15753TIP3   OH268673   2.108   0.950   0.407 -0.1742 -0.2559  0.3430
15753TIP3    H168674   2.143   0.988   0.488 -1.4960 -0.6381  1.1298
15753TIP3    H268675   2.158   0.992   0.337 -0.2349  1.4412  1.2673
15754TIP3   OH268676   2.016   2.959  13.384  0.1063  0.3359  0.1902
15754TIP3    H168677   1.972   3.037  13.350  0.4009 -0.1336 -1.3713
15754TIP3    H268678   2.106   2.989  13.401 -0.6088  1.1940  3.0124
15755TIP3   OH268679   6.107   0.750  11.004  0.4332  0.1251 -0.0762
15755TIP3    H168680   6.165   0.679  11.034  1.3342  0.3765 -1.1423
15755TIP3    H268681   6.105   0.740  10.909 -1.4526  0.0196 -0.0700
15756TIP3   OH268682   5.652   4.188   1.414 -0.1584 -0.4083  0.2303
15756TIP3    H168683   5.721   4.222   1.358 -0.0598 -1.6221 -0.4019
15756TIP3    H268684   5.682   4.102   1.441 -1.3620 -0.9027  0.0567
15757TIP3   OH268685   3.684   1.596  16.539  0.0695  0.7630  0.3172
15757TIP3    H168686   3.646   1.557  16.617  1.7776  0.2052  0.9084
15757TIP3    H268687   3.614   1.593  16.474 -0.1828 -2.4444  0.5995
15758TIP3   OH268688   3.642   4.535  10.268  0.0635  0.6686 -0.1707
15758TIP3    H168689   3.634   4.502  10.179  3.4302  0.0858 -0.3760
15758TIP3    H268690   3.667   4.458  10.320 -2.0431  0.9418  1.3968
15759TIP3   OH268691   6.108   0.109  16.026 -0.4333 -0.4793  0.2793
15759TIP3    H168692   6.058   0.183  16.061  0.4944  0.1735  0.2412
15759TIP3    H268693   6.196   0.121  16.060 -0.5137 -2.2287  1.2667
15760TIP3   OH268694   2.855   1.309  11.827  0.5854  0.2896  0.1920
15760TIP3    H168695   2.797   1.340  11.896  0.7172  0.0024  0.4294
15760TIP3    H268696   2.823   1.353  11.748  0.9063  1.2083  0.5611
15761TIP3   OH268697   1.178   1.728  14.266  0.3511 -0.3458 -0.1234
15761TIP3    H168698   1.107   1.673  14.299  0.7809 -0.4338  0.6736
15761TIP3    H268699   1.249   1.666  14.247  0.7634 -0.1011  0.5838
15762TIP3   OH268700   0.709   3.751  12.991  0.3934  0.3306 -0.0453
15762TIP3    H168701   0.627   3.718  12.955  0.7230  0.0377 -0.5519
15762TIP3    H268702   0.687   3.836  13.029 -0.3355 -0.1573  0.6722
15763TIP3   OH268703   5.459   0.782  14.824 -0.1021  0.1683 -0.2312
15763TIP3    H168704   5.387   0.770  14.762  0.7341  0.1881 -1.2280
15763TIP3    H268705   5.518   0.844  14.781 -0.8673  2.4928  1.8102
15764TIP3   OH268706   4.187   3.090   3.292  0.0189  0.3578  0.0052
15764TIP3    H168707   4.195   3.025   3.362  1.7529  1.1393  0.5730
15764TIP3    H268708   4.095   3.083   3.264  0.3576 -3.0933 -0.7290
15765TIP3   OH268709   1.257   0.949   1.424  0.2034 -0.0757 -0.5080
15765TIP3    H168710   1.330   1.010   1.422  0.4684 -0.1903  2.1983
15765TIP3    H268711   1.185   0.998   1.464  0.1365 -1.1807  0.8227
15766TIP3   OH268712   1.966   0.950   2.395 -0.1444  0.0606 -0.6080
15766TIP3    H168713   2.046   0.918   2.354  0.5338  1.4975 -0.4577
15766TIP3    H268714   1.995   0.991   2.476 -1.1641 -0.3521 -0.0186
15767TIP3   OH268715   4.207   1.516  13.454  0.5762  0.1943  0.5852
15767TIP3    H168716   4.116   1.510  13.484  0.8159 -0.6522  1.1779
15767TIP3    H268717   4.205   1.583  13.386 -0.6563 -0.4686 -0.0640
15768TIP3   OH268718   4.660   0.427  15.346  0.0732  0.5359 -0.1153
15768TIP3    H168719   4.595   0.402  15.412  0.4082  1.5687  0.6307
15768TIP3    H268720   4.611   0.478  15.282 -0.1798 -0.1660 -0.4999
15769TIP3   OH268721   6.410   4.164  11.734 -0.0884 -0.7701 -0.0232
15769TIP3    H168722   6.315   4.157  11.722 -0.4302  1.2368  1.1787
15769TIP3    H268723   6.422   4.162  11.829  0.9605  0.0407 -0.1241
15770TIP3   OH268724   4.859   0.737  16.359  0.7177 -0.8765  0.0767
15770TIP3    H168725   4.860   0.820  16.407  0.0380 -0.7347 -0.1409
15770TIP3    H268726   4.784   0.745  16.300  0.8651 -1.5052 -0.2014
15771TIP3   OH268727   6.418   5.000   2.154 -0.3337  0.2316  0.2848
15771TIP3    H168728   6.392   4.954   2.074 -2.7676 -0.0655  1.1596
15771TIP3    H268729   6.467   4.935   2.204  2.2266  0.7550 -1.3600
15772TIP3   OH268730   6.665   3.527   3.933 -0.4555  0.5259  1.0198
15772TIP3    H168731   6.720   3.477   3.994  0.3960  0.4113  0.1841
15772TIP3    H268732   6.719   3.535   3.854 -1.0986  1.6497  0.6820
15773TIP3   OH268733   5.181   5.881   3.208  0.1241 -0.0174  0.2176
15773TIP3    H168734   5.203   5.816   3.141 -2.1114 -2.7159  1.8652
15773TIP3    H268735   5.236   5.859   3.283  1.1558  1.6750 -0.0048
15774TIP3   OH268736   6.680   1.821   1.979  0.1094 -0.0754  0.8260
15774TIP3    H168737   6.652   1.901   1.933  1.5828  0.0110  0.0186
15774TIP3    H268738   6.775   1.831   1.989  0.8741 -2.9041 -1.8387
15775TIP3   OH268739   4.282   5.697  14.540  0.0828  0.1186  0.4420
15775TIP3    H168740   4.360   5.724  14.492 -0.8552  0.2143 -1.0928
15775TIP3    H268741   4.300   5.722  14.631  1.8164  0.1450  0.1208
15776TIP3   OH268742   3.101   6.442  10.788 -0.0246  0.8624 -0.3298
15776TIP3    H168743   3.021   6.451  10.737 -1.3754 -3.2508  0.6962
15776TIP3    H268744   3.073   6.401  10.870  2.9801  0.4964  0.6430
15777TIP3   OH268745   5.149   0.055  11.733  0.3340 -0.1787  0.2743
15777TIP3    H168746   5.232   0.008  11.728  0.4022 -0.1739  1.3122
15777TIP3    H268747   5.085  -0.012  11.758  0.1375 -0.0395  0.1499
15778TIP3   OH268748   4.149   1.225   5.193 -0.1849 -0.8086 -0.3458
15778TIP3    H168749   4.223   1.276   5.224  0.9077 -1.1958 -2.1800
15778TIP3    H268750   4.085   1.230   5.264  1.3874 -0.0674  1.0851
15779TIP3   OH268751   4.188   6.558   5.645 -0.0211 -0.6725  0.0576
15779TIP3    H168752   4.113   6.569   5.586  1.0507 -0.4128 -1.2969
15779TIP3    H268753   4.243   6.492   5.602  0.6540 -0.6763  0.9043
15780TIP3   OH268754   0.678   2.696  11.122 -0.3903  0.2192  0.0199
15780TIP3    H168755   0.662   2.633  11.051 -1.7411 -0.0596  0.5373
15780TIP3    H268756   0.647   2.652  11.201  2.0343  0.1330  0.9948
15781TIP3   OH268757   6.077   0.792   0.767  0.3067  0.2895  0.2185
15781TIP3    H168758   6.093   0.814   0.859  0.8156  1.3026 -0.0974
15781TIP3    H268759   6.119   0.862   0.718 -0.9763  0.3996 -0.7765
15782TIP3   OH268760   0.944   0.784   1.483  0.3195  0.3464  0.0025
15782TIP3    H168761   0.927   0.838   1.560 -3.2318 -0.9633  0.3298
15782TIP3    H268762   0.915   0.839   1.409 -2.9848 -0.7314  0.3110
15783TIP3   OH268763   0.858   3.795  15.201  0.6089 -0.0061  0.0914
15783TIP3    H168764   0.909   3.848  15.263 -0.2123 -0.2800  1.0435
15783TIP3    H268765   0.819   3.859  15.142 -2.1682  0.8122  2.5462
15784TIP3   OH268766   5.123   4.349  15.998 -0.3908 -0.0809 -1.0225
15784TIP3    H168767   5.152   4.350  15.906  0.1677 -2.3773 -0.9473
15784TIP3    H268768   5.119   4.256  16.020 -0.3032  0.4243  1.3642
15785TIP3   OH268769   3.447   6.087  14.270 -0.3115  0.0971  0.0216
15785TIP3    H168770   3.481   6.088  14.180 -1.0729  0.9033 -0.2661
15785TIP3    H268771   3.395   6.007  14.275 -2.5542  1.4142 -1.1476
15786TIP3   OH268772   6.147   3.760   3.833 -0.0625 -0.5940  0.4448
15786TIP3    H168773   6.067   3.784   3.786  0.3524  3.6940  1.4514
15786TIP3    H268774   6.116   3.721   3.915 -1.1682  0.4599  0.5658
15787TIP3   OH268775   0.438   3.968  12.637 -0.2271 -0.7033  1.1029
15787TIP3    H168776   0.470   4.039  12.693 -0.3875 -1.5368  2.2976
15787TIP3    H268777   0.511   3.948  12.578  0.4577 -0.7351  1.9467
15788TIP3   OH268778   1.007   1.377  15.588 -0.2503  0.3383 -0.0766
15788TIP3    H168779   1.099   1.387  15.613 -0.7663  3.4742  0.9859
15788TIP3    H268780   0.983   1.290  15.620  2.3388 -0.6170 -0.5117
15789TIP3   OH268781   6.505   5.314   1.609  0.2048  0.0487  0.5099
15789TIP3    H168782   6.545   5.251   1.668 -3.7602 -0.1333  3.3406
15789TIP3    H268783   6.459   5.260   1.544  1.8729  0.2535 -0.9464
15790TIP3   OH268784   1.475   1.495   0.505  0.2169 -0.0324  0.0713
15790TIP3    H168785   1.396   1.497   0.450 -0.8666  0.9357  1.5667
15790TIP3    H268786   1.460   1.420   0.563  1.7567 -1.5917 -1.4301
15791TIP3   OH268787   5.927   0.058   2.872 -0.2910  0.2034 -0.3280
15791TIP3    H168788   5.857   0.065   2.808  1.1110  0.6480 -1.8738
15791TIP3    H268789   5.941   0.147   2.903  0.4521  0.3315 -1.0055
15792TIP3   OH268790   4.186   3.391   6.108  0.1474 -0.1557  0.1320
15792TIP3    H168791   4.155   3.357   6.192 -1.1393  0.4841 -0.0582
15792TIP3    H268792   4.247   3.324   6.076 -1.2882 -1.6433  0.3885
15793TIP3   OH268793   6.731   5.076   0.384 -0.2489 -0.4708 -0.3251
15793TIP3    H168794   6.698   5.038   0.303  1.8879  1.0442 -2.0194
15793TIP3    H268795   6.817   5.035   0.396  0.3046  0.7655  0.0667
15794TIP3   OH268796   4.448   4.957   4.012  0.6823 -0.1074  0.1722
15794TIP3    H168797   4.507   4.889   4.044  0.1638 -1.2230 -1.1099
15794TIP3    H268798   4.503   5.015   3.959  1.1023  0.4216  1.1664
15795TIP3   OH268799   5.677   0.628  12.410  0.0783 -0.2798  0.4315
15795TIP3    H168800   5.708   0.538  12.414  1.3209  0.1006 -0.0678
15795TIP3    H268801   5.719   0.664  12.332 -1.3669  0.3884 -0.0777
15796TIP3   OH268802   4.192   5.960   3.385  0.0354 -0.4008 -0.1562
15796TIP3    H168803   4.151   5.878   3.357 -0.1786  0.3789 -2.3700
15796TIP3    H268804   4.129   6.028   3.360  1.4259  0.6225 -1.0863
15797TIP3   OH268805   1.832   4.319   4.466 -0.4792  0.2370  0.3344
15797TIP3    H168806   1.917   4.361   4.473 -0.3035  0.0427 -0.5192
15797TIP3    H268807   1.795   4.353   4.384 -0.5226 -0.9146 -0.1370
15798TIP3   OH268808   3.571   0.032  15.923 -0.6117 -0.4578  0.2550
15798TIP3    H168809   3.611  -0.055  15.932  1.6460  0.5241  0.3097
15798TIP3    H268810   3.615   0.071  15.848  2.0693  2.4512  3.0493
15799TIP3   OH268811   1.286   5.124   1.710 -0.9148  0.1895  0.0051
15799TIP3    H168812   1.215   5.127   1.646 -1.0317  1.8967  0.1706
15799TIP3    H268813   1.315   5.215   1.718 -0.1633 -0.1531  1.5564
15800TIP3   OH268814   2.069   1.491  16.258 -0.2408  0.3871  0.0015
15800TIP3    H168815   2.081   1.528  16.346  1.4685 -0.6039  0.2277
15800TIP3    H268816   2.152   1.509  16.213 -0.9989  0.6636 -1.3530
15801TIP3   OH268817   0.986   3.797  15.898 -0.1188 -0.6466 -0.2856
15801TIP3    H168818   0.987   3.862  15.968  0.7140  0.3617 -1.1967
15801TIP3    H268819   0.896   3.765  15.895 -0.5210  0.4129  0.2420
15802TIP3   OH268820   4.746   0.433   3.480  0.1696 -0.1956  0.0442
15802TIP3    H168821   4.838   0.453   3.460  0.3219 -0.3893  0.5350
15802TIP3    H268822   4.722   0.495   3.549  0.9349 -2.2297  2.2553
15803TIP3   OH268823   6.444   3.477  14.239 -0.2290 -0.0289  0.8545
15803TIP3    H168824   6.519   3.526  14.272  2.2221 -1.2119 -2.3676
15803TIP3    H268825   6.450   3.392  14.283 -0.2614  0.1940  1.2969
15804TIP3   OH268826   3.185   5.265   1.490  0.5098 -0.2245  0.0430
15804TIP3    H168827   3.268   5.230   1.458  0.8539  0.6608 -0.0723
15804TIP3    H268828   3.145   5.307   1.414  0.7521  0.8027  0.4590
15805TIP3   OH268829   5.859   1.273   4.359  0.2572 -0.0797  0.2881
15805TIP3    H168830   5.822   1.185   4.356  1.3728 -0.7122  2.5937
15805TIP3    H268831   5.784   1.332   4.349 -0.6159 -1.2726 -0.4018
15806TIP3   OH268832   3.798   1.494  16.216  0.2862  0.1463 -0.5724
15806TIP3    H168833   3.708   1.481  16.245  1.2026  0.2030  2.6088
15806TIP3    H268834   3.827   1.406  16.190  0.2387 -0.5416  1.4914
15807TIP3   OH268835   6.773   6.379   1.752  0.0528  0.3551 -0.1264
15807TIP3    H168836   6.773   6.337   1.838 -0.1391 -0.2180 -0.4036
15807TIP3    H268837   6.819   6.317   1.696  1.1458  1.2124 -0.2069
15808TIP3   OH268838   3.919   4.832  13.609 -0.2974  0.2299  0.2162
15808TIP3    H168839   3.943   4.771  13.679 -1.4986  0.7844  1.1542
15808TIP3    H268840   3.951   4.917  13.640 -0.0415  0.3332 -0.3315
15809TIP3   OH268841   4.257   1.438  15.231  0.6033  0.0078 -1.0332
15809TIP3    H168842   4.209   1.452  15.149 -0.1390 -2.0849 -1.0049
15809TIP3    H268843   4.252   1.344  15.246  2.1671  0.1343  0.5726
15810TIP3   OH268844   4.230   5.227  11.554 -0.4704 -0.6958 -0.2230
15810TIP3    H168845   4.218   5.147  11.606  0.6899 -0.9177 -0.2677
15810TIP3    H268846   4.208   5.201  11.465 -1.4598 -0.5843 -0.0265
15811TIP3   OH268847   4.474   0.861  12.650  0.0630 -0.5764 -0.0975
15811TIP3    H168848   4.468   0.864  12.554 -0.7632 -1.4138 -0.0823
15811TIP3    H268849   4.561   0.824  12.667 -0.7520 -2.9422 -0.6042
15812TIP3   OH268850   4.165   5.438  12.260 -0.0455 -0.2142  0.4810
15812TIP3    H168851   4.221   5.425  12.183 -0.1405 -0.2553  0.4185
15812TIP3    H268852   4.093   5.375  12.248 -0.6254  0.5099  0.0663
15813TIP3   OH268853   5.892   6.374   0.978 -0.3808  0.1517 -0.0672
15813TIP3    H168854   5.930   6.294   1.015  0.5123  0.4189 -0.4059
15813TIP3    H268855   5.964   6.437   0.975 -0.8041  0.6209 -0.8380
15814TIP3   OH268856   1.032   6.583  12.776 -0.1616 -0.6669 -0.3398
15814TIP3    H168857   1.095   6.610  12.709  1.2736 -0.0159  1.2132
15814TIP3    H268858   1.059   6.495  12.800 -1.2921 -1.3067 -1.2580
15815TIP3   OH268859   1.255   0.116  13.622  0.2497 -0.1123  0.0761
15815TIP3    H168860   1.192   0.127  13.551 -2.0382 -0.7592  1.8758
15815TIP3    H268861   1.319   0.054  13.587  1.4472  2.4069 -2.6879
15816TIP3   OH268862   5.644   5.722   3.689  0.0360  0.3959  0.3290
15816TIP3    H168863   5.700   5.798   3.670  0.2723 -0.1167 -1.1538
15816TIP3    H268864   5.566   5.760   3.729 -0.4980  1.6361 -1.6980
15817TIP3   OH268865   3.354   4.045   6.482 -0.2182  0.3361  0.4434
15817TIP3    H168866   3.335   4.134   6.512  2.9813  1.0540  0.6679
15817TIP3    H268867   3.442   4.027   6.515  0.6782 -1.5285 -2.6367
15818TIP3   OH268868   6.149   1.762  15.136  0.5306  0.5376 -0.5023
15818TIP3    H168869   6.115   1.712  15.210 -0.8549  1.0405 -0.7861
15818TIP3    H268870   6.122   1.852  15.152 -0.8107  0.4751 -2.1648
15819TIP3   OH268871   4.397   5.707  11.489  0.2783 -0.1018  0.3307
15819TIP3    H168872   4.415   5.759  11.411  3.2963  0.3179  1.1871
15819TIP3    H268873   4.388   5.617  11.457  1.1714  0.1034 -0.5317
15820TIP3   OH268874   0.384   3.328  12.193 -0.5022 -0.7728  0.2360
15820TIP3    H168875   0.381   3.306  12.100  2.0848 -2.6672  0.5063
15820TIP3    H268876   0.352   3.250  12.238 -0.3446 -0.4215  0.9767
15821TIP3   OH268877   2.324   3.001  12.842  0.1295  0.1924  0.0603
15821TIP3    H168878   2.257   3.036  12.784 -1.0475 -0.1549  1.1664
15821TIP3    H268879   2.364   2.930  12.793 -0.7981 -0.0500 -0.3655
15822TIP3   OH268880   3.498   5.275   4.219  0.4624 -0.4931 -0.4105
15822TIP3    H168881   3.482   5.319   4.135 -0.6032 -0.4004 -0.1737
15822TIP3    H268882   3.566   5.328   4.261 -1.9616  2.0701  0.6155
15823TIP3   OH268883   6.209   5.656  15.482 -0.2723 -0.3056 -0.8440
15823TIP3    H168884   6.223   5.685  15.572 -0.9361 -0.5199 -0.6673
15823TIP3    H268885   6.260   5.718  15.429 -0.4686  0.2677 -0.3758
15824TIP3   OH268886   1.689   2.276   3.366  0.1042 -0.3327  0.6289
15824TIP3    H168887   1.725   2.359   3.334 -0.8789 -0.3526 -0.5890
15824TIP3    H268888   1.736   2.209   3.317 -0.5744 -0.4088  0.0706
15825TIP3   OH268889   6.591   4.509   2.583  0.3476  0.8497 -0.2762
15825TIP3    H168890   6.505   4.498   2.545  0.5425  2.6375 -1.3383
15825TIP3    H268891   6.611   4.424   2.622 -0.9044 -0.3072 -2.0129
15826TIP3   OH268892   2.131   5.656  15.481 -0.0314 -0.0280 -0.1233
15826TIP3    H168893   2.055   5.608  15.512  0.7053 -0.8615  0.4404
15826TIP3    H268894   2.159   5.708  15.557  0.2294 -0.0744 -0.1871
15827TIP3   OH268895   4.410   0.761  14.788  0.0509 -0.1984 -0.1690
15827TIP3    H168896   4.471   0.800  14.851 -0.3003  0.4060 -0.1971
15827TIP3    H268897   4.376   0.836  14.738 -0.2225 -0.5972 -0.5912
15828TIP3   OH268898   3.357   2.247   3.220 -0.4523 -0.9023  0.7425
15828TIP3    H168899   3.361   2.178   3.154  0.3130  0.0874 -0.3017
15828TIP3    H268900   3.293   2.217   3.284  1.0301 -3.3289  1.2123
15829TIP3   OH268901   5.158   3.596  13.371  0.4437 -0.1079 -0.8085
15829TIP3    H168902   5.111   3.668  13.329 -1.0907 -0.6580 -0.0888
15829TIP3    H268903   5.093   3.527  13.382  1.4196 -0.9166  0.1932
15830TIP3   OH268904   3.593   1.362   0.613  0.1462 -0.1441  0.2069
15830TIP3    H168905   3.663   1.414   0.653  1.9913 -1.4942 -1.1227
15830TIP3    H268906   3.591   1.392   0.522 -0.4122 -0.7150  0.0269
15831TIP3   OH268907   5.341   5.193  15.267  0.4862 -0.2000 -0.2826
15831TIP3    H168908   5.332   5.101  15.241 -0.4944 -0.9749  2.4711
15831TIP3    H268909   5.433   5.202  15.292  0.1253 -1.0724  1.4697
15832TIP3   OH268910   1.172   3.372   3.826 -0.6734 -0.2805 -0.6605
15832TIP3    H168911   1.158   3.431   3.752 -0.8430  0.3653 -0.1208
15832TIP3    H268912   1.267   3.359   3.829 -0.6589 -0.2519 -0.9445
15833TIP3   OH268913   6.630   3.512  16.664 -0.3299  0.0238  0.1684
15833TIP3    H168914   6.596   3.428  16.694 -0.7925 -0.3620 -1.3553
15833TIP3    H268915   6.641   3.502  16.570  0.0451  1.5247  0.0178
15834TIP3   OH268916   0.239   4.722   4.714 -0.1004  0.1783  0.2681
15834TIP3    H168917   0.317   4.671   4.694 -2.2083 -3.1494 -0.2484
15834TIP3    H268918   0.208   4.686   4.797 -1.0045  1.5739  0.5670
15835TIP3   OH268919   5.103   5.380   2.799  0.1120  0.5880  0.0375
15835TIP3    H168920   5.090   5.371   2.894  1.8218  0.8077  0.3295
15835TIP3    H268921   5.164   5.454   2.790 -0.1150  0.6393 -1.2443
15836TIP3   OH268922   1.243   0.623   0.661  0.1916  0.3730 -0.3214
15836TIP3    H168923   1.174   0.558   0.645 -0.6933  1.1364  0.3243
15836TIP3    H268924   1.302   0.581   0.723 -0.7890  0.4548  0.6846
15837TIP3   OH268925   2.227   5.707  16.407 -0.4290 -0.2438  0.1092
15837TIP3    H168926   2.319   5.693  16.388  0.3443  1.9359  1.8526
15837TIP3    H268927   2.200   5.630  16.457  1.2448  0.2979  1.9646
15838TIP3   OH268928   1.970   3.673  13.705 -0.5258  0.3336  0.1803
15838TIP3    H168929   1.958   3.767  13.692 -0.7335  0.4714  1.2378
15838TIP3    H268930   1.881   3.638  13.709 -0.5666  0.5086  2.3751
15839TIP3   OH268931   0.013   6.286  11.774 -0.3326 -0.6104  0.1106
15839TIP3    H168932  -0.071   6.320  11.743 -0.3984 -0.6590  0.2333
15839TIP3    H268933   0.079   6.340  11.731 -0.4625  0.6013  1.3748
15840TIP3   OH268934   6.185   6.464   2.397  0.4504  0.0494  0.8152
15840TIP3    H168935   6.159   6.374   2.377 -0.7606  0.4373  0.5698
15840TIP3    H268936   6.249   6.455   2.467  1.8599 -1.1104 -0.5526
15841TIP3   OH268937   5.051   5.781   4.194  0.1002 -0.1198 -0.4189
15841TIP3    H168938   4.968   5.799   4.237  0.7790 -0.0298  0.9203
15841TIP3    H268939   5.073   5.863   4.149 -0.3463 -0.0182 -0.4510
15842TIP3   OH268940   1.590   1.745  11.888  0.7061  0.0822 -0.4555
15842TIP3    H168941   1.616   1.815  11.828  1.7070  0.9490  0.9308
15842TIP3    H268942   1.546   1.790  11.960 -1.1849 -1.0167 -0.8572
15843TIP3   OH268943   2.785   2.776  15.055 -0.1463  0.5269 -0.2529
15843TIP3    H168944   2.797   2.681  15.045  0.8909  0.0948  3.5041
15843TIP3    H268945   2.694   2.791  15.028 -0.2485 -1.4944 -1.2032
15844TIP3   OH268946   4.776   3.333   5.787  0.5389  0.9409  0.1764
15844TIP3    H168947   4.854   3.278   5.782 -0.2351 -0.2150  0.2923
15844TIP3    H268948   4.807   3.416   5.822  1.7522  0.5968 -0.0156
15845TIP3   OH268949   4.807   4.703   4.772 -0.4168 -0.0862 -0.4824
15845TIP3    H168950   4.820   4.748   4.855 -1.6760  0.3042 -0.4645
15845TIP3    H268951   4.713   4.685   4.769 -0.1290 -1.6670 -1.0359
15846TIP3   OH268952   0.143   0.593   4.955 -0.0980 -0.7735  0.1645
15846TIP3    H168953   0.136   0.502   4.926  2.2819 -1.2449  0.8919
15846TIP3    H268954   0.052   0.619   4.974 -0.9499 -2.6151 -1.0891
15847TIP3   OH268955   5.239   6.762   2.029  0.1010  0.4522  0.5385
15847TIP3    H168956   5.217   6.823   1.958 -0.1115  0.2535  0.4335
15847TIP3    H268957   5.164   6.703   2.035  1.3516 -1.4271 -1.0823
15848TIP3   OH268958   5.098   5.143   2.344  0.6346  0.1537 -0.0117
15848TIP3    H168959   5.029   5.161   2.279  0.7296 -0.0832 -0.1780
15848TIP3    H268960   5.064   5.180   2.425  0.4799  0.3862 -0.1792
15849TIP3   OH268961   2.001   4.656  16.387 -0.0932 -0.2655  0.0577
15849TIP3    H168962   1.913   4.683  16.362  0.9918  3.5118 -0.3085
15849TIP3    H268963   2.025   4.589  16.323 -1.8500  0.3310 -1.3007
15850TIP3   OH268964   1.861   3.643  10.894  0.3465  0.4135 -0.6271
15850TIP3    H168965   1.949   3.607  10.886  0.4497  0.1648  1.2287
15850TIP3    H268966   1.804   3.574  10.860  0.7413 -0.3873  0.2720
15851TIP3   OH268967   4.362   6.065  14.185  0.1302  0.4887 -0.2481
15851TIP3    H168968   4.435   6.081  14.124  1.1336 -1.1167  0.4773
15851TIP3    H268969   4.396   6.000  14.247 -2.0085 -0.5084 -0.0403
15852TIP3   OH268970   0.630   0.875   0.243  0.2758  0.0422  0.4114
15852TIP3    H168971   0.636   0.788   0.284 -0.3680 -0.0568  0.3171
15852TIP3    H268972   0.536   0.893   0.241  0.4514  1.2164  1.4143
15853TIP3   OH268973   4.301   0.381   1.609 -0.1515 -0.3064  0.5082
15853TIP3    H168974   4.264   0.415   1.690 -0.3502 -0.7682  0.6169
15853TIP3    H268975   4.250   0.421   1.539  1.2390  1.5899  0.5133
15854TIP3   OH268976   3.616   2.508   4.181 -0.1808 -0.2093  0.2840
15854TIP3    H168977   3.693   2.480   4.229 -0.6882  1.6720  2.3522
15854TIP3    H268978   3.593   2.433   4.125  0.9877 -2.1667  2.2979
15855TIP3   OH268979   5.064   5.846   6.562 -0.2811 -0.3662  0.5275
15855TIP3    H168980   5.098   5.935   6.550 -0.5163  0.3500  4.0038
15855TIP3    H268981   4.972   5.852   6.539 -0.2545  0.2604  0.5689
15856TIP3   OH268982   6.327   4.983  13.800 -0.0822  0.2362 -0.0046
15856TIP3    H168983   6.259   4.930  13.843 -0.5881  1.7899  1.2173
15856TIP3    H268984   6.288   5.070  13.794  0.6397  0.4489 -2.1945
15857TIP3   OH268985   2.733   1.993  16.417  0.2849 -0.3209  0.1670
15857TIP3    H168986   2.784   2.071  16.394 -1.2913  0.2868 -1.4782
15857TIP3    H268987   2.655   2.026  16.460 -1.5845 -0.6975 -2.6739
15858TIP3   OH268988   4.890   2.190   5.347 -0.2405  0.3204 -0.2698
15858TIP3    H168989   4.980   2.192   5.315  0.0353 -0.9098  0.3876
15858TIP3    H268990   4.897   2.214   5.439 -0.4932 -0.5375 -0.0266
15859TIP3   OH268991   4.914   4.263  13.226 -0.5026 -1.1943 -0.7901
15859TIP3    H168992   4.918   4.358  13.211  0.3135 -0.8942  1.0222
15859TIP3    H268993   4.939   4.225  13.142 -3.1037  0.0925 -2.2699
15860TIP3   OH268994   5.305   0.040  12.726  0.4841  0.4364 -0.2389
15860TIP3    H168995   5.305  -0.013  12.646 -1.4531  1.2594 -0.8455
15860TIP3    H268996   5.213   0.064  12.739  1.0549  2.1432  1.0040
15861TIP3   OH268997   2.130   0.771  16.656  0.3166  0.0209 -0.3108
15861TIP3    H168998   2.037   0.752  16.668  0.4034  1.1669  3.1621
15861TIP3    H268999   2.175   0.694  16.692  0.7294  0.1265 -0.5885
15862TIP3   OH269000   6.519   2.488   5.799 -0.0456 -0.5803  0.1129
15862TIP3    H169001   6.438   2.519   5.840 -0.4538  0.7137 -1.5968
15862TIP3    H269002   6.505   2.500   5.706  2.1748 -0.2353 -0.2192
15863TIP3   OH269003   0.075   3.539  12.987  0.0983 -0.0812  0.2890
15863TIP3    H169004  -0.009   3.503  12.956  0.6722 -0.6058 -0.6987
15863TIP3    H269005   0.112   3.583  12.911  0.4144  0.7509  0.9076
15864TIP3   OH269006   1.401   1.677   1.120  0.0381  0.2424 -0.1879
15864TIP3    H169007   1.468   1.743   1.138 -1.6714  1.5606  1.8613
15864TIP3    H269008   1.407   1.662   1.025  2.3053  1.2761 -0.2687
15865TIP3   OH269009   5.289   2.731   5.773 -0.1434 -0.3111  0.4689
15865TIP3    H169010   5.323   2.648   5.740  0.8374  0.0544  0.5126
15865TIP3    H269011   5.365   2.772   5.815  0.2156  1.8800 -2.0405
15866TIP3   OH269012   2.905   2.636  15.308 -0.0678  0.1720 -0.3807
15866TIP3    H169013   2.866   2.644  15.395 -0.3967  1.6974 -0.6459
15866TIP3    H269014   2.831   2.632  15.248  0.1707  0.4601 -0.6967
15867TIP3   OH269015   4.417   5.349   3.057 -0.0317  0.3744  0.3714
15867TIP3    H169016   4.495   5.312   3.016 -0.6056 -0.2652 -0.1744
15867TIP3    H269017   4.449   5.423   3.108  1.2627 -1.2509  2.0327
15868TIP3   OH269018   6.385   2.376   0.791  0.1020  0.6379  0.0955
15868TIP3    H169019   6.480   2.388   0.789  0.4628 -1.4568  1.2996
15868TIP3    H269020   6.356   2.402   0.704  2.1152 -0.7784 -1.1041
15869TIP3   OH269021   6.701   0.465  16.545 -0.1595  0.0311 -0.3531
15869TIP3    H169022   6.697   0.547  16.495 -0.4939  0.0401 -0.3121
15869TIP3    H269023   6.772   0.416  16.504  0.8509  0.8370  0.3628
15870TIP3   OH269024   4.044   2.338   3.281 -0.6623  0.1117  0.2264
15870TIP3    H169025   3.953   2.355   3.260 -0.3180  0.5973 -0.9580
15870TIP3    H269026   4.091   2.352   3.199  0.1847 -2.4808  0.1614
15871TIP3   OH269027   0.440   6.175   6.611 -0.3062  0.1451 -0.6724
15871TIP3    H169028   0.512   6.136   6.660  0.1302 -0.9558 -2.1237
15871TIP3    H269029   0.467   6.265   6.595 -0.0009  0.2165  0.2099
15872TIP3   OH269030   0.647   2.714   3.252 -0.7168 -0.1560 -0.4852
15872TIP3    H169031   0.584   2.643   3.241  1.1089 -1.7911 -1.0211
15872TIP3    H269032   0.688   2.696   3.336  0.6174 -0.5030 -1.1841
15873TIP3   OH269033   3.239   0.822   3.147  0.0415 -0.6012 -0.5019
15873TIP3    H169034   3.159   0.810   3.095  1.5539 -1.0674 -2.8890
15873TIP3    H269035   3.210   0.815   3.238 -2.4685 -1.7428 -1.3016
15874TIP3   OH269036   1.408   5.326   5.872  0.2255  0.0528 -0.4702
15874TIP3    H169037   1.432   5.351   5.962  0.9399 -0.6263 -0.4622
15874TIP3    H269038   1.472   5.259   5.848 -0.0703  0.1059 -1.4306
15875TIP3   OH269039   5.409   1.477   5.617 -0.2196  0.0292 -0.5214
15875TIP3    H169040   5.463   1.554   5.631  1.9276 -1.7287  2.0043
15875TIP3    H269041   5.467   1.414   5.575 -0.9467 -1.2313  0.2911
15876TIP3   OH269042   3.984   4.967   0.062 -0.0080  0.0605  0.0548
15876TIP3    H169043   4.017   4.955  -0.027 -1.3618 -1.9072 -0.2620
15876TIP3    H269044   3.889   4.971   0.053 -0.2425 -1.0866  1.4397
15877TIP3   OH269045   4.549   5.749  10.571 -0.0174  0.3100  0.5418
15877TIP3    H169046   4.525   5.668  10.525  1.5397  0.9060 -1.5079
15877TIP3    H269047   4.495   5.817  10.531  0.7111  0.6980  0.1792
15878TIP3   OH269048   0.473   0.548   2.970 -0.3853 -0.3378  0.4396
15878TIP3    H169049   0.381   0.541   2.997 -0.9364 -1.3924 -1.5787
15878TIP3    H269050   0.517   0.582   3.048 -2.3047 -0.7451  1.7884
15879TIP3   OH269051   5.805   4.436  15.378  0.4822  0.3322  0.2874
15879TIP3    H169052   5.778   4.376  15.448  1.3297  0.1362  0.4527
15879TIP3    H269053   5.897   4.416  15.363  0.5674  1.0588 -0.2007
15880TIP3   OH269054   0.266   2.263  16.631 -0.3046 -1.2006 -0.1841
15880TIP3    H169055   0.330   2.192  16.634 -1.8031 -2.8286 -3.0043
15880TIP3    H269056   0.288   2.313  16.552  0.9270  1.8849  1.8876
15881TIP3   OH269057   4.413   6.456  16.960 -0.1389  0.1034  0.2052
15881TIP3    H169058   4.400   6.516  16.886 -1.5228 -0.9696 -0.4801
15881TIP3    H269059   4.467   6.505  17.022 -1.1742  2.0413 -0.3391
15882TIP3   OH269060   3.893   2.973  10.915  0.0632  0.2702  0.5355
15882TIP3    H169061   3.807   2.937  10.935 -0.1861 -0.4394 -1.5777
15882TIP3    H269062   3.945   2.897  10.887  1.0442  0.8411  0.7787
15883TIP3   OH269063   5.070   4.057   3.356 -0.0625  0.3242 -0.6357
15883TIP3    H169064   5.076   4.119   3.428  1.2241  1.0641 -1.3469
15883TIP3    H269065   5.127   3.985   3.381  0.4575  0.6241 -0.9443
15884TIP3   OH269066   0.106   5.687  13.280 -0.2274 -0.0967 -0.4695
15884TIP3    H169067   0.126   5.618  13.343 -0.9277 -0.5922 -0.7750
15884TIP3    H269068   0.143   5.655  13.198 -0.7008 -0.1907 -0.6487
15885TIP3   OH269069   3.875   0.329   0.954  0.4407 -0.2403 -0.3194
15885TIP3    H169070   3.876   0.393   0.883  0.2863  1.0859  0.8166
15885TIP3    H269071   3.812   0.263   0.927 -1.5590  1.5799 -0.3261
15886TIP3   OH269072   0.986   2.056   3.345  0.3269 -0.0722 -0.0694
15886TIP3    H169073   0.976   2.036   3.252  0.1057 -1.5437  0.2528
15886TIP3    H269074   0.898   2.081   3.374  0.4533  0.6851 -0.2966
15887TIP3   OH269075   5.054   6.116  11.549  0.1679  0.5864  0.3859
15887TIP3    H169076   5.134   6.068  11.571 -1.9658 -2.7758  1.5547
15887TIP3    H269077   5.072   6.155  11.464  2.4653 -1.5194 -0.1962
15888TIP3   OH269078   4.609   4.947  13.425 -0.1583  0.6103  0.1256
15888TIP3    H169079   4.693   4.946  13.471  0.5149  0.1982 -1.0716
15888TIP3    H269080   4.546   4.914  13.489  0.9516 -1.1082  0.3893
15889TIP3   OH269081   1.483   1.737   2.757 -0.1025 -0.0894 -0.1131
15889TIP3    H169082   1.561   1.687   2.735  1.6517  2.5626 -0.4179
15889TIP3    H269083   1.510   1.793   2.830 -1.3355  1.6590 -0.9178
15890TIP3   OH269084   0.120   3.192   5.096  0.4040 -0.3263 -0.2452
15890TIP3    H169085   0.091   3.212   5.007 -0.4408  0.1736  0.1333
15890TIP3    H269086   0.056   3.128   5.128  0.3408 -0.0333  0.2206
15891TIP3   OH269087   6.487   0.197   5.519  0.1954 -0.2312  0.4555
15891TIP3    H169088   6.448   0.210   5.432  1.0281  0.0200  0.1163
15891TIP3    H269089   6.428   0.245   5.578  0.5560  1.0378 -0.1855
15892TIP3   OH269090   4.467   2.156   5.883  0.1234 -0.1476  1.3470
15892TIP3    H169091   4.398   2.213   5.917  0.0142  0.2406  0.5008
15892TIP3    H269092   4.511   2.122   5.961 -0.0083  0.8419  1.8687
15893TIP3   OH269093   4.775   1.436  17.047 -0.3431 -0.2203 -0.0584
15893TIP3    H169094   4.729   1.466  16.968 -0.4698 -0.9454 -0.2609
15893TIP3    H269095   4.827   1.362  17.018  0.0343 -0.1504  0.4334
15894TIP3   OH269096   2.561   0.726   5.686  0.2694 -0.3383  0.4303
15894TIP3    H169097   2.605   0.725   5.601 -1.0671 -1.4069 -0.3054
15894TIP3    H269098   2.613   0.785   5.740  2.0214 -0.8224 -0.6588
15895TIP3   OH269099   4.882   1.470   3.329 -0.4628 -0.6322 -0.2473
15895TIP3    H169100   4.816   1.410   3.363 -1.1412  0.0123 -0.4061
15895TIP3    H269101   4.964   1.420   3.334 -0.7731 -1.0615  0.9628
15896TIP3   OH269102   4.548   4.663  11.090 -0.2388  0.2691  0.5040
15896TIP3    H169103   4.563   4.584  11.144  0.5072  0.2900  0.3451
15896TIP3    H269104   4.505   4.630  11.011 -0.2421  0.0685  0.5877
15897TIP3   OH269105   2.991   2.394  14.849 -0.3713  0.0280 -0.5604
15897TIP3    H169106   3.078   2.417  14.884  0.9050 -0.7258 -2.9912
15897TIP3    H269107   2.993   2.424  14.758 -2.0749 -1.3938 -1.1246
15898TIP3   OH269108   3.351   1.491  14.393 -0.5585  0.3078 -0.2994
15898TIP3    H169109   3.358   1.476  14.299 -0.3283  0.4668 -0.3082
15898TIP3    H269110   3.358   1.404  14.432 -1.6754  0.1191 -0.4787
15899TIP3   OH269111   5.113   0.631  13.815 -0.6052  0.1472  0.0894
15899TIP3    H169112   5.170   0.630  13.738 -0.1091 -1.4819  0.4297
15899TIP3    H269113   5.025   0.648  13.780 -0.2152  0.6249 -0.6816
15900TIP3   OH269114   1.389   0.460   0.108  0.0469 -0.2567 -0.1136
15900TIP3    H169115   1.388   0.437   0.201 -0.6656 -1.8053 -0.4921
15900TIP3    H269116   1.480   0.447   0.082  0.0146 -0.9139  0.0981
15901TIP3   OH269117   6.077   6.735   5.216 -0.1535  0.4698 -0.1409
15901TIP3    H169118   5.982   6.742   5.206 -0.2927 -0.1304  0.7082
15901TIP3    H269119   6.092   6.647   5.248  0.5120  1.1854  1.6603
15902TIP3   OH269120   4.853   3.636  16.210 -0.1083 -0.9197 -0.1669
15902TIP3    H169121   4.802   3.711  16.178  0.7763 -0.0067  0.5230
15902TIP3    H269122   4.894   3.601  16.132 -2.3695 -2.1776 -0.8917
15903TIP3   OH269123   6.004   3.467  11.019 -0.4693  0.1957  0.2549
15903TIP3    H169124   5.933   3.406  11.003 -1.8632  2.0179 -0.8959
15903TIP3    H269125   6.021   3.460  11.113  1.1382 -3.6478 -0.1418
15904TIP3   OH269126   6.395   6.488   1.189  0.4201  0.2191 -0.3037
15904TIP3    H169127   6.490   6.493   1.201  0.3907  0.9367 -0.3346
15904TIP3    H269128   6.383   6.490   1.094  0.4487 -1.6054 -0.3862
15905TIP3   OH269129   2.297   0.427  14.933  0.4994 -0.3067  0.2116
15905TIP3    H169130   2.237   0.500  14.944  1.4424  0.4935  0.1082
15905TIP3    H269131   2.243   0.358  14.894  0.0451  1.0194 -1.6281
15906TIP3   OH269132   0.021   3.112   2.420  0.2624 -0.3502 -0.0849
15906TIP3    H169133   0.049   3.041   2.363  0.0072  0.1985 -0.9030
15906TIP3    H269134  -0.017   3.177   2.361 -0.8026 -0.1494  0.7908
15907TIP3   OH269135   3.278   4.444   4.225 -0.0337 -0.3458  0.0320
15907TIP3    H169136   3.257   4.535   4.203 -0.4020 -0.1748  1.0495
15907TIP3    H269137   3.340   4.450   4.297 -2.7226 -0.8475  2.5720
15908TIP3   OH269138   0.490   2.282  15.046 -0.0079 -0.1545 -0.2439
15908TIP3    H169139   0.567   2.303  14.993 -0.6552  0.2911 -1.0223
15908TIP3    H269140   0.420   2.337  15.011 -0.7177 -0.6389  0.3736
15909TIP3   OH269141   5.833   4.391  15.680 -0.0945 -0.0729 -0.0602
15909TIP3    H169142   5.867   4.480  15.672 -1.5626  0.5315  0.1804
15909TIP3    H269143   5.799   4.386  15.769 -1.5387 -0.3166 -0.6087
15910TIP3   OH269144   6.227   2.953  15.735 -0.2293  0.3999  0.2376
15910TIP3    H169145   6.167   2.961  15.661 -0.0202  0.2591  0.0524
15910TIP3    H269146   6.243   2.859  15.743  0.1457  0.4550  0.1418
15911TIP3   OH269147   3.908   0.547   6.891  0.1746  0.5165  0.6228
15911TIP3    H169148   3.884   0.455   6.898  0.4661  0.4981  1.5499
15911TIP3    H269149   3.837   0.593   6.937 -1.1932  0.9719 -1.7898
15912TIP3   OH269150   5.311   5.360   1.913 -0.3544  0.0937 -0.0752
15912TIP3    H169151   5.319   5.454   1.901 -0.6396  0.0723 -0.4721
15912TIP3    H269152   5.400   5.326   1.904 -0.3649  0.2369 -0.7595
15913TIP3   OH269153   1.687   2.195   1.769  0.5396  0.2522  0.0275
15913TIP3    H169154   1.606   2.149   1.749  1.1626 -0.8210 -0.0724
15913TIP3    H269155   1.756   2.142   1.729  1.2442  1.5132 -0.4877
15914TIP3   OH269156   0.882   6.584   2.326 -0.1824  0.2413  0.0310
15914TIP3    H169157   0.801   6.599   2.278 -0.2458 -1.0791 -0.3324
15914TIP3    H269158   0.936   6.534   2.265  0.5667  0.3708  0.5818
15915TIP3   OH269159   3.771   1.502  15.806 -0.1592 -0.5079  0.1977
15915TIP3    H169160   3.745   1.548  15.726  0.7194 -0.9409 -0.3495
15915TIP3    H269161   3.734   1.414  15.796 -0.7101 -0.3348  0.6378
15916TIP3   OH269162   0.532   5.001   0.359 -0.0015  0.2482  0.0558
15916TIP3    H169163   0.472   4.926   0.352  1.6550 -1.0245 -1.3777
15916TIP3    H269164   0.611   4.965   0.399  1.7776  0.4799 -2.9019
15917TIP3   OH269165   0.432   6.383   0.415 -0.0055 -0.0396  0.0028
15917TIP3    H169166   0.466   6.357   0.329  1.9953 -0.1113  0.7623
15917TIP3    H269167   0.337   6.383   0.404  0.1922 -0.0267 -2.2113
15918TIP3   OH269168   5.997   6.525   5.426 -0.2763  0.5795  0.8011
15918TIP3    H169169   6.002   6.582   5.502 -0.6957 -0.8228  1.9182
15918TIP3    H269170   5.904   6.523   5.403 -0.3730 -0.1800  1.2115
15919TIP3   OH269171   1.624   5.961   2.190 -0.2038  0.0155  0.0420
15919TIP3    H169172   1.625   5.902   2.265 -3.2248 -2.7454 -1.8369
15919TIP3    H269173   1.565   6.032   2.216 -1.9075 -1.3628  0.1026
15920TIP3   OH269174   5.687   6.269   3.331 -0.0529  0.0940  0.2800
15920TIP3    H169175   5.707   6.200   3.269 -1.6586  0.3236 -0.5547
15920TIP3    H269176   5.709   6.350   3.285 -0.9376  0.2489  0.1063
15921TIP3   OH269177   5.899   4.322   1.448  0.3262  0.0888  0.0704
15921TIP3    H169178   5.824   4.322   1.507 -0.0943 -0.0915 -0.4602
15921TIP3    H269179   5.975   4.319   1.506 -0.0016  2.0924  0.6973
15922TIP3   OH269180   5.879   1.868   0.999  0.4936 -0.0125 -0.3952
15922TIP3    H169181   5.951   1.886   0.939 -0.6524 -0.0370 -1.8212
15922TIP3    H269182   5.806   1.843   0.943 -0.1056 -1.9109  1.0923
15923TIP3   OH269183   0.677   6.249   0.639 -0.5495  0.4409  0.6761
15923TIP3    H169184   0.631   6.173   0.675 -2.0797 -0.9334 -3.6325
15923TIP3    H269185   0.610   6.317   0.630 -0.3207  0.5939  0.0621
15924TIP3   OH269186   5.272   4.695  15.128  0.2734  0.5575  0.0942
15924TIP3    H169187   5.253   4.610  15.168 -1.5627  0.8700 -0.0037
15924TIP3    H269188   5.336   4.677  15.060 -0.0136 -0.7339  0.1547
15925TIP3   OH269189   6.478   6.541   4.974  0.2301 -0.5604 -0.1299
15925TIP3    H169190   6.386   6.521   4.992 -0.2782  0.0921 -1.8352
15925TIP3    H269191   6.475   6.606   4.903  2.0131 -0.7554 -0.4206
15926TIP3   OH269192   2.573   5.400  11.197 -0.4144  0.3975  0.7200
15926TIP3    H169193   2.606   5.419  11.109  0.0545 -0.5224  0.6857
15926TIP3    H269194   2.582   5.483  11.245  1.6742  0.2755  0.6274
15927TIP3   OH269195   5.298   3.845   0.966 -0.8355  0.3237 -0.3185
15927TIP3    H169196   5.234   3.787   1.007 -1.6859  1.6062  0.2276
15927TIP3    H269197   5.251   3.927   0.952 -0.5327  0.0464 -3.7620
15928TIP3   OH269198   4.661   1.112  15.590 -0.1151  1.1469 -0.4578
15928TIP3    H169199   4.671   1.188  15.534 -1.1349 -0.6506 -3.3130
15928TIP3    H269200   4.569   1.086  15.580 -0.0265  0.0506  1.1330
15929TIP3   OH269201   5.782   3.589   6.503  0.4997  0.7586  0.3711
15929TIP3    H169202   5.778   3.548   6.416  0.4377  0.0422  0.7056
15929TIP3    H269203   5.730   3.532   6.559  0.2067  1.4341  0.8034
15930TIP3   OH269204   2.160   1.844  15.008  0.2117  0.3978  0.3776
15930TIP3    H169205   2.123   1.762  15.039 -1.0011  0.5423 -0.6255
15930TIP3    H269206   2.210   1.877  15.083  0.4572 -1.0784  0.8936
15931TIP3   OH269207   4.648   0.303  12.331  0.2217  0.3247 -0.3100
15931TIP3    H169208   4.586   0.243  12.373 -1.2420  1.1217 -1.2727
15931TIP3    H269209   4.712   0.245  12.290 -0.1182 -0.5357  0.3290
15932TIP3   OH269210   4.898   4.711   5.830 -0.2999 -0.5173  0.9214
15932TIP3    H169211   4.803   4.704   5.835 -0.5181 -1.3093 -2.1718
15932TIP3    H269212   4.929   4.621   5.824  0.3168 -0.2072 -1.2443
15933TIP3   OH269213   6.742   2.340   2.909 -0.1042  0.2353 -0.5149
15933TIP3    H169214   6.738   2.391   2.990 -1.8628 -0.8600  0.1179
15933TIP3    H269215   6.703   2.256   2.931  0.6396 -0.5859 -2.1647
15934TIP3   OH269216   0.799   3.581   0.630  0.4481 -0.8784 -0.2426
15934TIP3    H169217   0.759   3.507   0.585  0.4742 -0.5753 -0.7664
15934TIP3    H269218   0.736   3.653   0.620  0.8169 -0.5831 -0.5037
15935TIP3   OH269219   3.085   3.456   5.196  0.0290 -0.4519 -0.1097
15935TIP3    H169220   3.014   3.405   5.236  0.5847 -1.9093 -0.9280
15935TIP3    H269221   3.164   3.407   5.216  0.5565 -0.0327 -1.1382
15936TIP3   OH269222   0.188   4.922   0.395 -0.0946 -0.0131  0.3893
15936TIP3    H169223   0.197   4.855   0.463  0.3406 -0.9707 -0.5827
15936TIP3    H269224   0.184   4.872   0.314 -1.7816  1.0489 -0.2088
15937TIP3   OH269225   1.545   3.465   4.535 -0.0712  0.7107  0.0507
15937TIP3    H169226   1.563   3.377   4.567 -0.7561  0.5074 -0.1174
15937TIP3    H269227   1.460   3.458   4.492 -0.3287  1.5527  0.4117
15938TIP3   OH269228   2.502   4.649   4.395 -0.0149 -0.5243  0.2187
15938TIP3    H169229   2.559   4.680   4.466  0.6236 -2.0999  0.4298
15938TIP3    H269230   2.561   4.602   4.337 -0.8033 -0.5576 -0.5644
15939TIP3   OH269231   1.606   3.615   3.828  0.0573 -0.0084  0.7028
15939TIP3    H169232   1.685   3.649   3.869 -0.6960  1.1682  1.2292
15939TIP3    H269233   1.634   3.534   3.785  1.8620  1.1593 -0.4171
15940TIP3   OH269234   4.201   4.608  17.230 -0.0033  0.0411  0.1413
15940TIP3    H169235   4.234   4.641  17.147  0.3459 -2.7681 -0.9265
15940TIP3    H269236   4.262   4.642  17.296  1.7152 -0.4388 -1.1556
15941TIP3   OH269237   4.989   1.471  15.455  0.2103  0.0291  0.1845
15941TIP3    H169238   5.039   1.540  15.412  2.3183 -1.3154  0.2952
15941TIP3    H269239   5.055   1.416  15.497 -1.3494 -2.1059  0.0316
15942TIP3   OH269240   4.793   2.911  15.478 -0.0193  0.3974 -0.0377
15942TIP3    H169241   4.741   2.904  15.558  1.6476 -0.2985  1.0554
15942TIP3    H269242   4.848   2.832  15.478  1.0061  1.0711 -1.1416
15943TIP3   OH269243   5.347   3.324   1.408 -0.1420 -0.6913 -0.5601
15943TIP3    H169244   5.324   3.403   1.457 -1.8186 -0.6825 -1.2815
15943TIP3    H269245   5.265   3.297   1.366 -0.1184 -3.7837  1.0174
15944TIP3   OH269246   5.544   6.586  14.427  0.4420 -0.1387 -0.4883
15944TIP3    H169247   5.531   6.664  14.373  0.0409  0.2859  0.1966
15944TIP3    H269248   5.618   6.540  14.386  1.5560  1.2765 -0.1628
15945TIP3   OH269249   3.676   4.468   5.375  0.7717 -0.0960  0.2597
15945TIP3    H169250   3.747   4.524   5.406  0.9587  0.3775 -0.9732
15945TIP3    H269251   3.606   4.480   5.440  0.7532  1.6975 -0.0560
15946TIP3   OH269252   4.651   4.139  16.090  0.1558 -0.2616 -0.3288
15946TIP3    H169253   4.684   4.050  16.078 -1.5061 -0.7610 -1.7394
15946TIP3    H269254   4.593   4.133  16.166 -0.5776 -0.5998 -0.9040
15947TIP3   OH269255   0.490   6.041  13.138 -0.0044 -0.0980 -0.7753
15947TIP3    H169256   0.409   6.001  13.168 -1.0500  2.0787 -0.5134
15947TIP3    H269257   0.500   6.012  13.047 -1.9796  0.9145 -1.3475
15948TIP3   OH269258   5.694   4.076  14.148 -0.2532 -0.0632 -0.0906
15948TIP3    H169259   5.664   4.047  14.234 -0.1888  0.6189  0.1713
15948TIP3    H269260   5.668   4.006  14.088  0.8706 -1.1763  0.6679
15949TIP3   OH269261   5.961   1.555  11.201  0.4195  0.2213 -0.3520
15949TIP3    H169262   5.922   1.642  11.190  0.6840  0.3353 -0.3892
15949TIP3    H269263   5.993   1.555  11.291 -1.1091 -0.4545  0.2275
15950TIP3   OH269264   3.615   6.313   5.414 -0.2018 -0.0454  0.1837
15950TIP3    H169265   3.652   6.370   5.482 -0.5151 -0.0169  0.3299
15950TIP3    H269266   3.580   6.238   5.462 -0.3760 -0.0517  0.0457
15951TIP3   OH269267   1.971   3.137  15.927  0.0889 -0.0462  0.4455
15951TIP3    H169268   1.898   3.080  15.949 -1.7472  1.5293 -1.2055
15951TIP3    H269269   2.048   3.094  15.965 -1.9102 -0.5937  4.3057
15952TIP3   OH269270   2.768   3.746   2.431  0.1283 -0.0873  0.4769
15952TIP3    H169271   2.739   3.656   2.448  1.0802 -0.4729  0.1146
15952TIP3    H269272   2.826   3.767   2.504  0.0273  0.1741  0.4817
15953TIP3   OH269273   1.543   2.417  11.590 -0.0498  0.1527  0.9986
15953TIP3    H169274   1.534   2.408  11.685  3.3979 -2.6608  1.2934
15953TIP3    H269275   1.606   2.489  11.579 -0.0235  0.1116  0.8778
15954TIP3   OH269276   4.119   0.864  13.835 -0.1565 -0.5500  0.7331
15954TIP3    H169277   4.140   0.773  13.816 -0.1897 -0.7375  1.5962
15954TIP3    H269278   4.204   0.909  13.833 -0.1167 -0.6313  0.5324
15955TIP3   OH269279   2.149   6.685  12.300 -0.3829  0.1029 -0.2554
15955TIP3    H169280   2.192   6.765  12.328 -0.5980 -0.1377  0.8069
15955TIP3    H269281   2.220   6.621  12.292 -0.3909  0.0061  0.3859
15956TIP3   OH269282   1.896   2.436  16.362 -0.0161 -0.4964  0.6358
15956TIP3    H169283   1.939   2.359  16.326  0.0399 -0.3002  0.2706
15956TIP3    H269284   1.965   2.501  16.371  0.0742 -0.7180  1.6294
15957TIP3   OH269285   2.533   5.387   0.073  1.0092 -0.4080  0.2170
15957TIP3    H169286   2.534   5.476   0.037 -1.0037 -0.0153  1.0025
15957TIP3    H269287   2.615   5.380   0.122  0.5496  1.5864  1.4048
15958TIP3   OH269288   4.580   0.190  13.827 -0.1834 -0.1396  0.3713
15958TIP3    H169289   4.641   0.139  13.880 -1.2747 -1.7834  0.0939
15958TIP3    H269290   4.567   0.138  13.748 -0.1574  1.3056 -0.6248
15959TIP3   OH269291   2.058   2.904  14.417  0.0040  0.1908 -0.2695
15959TIP3    H169292   2.144   2.933  14.385 -0.2210  1.7064  0.4197
15959TIP3    H269293   2.006   2.891  14.338  0.4953  0.5051 -0.6532
15960TIP3   OH269294   5.433   0.603  16.473  0.2128  0.1131  0.6310
15960TIP3    H169295   5.491   0.548  16.420  1.4259  1.6544  0.3119
15960TIP3    H269296   5.433   0.687  16.429 -1.3664  0.4900  1.2950
15961TIP3   OH269297   6.154   1.301  15.035 -0.2228 -0.2548  0.2031
15961TIP3    H169298   6.081   1.333  14.982  0.2803  0.4511 -0.0728
15961TIP3    H269299   6.123   1.217  15.069 -1.1954  0.0693  0.1593
15962TIP3   OH269300   3.146   5.138  14.379 -0.5854  0.3390  0.3340
15962TIP3    H169301   3.112   5.227  14.381  0.0222  0.5914 -0.3295
15962TIP3    H269302   3.217   5.140  14.315  0.6907 -0.1668  1.6738
15963TIP3   OH269303   1.027   3.246   1.118  0.2772  0.0347  0.0445
15963TIP3    H169304   0.976   3.184   1.170  1.2301 -0.2675  0.6507
15963TIP3    H269305   1.106   3.197   1.092  0.1653  0.4117 -1.0731
15964TIP3   OH269306   2.473   3.899  10.406  0.5313 -0.1685  0.1574
15964TIP3    H169307   2.402   3.844  10.438 -0.4861 -0.1551 -1.8870
15964TIP3    H269308   2.465   3.980  10.457 -0.1506 -0.6133  0.7889
15965TIP3   OH269309   6.724   3.824   3.588 -0.0939 -0.1432 -0.3444
15965TIP3    H169310   6.678   3.900   3.551 -0.2179  0.2215  0.5468
15965TIP3    H269311   6.782   3.795   3.517 -1.9588 -0.8698 -1.6819
15966TIP3   OH269312   6.324   1.837   0.590  0.0077 -0.2096 -0.0424
15966TIP3    H169313   6.264   1.895   0.637  0.9941  2.3936 -1.7721
15966TIP3    H269314   6.291   1.837   0.500  1.6661  0.0173 -0.6892
15967TIP3   OH269315   6.269   1.667  14.663 -0.0634  0.3204 -0.2125
15967TIP3    H169316   6.267   1.671  14.758  0.0533 -0.0784 -0.1909
15967TIP3    H269317   6.198   1.725  14.634 -0.6084 -0.1684  0.1326
15968TIP3   OH269318   2.904   0.602   4.428  0.5847  0.3066 -0.2326
15968TIP3    H169319   2.963   0.632   4.497 -0.1335  1.6930 -0.1849
15968TIP3    H269320   2.817   0.614   4.464  0.2298 -0.5903 -0.7516
15969TIP3   OH269321   5.670   2.186   4.925  0.0170 -0.1173 -0.4521
15969TIP3    H169322   5.656   2.095   4.897 -0.9407  0.0347 -0.5214
15969TIP3    H269323   5.687   2.234   4.844  0.0365 -0.1562 -0.4709
15970TIP3   OH269324   5.510   2.900   0.651  0.0969  0.0929 -0.4400
15970TIP3    H169325   5.592   2.855   0.632  1.3834  2.2288 -0.3560
15970TIP3    H269326   5.488   2.874   0.740  0.0954 -1.3027 -0.8245
15971TIP3   OH269327   5.000   4.606  11.071  0.5157  0.1030 -0.1376
15971TIP3    H169328   5.032   4.546  11.004 -1.7351  0.3338 -1.5077
15971TIP3    H269329   4.946   4.551  11.128  0.0713  0.4369 -0.2308
15972TIP3   OH269330   4.027   3.243  13.425  0.2219 -0.4936  0.2153
15972TIP3    H169331   4.063   3.165  13.384 -1.6627 -0.8971 -0.7870
15972TIP3    H269332   4.104   3.298  13.442  1.3806 -1.5758 -1.1634
15973TIP3   OH269333   6.626   0.027   4.483 -0.2019  0.0776 -0.2469
15973TIP3    H169334   6.574  -0.050   4.457  1.9055 -1.7201  0.5385
15973TIP3    H269335   6.573   0.102   4.456 -1.9741 -1.6349 -1.8362
15974TIP3   OH269336   6.110   5.107   5.922  0.4496  0.3067 -0.0210
15974TIP3    H169337   6.100   5.076   6.012  0.8225 -1.1869 -0.4600
15974TIP3    H269338   6.028   5.084   5.879  0.6500  0.1043 -0.3026
15975TIP3   OH269339   5.826   2.755   4.072  0.3095 -0.3570 -0.3380
15975TIP3    H169340   5.855   2.822   4.010 -2.2202 -0.6777 -2.0145
15975TIP3    H269341   5.899   2.694   4.078  1.8692  1.4195 -0.3790
15976TIP3   OH269342   5.238   3.423   5.346  0.2184  0.2285  0.6880
15976TIP3    H169343   5.298   3.419   5.421  0.3778  1.8335  0.6908
15976TIP3    H269344   5.240   3.335   5.309  0.9004 -0.3387  1.9777
15977TIP3   OH269345   4.887   5.289  16.508  0.1134 -0.0372  0.3681
15977TIP3    H169346   4.834   5.355  16.552 -2.2963 -1.2945 -0.4506
15977TIP3    H269347   4.910   5.329  16.424  0.7233  0.6145  0.8322
15978TIP3   OH269348   2.487   6.112  12.876 -0.3697  0.4683  0.8789
15978TIP3    H169349   2.452   6.027  12.904 -1.2874  0.9360  1.1802
15978TIP3    H269350   2.540   6.141  12.951  3.8225 -1.8578 -0.8361
15979TIP3   OH269351   0.509   3.465  16.835 -0.0031 -0.2809  0.3182
15979TIP3    H169352   0.434   3.452  16.895 -0.4463 -2.0479 -0.5444
15979TIP3    H269353   0.500   3.555  16.805 -0.1716  0.4439  2.3459
15980TIP3   OH269354   4.495   1.531   1.687  0.0720  0.0567 -0.1504
15980TIP3    H169355   4.416   1.561   1.642 -0.1753 -1.4646 -0.7994
15980TIP3    H269356   4.560   1.521   1.618  0.9036  1.4358  0.4017
15981TIP3   OH269357   3.956   1.109   1.468 -0.2392 -0.0568 -0.1018
15981TIP3    H169358   4.021   1.137   1.404  0.7172 -0.6981  0.5626
15981TIP3    H269359   3.939   1.187   1.521  1.1459 -0.2428  0.6758
15982TIP3   OH269360   0.062   2.522  15.895  0.0426 -0.1138  0.6124
15982TIP3    H169361   0.037   2.560  15.811 -1.4478 -1.5177  0.3648
15982TIP3    H269362   0.157   2.518  15.892  0.2715  3.0493  0.4687
15983TIP3   OH269363   2.143   5.498  10.776 -0.4567  0.3763  0.0309
15983TIP3    H169364   2.212   5.487  10.710  0.6014 -0.5352  1.2566
15983TIP3    H269365   2.118   5.590  10.768  0.8345  0.7025 -0.5175
15984TIP3   OH269366   1.543   6.655  15.865 -0.1680 -0.0683  0.2190
15984TIP3    H169367   1.609   6.723  15.875 -1.1087  0.5312  3.5129
15984TIP3    H269368   1.475   6.695  15.810 -0.3605  1.4175  1.4766
15985TIP3   OH269369   3.128   6.663   1.301  0.5137 -0.2814  0.5875
15985TIP3    H169370   3.062   6.621   1.247  0.2806 -1.3558  1.6596
15985TIP3    H269371   3.207   6.664   1.247 -0.1345  0.2029 -0.3759
15986TIP3   OH269372   0.235   5.113  11.999 -0.2898 -0.1324  0.2143
15986TIP3    H169373   0.215   5.024  11.970 -1.3040  0.4942 -1.0856
15986TIP3    H269374   0.328   5.125  11.976 -0.2980 -0.6489 -0.1140
15987TIP3   OH269375   5.940   5.680  15.458  0.3633 -0.1905 -0.1341
15987TIP3    H169376   5.911   5.591  15.440  0.7615  0.0646 -2.3342
15987TIP3    H269377   6.035   5.675  15.463  0.5159  0.3066 -1.8761
15988TIP3   OH269378   0.438   2.435  13.391  0.2683  0.1549  0.4837
15988TIP3    H169379   0.399   2.513  13.353 -1.7132  0.1483  2.2823
15988TIP3    H269380   0.380   2.364  13.365  1.1264 -0.4686  0.2304
15989TIP3   OH269381   4.293   2.861  12.870 -0.8409 -0.6953  0.5374
15989TIP3    H169382   4.330   2.802  12.936 -1.7614 -1.7943  0.1048
15989TIP3    H269383   4.230   2.914  12.918  2.1373  2.2250  1.6068
15990TIP3   OH269384   4.744   2.981  15.222  0.5357 -0.0258  0.2100
15990TIP3    H169385   4.661   2.961  15.179  1.8959 -1.3236 -1.9524
15990TIP3    H269386   4.741   2.930  15.303 -0.9402  0.3161  0.4045
15991TIP3   OH269387   0.343   4.298  15.580  0.4400  0.1629  0.0532
15991TIP3    H169388   0.327   4.271  15.490 -1.3793  1.1642  0.0316
15991TIP3    H269389   0.284   4.372  15.594 -0.5457 -0.9750  2.5613
15992TIP3   OH269390   5.231   4.363  11.578  0.3100 -0.0201  0.0161
15992TIP3    H169391   5.314   4.323  11.604  0.0909  0.3237  1.3160
15992TIP3    H269392   5.184   4.294  11.532  0.6964 -0.6836  0.6011
15993TIP3   OH269393   6.382   6.424  16.300  0.0414 -0.7574 -0.4261
15993TIP3    H169394   6.396   6.380  16.216 -1.1746  0.0981 -1.1145
15993TIP3    H269395   6.328   6.500  16.278  0.1145 -0.2426  1.0704
15994TIP3   OH269396   5.589   4.672  13.752 -0.1241  0.1454 -0.0295
15994TIP3    H169397   5.504   4.635  13.728  0.4436  0.4148 -2.7436
15994TIP3    H269398   5.619   4.618  13.825 -2.5599  0.0094  0.9653
15995TIP3   OH269399   6.596   4.835   1.589  0.6212 -0.1462 -0.2004
15995TIP3    H169400   6.507   4.864   1.606  0.2579  0.6608 -2.9768
15995TIP3    H269401   6.618   4.779   1.663 -1.8197  0.4192  1.0325
15996TIP3   OH269402   3.038   2.698  14.862  0.7277  0.0860  0.2156
15996TIP3    H169403   3.072   2.733  14.780  0.9479 -1.1481 -0.2410
15996TIP3    H269404   2.944   2.717  14.859  1.0301  1.8301  0.6248
15997TIP3   OH269405   1.287   4.409   4.517 -0.0490 -0.2138  0.4025
15997TIP3    H169406   1.230   4.341   4.553  0.5237 -1.3521 -0.7558
15997TIP3    H269407   1.374   4.370   4.516  0.0132 -0.1439 -1.8234
15998TIP3   OH269408   2.019   4.558   2.240  0.1805  0.0325 -0.3921
15998TIP3    H169409   2.079   4.586   2.309  1.3957  0.7739 -1.6827
15998TIP3    H269410   2.075   4.550   2.162 -0.7553 -2.7852 -0.8681
15999TIP3   OH269411   1.096   0.486   4.732  0.6676 -0.3840  0.2064
15999TIP3    H169412   1.153   0.521   4.800 -1.1176  1.0250  1.0883
15999TIP3    H269413   1.009   0.485   4.772 -0.1419 -1.2865 -1.4549
16000TIP3   OH269414   2.257   3.198   1.357  0.6131  0.1647 -0.0046
16000TIP3    H169415   2.254   3.155   1.271  1.5752 -0.6387  0.3414
16000TIP3    H269416   2.350   3.210   1.375  0.3940  2.3409 -0.0208
16001TIP3   OH269417   6.324   4.576  10.503  0.7609  0.1241  0.1005
16001TIP3    H169418   6.383   4.503  10.483  1.8689  0.8352  0.6797
16001TIP3    H269419   6.379   4.654  10.497 -0.0922  0.7992  0.7696
16002TIP3   OH269420   0.545   2.947   0.314 -0.1396  0.7846 -0.4129
16002TIP3    H169421   0.638   2.956   0.331 -0.3245  0.1109  1.1758
16002TIP3    H269422   0.525   3.016   0.251  1.2660  1.4901 -0.1212
16003TIP3   OH269423   1.350   3.525   3.007 -0.2276  0.1338  0.3378
16003TIP3    H169424   1.304   3.608   3.019 -0.5572 -0.1593  1.2293
16003TIP3    H269425   1.345   3.507   2.913 -1.2415  0.5038  0.3118
16004TIP3   OH269426   0.905   3.839   0.838 -0.1514 -0.0291 -0.3081
16004TIP3    H169427   0.920   3.918   0.891 -0.3742 -0.4910  0.4571
16004TIP3    H269428   0.844   3.868   0.769  1.1062  0.8831 -1.0792
16005TIP3   OH269429   6.391   1.831  13.173  0.4647 -0.3238 -0.3530
16005TIP3    H169430   6.445   1.909  13.158  1.8716 -1.1714  0.0381
16005TIP3    H269431   6.416   1.801  13.261 -2.4275  0.5652  0.8737
16006TIP3   OH269432   1.444   1.609   6.200  0.0406  0.1584  0.2793
16006TIP3    H169433   1.454   1.514   6.204  1.7861  0.2867 -0.3854
16006TIP3    H269434   1.361   1.623   6.153 -1.3752 -0.9988  2.2788
16007TIP3   OH269435   1.530   5.078   1.881 -0.3331  0.2666 -0.7198
16007TIP3    H169436   1.500   5.150   1.827  0.0397  0.2396 -0.9687
16007TIP3    H269437   1.452   5.049   1.929 -0.5735  0.5551 -0.9362
16008TIP3   OH269438   6.609   3.217   0.215  0.0819  0.2147  0.7403
16008TIP3    H169439   6.588   3.294   0.267 -2.6627  0.1584 -0.0957
16008TIP3    H269440   6.619   3.250   0.126  2.2227 -0.0197  0.8430
16009TIP3   OH269441   5.379   5.994   4.040 -0.2783 -0.0451 -0.0413
16009TIP3    H169442   5.454   5.935   4.037  0.6061  0.9460  1.3849
16009TIP3    H269443   5.388   6.047   3.961  0.8783  0.4509  0.4063
16010TIP3   OH269444   6.259   1.163   5.744  0.3868 -0.1398 -0.0818
16010TIP3    H169445   6.217   1.081   5.718  1.4221 -0.2936 -1.3600
16010TIP3    H269446   6.310   1.189   5.667  2.1121  0.3573  1.1847
16011TIP3   OH269447   3.181   4.620  15.369  0.2008  0.0303  0.2751
16011TIP3    H169448   3.152   4.541  15.413  0.5087 -0.1911  0.0825
16011TIP3    H269449   3.127   4.690  15.406 -0.4924 -0.3572  0.0138
16012TIP3   OH269450   4.995   4.387  13.891 -0.2279  0.0110  0.7164
16012TIP3    H169451   5.089   4.377  13.902 -0.2854 -0.7012  0.5745
16012TIP3    H269452   4.985   4.442  13.813  0.0504 -0.8374  0.0768
16013TIP3   OH269453   6.070   6.060   3.054  0.3007  0.0300  0.0476
16013TIP3    H169454   6.068   6.070   3.150 -1.7599 -1.2947  0.2048
16013TIP3    H269455   6.161   6.039   3.035  0.6262 -0.3792  1.8151
16014TIP3   OH269456   5.973   3.995  13.728 -0.2215 -0.0942 -0.2370
16014TIP3    H169457   6.036   3.964  13.663 -1.8762 -2.6359 -0.7477
16014TIP3    H269458   5.993   3.945  13.807 -1.3159 -0.6457 -0.2883
16015TIP3   OH269459   5.984   1.959  13.375  0.1977  0.0033  0.8832
16015TIP3    H169460   5.955   2.050  13.369  0.3081 -0.0096 -0.0257
16015TIP3    H269461   5.909   1.912  13.411 -0.1391  0.3309  0.6185
16016TIP3   OH269462   3.091   2.240  13.249  0.0905 -0.3761  0.6500
16016TIP3    H169463   3.153   2.210  13.315 -0.0406  1.5123  1.7058
16016TIP3    H269464   3.141   2.300  13.194  0.0750 -1.5805 -0.7377
16017TIP3   OH269465   2.794   2.998   0.852 -0.4649 -0.5442 -0.2726
16017TIP3    H169466   2.877   2.965   0.886 -0.0860 -0.4190 -1.0501
16017TIP3    H269467   2.819   3.049   0.774 -1.2690 -0.5039 -0.5101
16018TIP3   OH269468   0.641   4.620   5.191 -0.2059 -0.1013 -0.0909
16018TIP3    H169469   0.708   4.682   5.219  1.0484 -1.3529 -0.1863
16018TIP3    H269470   0.621   4.570   5.270 -3.0780  1.9711  0.6477
16019TIP3   OH269471   3.681   4.724  12.492 -0.2587 -0.5376 -0.3475
16019TIP3    H169472   3.595   4.766  12.488  0.4009  1.0033  0.5257
16019TIP3    H269473   3.721   4.742  12.407 -0.9475 -1.6294 -0.9143
16020TIP3   OH269474   2.744   0.775  12.562 -0.5804  0.3898  0.0111
16020TIP3    H169475   2.812   0.729  12.513 -0.2088 -2.3980  2.8414
16020TIP3    H269476   2.791   0.821  12.631 -1.3131  2.0175 -0.5175
16021TIP3   OH269477   2.469   2.284   0.082  0.8846 -0.1726 -0.3337
16021TIP3    H169478   2.551   2.244   0.113  1.1439  0.1104 -0.6377
16021TIP3    H269479   2.442   2.228   0.009  0.9973 -0.0636 -0.4597
16022TIP3   OH269480   2.855   5.792  12.060  0.6086  0.0670  0.3683
16022TIP3    H169481   2.943   5.810  12.095  1.5431 -1.2677 -1.1279
16022TIP3    H269482   2.872   5.750  11.975 -1.4842 -0.7057  0.2892
16023TIP3   OH269483   2.375   1.794   0.842  0.4147  0.2370 -0.2993
16023TIP3    H169484   2.385   1.724   0.778 -0.1322  0.8085 -1.0210
16023TIP3    H269485   2.461   1.836   0.845  0.8962 -0.7635  0.5159
16024TIP3   OH269486   2.900   1.911  14.504 -0.2396 -0.2048  0.4184
16024TIP3    H169487   2.828   1.955  14.459 -0.7930 -1.1925  0.3238
16024TIP3    H269488   2.869   1.900  14.594  0.0207 -0.1268  0.5190
16025TIP3   OH269489   2.878   0.609  15.874 -0.0794 -0.1928  0.1188
16025TIP3    H169490   2.932   0.536  15.844  0.1093  0.4592 -1.1881
16025TIP3    H269491   2.830   0.637  15.797 -0.1023  1.1131  0.5836
16026TIP3   OH269492   1.477   4.829  13.101 -0.2687 -0.0066 -0.4492
16026TIP3    H169493   1.477   4.914  13.059  1.2035  0.4604  0.4085
16026TIP3    H269494   1.393   4.826  13.149 -0.7387  0.5590 -1.2161
16027TIP3   OH269495   1.009   4.145   5.749  0.1967 -0.3618 -0.1365
16027TIP3    H169496   0.916   4.148   5.770 -0.2759 -2.0027 -1.6802
16027TIP3    H269497   1.048   4.093   5.819  0.4723  2.2986  1.8472
16028TIP3   OH269498   1.342   0.131  11.369  0.2289  0.2270  0.0876
16028TIP3    H169499   1.433   0.104  11.357 -0.1014 -0.9652  0.1750
16028TIP3    H269500   1.292   0.076  11.308 -0.3117  1.8042 -0.9723
16029TIP3   OH269501   5.397   4.329  15.404  0.4010 -0.1371 -0.2829
16029TIP3    H169502   5.323   4.268  15.401  0.3372 -0.1083  0.5622
16029TIP3    H269503   5.411   4.354  15.313 -0.1132 -0.7665 -0.5395
16030TIP3   OH269504   6.685   2.615   1.498  0.0927  0.0883 -0.3918
16030TIP3    H169505   6.771   2.591   1.533  0.4276 -0.1581 -1.3545
16030TIP3    H269506   6.685   2.582   1.408 -0.8606  0.4372 -0.5366
16031TIP3   OH269507   3.445   1.698  12.706  0.7795 -0.3400  0.3248
16031TIP3    H169508   3.483   1.785  12.722 -0.8624  0.1142  2.2834
16031TIP3    H269509   3.508   1.637  12.745  1.1023  0.1344  0.5595
16032TIP3   OH269510   0.597   6.277  11.439  0.3165 -0.1856 -0.2156
16032TIP3    H169511   0.659   6.322  11.497  0.9463 -0.6818 -0.4905
16032TIP3    H269512   0.527   6.341  11.424 -0.2643 -0.3099  1.7182
16033TIP3   OH269513   2.656   4.764   4.586 -0.6205  0.4467  0.4618
16033TIP3    H169514   2.718   4.789   4.517 -0.7871  3.5001  1.2987
16033TIP3    H269515   2.589   4.832   4.584 -1.7815 -0.5708  2.2641
16034TIP3   OH269516   5.288   4.925   5.857 -0.0199  0.1342  0.1149
16034TIP3    H169517   5.341   4.845   5.858 -1.8431 -1.2143  3.7836
16034TIP3    H269518   5.214   4.905   5.800  2.1939  1.4085 -3.5762
16035TIP3   OH269519   6.107   6.239  12.844 -0.2542 -0.2742  0.6117
16035TIP3    H169520   6.058   6.275  12.770 -3.1356 -2.6268  1.1496
16035TIP3    H269521   6.128   6.314  12.899  0.2415  1.2911 -1.5953
16036TIP3   OH269522   0.413   0.986   2.360  0.0784  0.1961  0.0414
16036TIP3    H169523   0.332   0.941   2.383  0.4822 -0.6904 -0.2137
16036TIP3    H269524   0.399   1.017   2.270  0.2120 -0.4196 -0.1939
16037TIP3   OH269525   4.753   1.339  11.424  0.0366 -0.0484 -0.2149
16037TIP3    H169526   4.837   1.383  11.408 -0.8082  1.1101 -1.8654
16037TIP3    H269527   4.704   1.401  11.478 -0.2840 -0.0544 -0.4977
16038TIP3   OH269528   3.699   0.125  11.411 -0.0133 -0.1645  0.5920
16038TIP3    H169529   3.783   0.086  11.387 -0.0385 -2.7863  3.9760
16038TIP3    H269530   3.721   0.191  11.478 -0.5346  0.6892 -0.0555
16039TIP3   OH269531   1.635   5.010   4.447  0.0745  0.4961  0.0492
16039TIP3    H169532   1.708   5.041   4.501  0.1090 -2.6424  2.0533
16039TIP3    H269533   1.557   5.023   4.503 -0.6067  1.5038 -1.0835
16040TIP3   OH269534   4.702   0.118  15.108  0.2106  0.9944  0.5516
16040TIP3    H169535   4.715   0.024  15.120 -0.5938  0.8141  0.0931
16040TIP3    H269536   4.620   0.137  15.154 -0.8888  1.0128 -1.3240
16041TIP3   OH269537   2.479   1.599   3.233  0.4089 -0.2968 -0.1870
16041TIP3    H169538   2.503   1.553   3.313  0.5741 -1.0948 -0.6890
16041TIP3    H269539   2.536   1.676   3.232 -2.1071  1.8876  2.3817
16042TIP3   OH269540   3.188   0.989   1.997 -0.4193  0.2681 -0.4014
16042TIP3    H169541   3.262   1.050   1.994  0.8740 -1.2992 -2.1961
16042TIP3    H269542   3.140   1.005   1.917  1.1074 -2.3372 -1.9838
16043TIP3   OH269543   1.243   5.691  12.428  0.1010  0.5444 -0.2579
16043TIP3    H169544   1.311   5.658  12.487 -0.8792  0.5511  0.9161
16043TIP3    H269545   1.200   5.612  12.395 -2.1382  0.4530  2.4265
16044TIP3   OH269546   0.383   2.386   4.314 -0.1056  0.0826 -0.0796
16044TIP3    H169547   0.321   2.368   4.244  1.3542 -0.0498 -1.4044
16044TIP3    H269548   0.432   2.303   4.323 -1.6234 -0.6234  2.5866
16045TIP3   OH269549   4.374   4.048  11.451  0.3653 -0.1470 -0.3607
16045TIP3    H169550   4.355   3.979  11.388 -2.1600  1.2478 -1.2893
16045TIP3    H269551   4.432   4.109  11.404  0.9362 -0.6056 -0.2557
16046TIP3   OH269552   4.655   2.596  11.999  0.4997  0.2724 -0.2549
16046TIP3    H169553   4.575   2.648  12.008  0.6203  0.5250 -0.6248
16046TIP3    H269554   4.722   2.659  11.973  0.1871 -0.3556 -2.8324
16047TIP3   OH269555   2.075   1.173   0.678 -0.2090  0.3347  0.3950
16047TIP3    H169556   2.043   1.163   0.767 -0.1019 -1.2564  0.2870
16047TIP3    H269557   2.006   1.135   0.623  0.3702 -0.0443 -0.0870
16048TIP3   OH269558   1.782   1.508  16.267  0.0404 -0.0478  0.3312
16048TIP3    H169559   1.878   1.506  16.265  0.2137  2.5550  1.2847
16048TIP3    H269560   1.758   1.562  16.191 -0.6802 -0.6387  0.1309
16049TIP3   OH269561   6.658   6.469  13.016  0.3374  0.1039  0.9797
16049TIP3    H169562   6.608   6.546  12.988 -0.2816 -0.2342  1.1294
16049TIP3    H269563   6.699   6.437  12.936  0.1269  0.2599  0.8061
16050TIP3   OH269564   0.997   2.869  11.232 -0.0945 -0.2064 -0.3502
16050TIP3    H169565   0.975   2.807  11.162 -0.6468  0.4045 -0.7334
16050TIP3    H269566   1.085   2.844  11.260  0.7923  0.5191 -2.3373
16051TIP3   OH269567   3.001   2.170  14.327 -0.1192  0.5415 -0.8356
16051TIP3    H169568   3.001   2.102  14.395 -0.2442 -0.2415 -1.6045
16051TIP3    H269569   3.088   2.209  14.331  1.0230 -1.6584 -2.3164
16052TIP3   OH269570   6.615   3.659   5.526 -0.7489 -0.1517 -0.3018
16052TIP3    H169571   6.556   3.608   5.581 -1.9960  0.5954 -0.8633
16052TIP3    H269572   6.693   3.674   5.579 -1.0017 -1.3099  0.4164
16053TIP3   OH269573   2.644   1.807  10.963 -0.3008  0.1830 -0.0835
16053TIP3    H169574   2.699   1.823  11.039  0.4941 -0.0951 -0.5842
16053TIP3    H269575   2.669   1.875  10.900  0.5634 -0.8387 -0.8780
16054TIP3   OH269576   0.144   0.913   0.022  1.0219 -0.0070 -1.0048
16054TIP3    H169577   0.176   0.830  -0.014 -1.7339 -2.5031  1.6975
16054TIP3    H269578   0.214   0.943   0.080  1.3048 -1.5740 -0.4914
16055TIP3   OH269579   6.267   3.203   0.377 -0.0297  0.5352 -0.0916
16055TIP3    H169580   6.340   3.144   0.359  1.0905  1.2827  1.7423
16055TIP3    H269581   6.201   3.179   0.312  0.9993 -1.6243 -0.4538
16056TIP3   OH269582   0.870   2.544  13.744  0.2027  0.5095 -0.3089
16056TIP3    H169583   0.963   2.567  13.754  0.7216 -1.4195 -0.2663
16056TIP3    H269584   0.830   2.622  13.707  1.4446  2.1150  1.4843
16057TIP3   OH269585   1.709   0.779  11.321  0.2837 -0.1987 -0.2516
16057TIP3    H169586   1.798   0.814  11.319 -0.3213  1.4887  0.8091
16057TIP3    H269587   1.711   0.714  11.392 -0.1758  2.4724  2.3759
16058TIP3   OH269588   1.435   2.087  14.729  0.1379  0.0640 -0.3456
16058TIP3    H169589   1.448   2.161  14.670 -1.0114 -0.4923 -1.3351
16058TIP3    H269590   1.427   2.126  14.816 -2.8380  1.3880 -1.0932
16059TIP3   OH269591   0.139   2.902  16.988 -0.3771 -0.1446 -0.2973
16059TIP3    H169592   0.135   2.915  16.893  2.5591 -0.3752 -0.5383
16059TIP3    H269593   0.087   2.823  17.003  0.4086 -1.0207 -1.9622
16060TIP3   OH269594   0.389   6.075  13.492 -0.0267 -0.4103 -0.2845
16060TIP3    H169595   0.307   6.110  13.525 -0.7440 -1.0974 -1.2716
16060TIP3    H269596   0.391   5.984  13.523 -0.1235 -0.6884 -1.0517
16061TIP3   OH269597   0.586   3.575  11.824  0.8560 -0.1278 -0.3436
16061TIP3    H169598   0.659   3.548  11.881 -0.2413 -1.8715  0.3169
16061TIP3    H269599   0.511   3.579  11.883  0.5487  2.7724 -0.7833
16062TIP3   OH269600   0.461   1.977  16.311  0.1599  0.1520  0.0950
16062TIP3    H169601   0.369   1.962  16.291  0.6158 -1.4000 -1.0642
16062TIP3    H269602   0.488   1.899  16.359  1.0198  0.3064 -0.1171
16063TIP3   OH269603   6.071   0.296  11.934  0.2031  0.1483 -0.2354
16063TIP3    H169604   6.007   0.248  11.986  1.0078 -1.2218 -0.4535
16063TIP3    H269605   6.116   0.352  11.997  0.2772 -0.5254  0.3257
16064TIP3   OH269606   1.880   4.760  12.408 -0.2257  0.0199  0.1058
16064TIP3    H169607   1.792   4.771  12.445  0.6635  0.5235  2.2033
16064TIP3    H269608   1.910   4.676  12.441  0.2150 -0.0091 -0.3491
16065TIP3   OH269609   6.140   6.042  14.063  0.8405 -0.1485 -0.6293
16065TIP3    H169610   6.105   5.956  14.039 -0.0283  0.4039 -1.3723
16065TIP3    H269611   6.105   6.059  14.150  0.6189 -0.3265 -0.6838
16066TIP3   OH269612   3.368   2.118  15.256 -0.4976  0.6115 -0.3488
16066TIP3    H169613   3.359   2.063  15.334 -2.3782 -0.8226 -1.5053
16066TIP3    H269614   3.460   2.108  15.231 -0.0163  0.5961  1.2661
16067TIP3   OH269615   1.313   3.062   4.816 -0.2169  0.1238 -0.2103
16067TIP3    H169616   1.313   3.147   4.860  0.1483  1.0388 -1.8978
16067TIP3    H269617   1.375   3.009   4.866  0.7635  1.3651 -0.0690
16068TIP3   OH269618   3.764   2.972  13.441  0.2515 -0.2363 -0.0139
16068TIP3    H169619   3.815   2.901  13.401  1.7191  0.2524  0.8740
16068TIP3    H269620   3.781   2.962  13.535 -1.8912 -0.4507  0.3902
16069TIP3   OH269621   2.176   2.347   2.960  0.2988 -0.1728 -0.3886
16069TIP3    H169622   2.110   2.311   2.900  0.7329 -0.3896 -0.7378
16069TIP3    H269623   2.254   2.293   2.945 -0.3026 -1.9998  2.2103
16070TIP3   OH269624   1.275   2.251   2.684  0.4132 -0.7480  0.7105
16070TIP3    H169625   1.301   2.338   2.652 -0.5656 -0.5302  0.4798
16070TIP3    H269626   1.294   2.255   2.778  1.1710 -0.5925  0.5599
16071TIP3   OH269627   4.177   1.747  16.317 -0.5095  0.0320 -0.0242
16071TIP3    H169628   4.236   1.674  16.338  0.6901  1.0582  0.3228
16071TIP3    H269629   4.089   1.711  16.330 -0.0441 -1.8774 -1.5883
16072TIP3   OH269630   5.619   3.257   4.231  0.5765 -0.0811  0.3740
16072TIP3    H169631   5.539   3.297   4.266 -0.4428  0.4155 -2.2432
16072TIP3    H269632   5.594   3.166   4.213 -0.1293  0.5699 -2.3022
16073TIP3   OH269633   1.819   0.857   0.884  0.3118 -0.4331  0.1212
16073TIP3    H169634   1.867   0.774   0.873  2.2835  0.4969  1.1537
16073TIP3    H269635   1.780   0.851   0.971 -2.2237 -1.4965 -1.0022
16074TIP3   OH269636   1.761   1.887   1.172 -0.8385 -1.0662  0.0607
16074TIP3    H169637   1.807   1.806   1.194  0.4829 -0.0835  1.1241
16074TIP3    H269638   1.751   1.884   1.077  2.4396 -0.8978 -0.4151
16075TIP3   OH269639   5.325   4.310   5.270 -0.7067 -0.0289 -0.5190
16075TIP3    H169640   5.386   4.273   5.206 -0.4528  0.7351 -0.7279
16075TIP3    H269641   5.339   4.258   5.349 -0.6737 -0.6623 -0.9380
16076TIP3   OH269642   5.669   1.273  12.972  0.0714  0.1832 -0.2156
16076TIP3    H169643   5.704   1.276  12.883 -0.6109  2.3070 -0.4752
16076TIP3    H269644   5.576   1.256  12.961  0.0373  0.1377  0.1215
16077TIP3   OH269645   2.547   2.083  12.429  0.6340 -0.1882 -1.2750
16077TIP3    H169646   2.628   2.033  12.443  0.3343 -0.2710  0.3823
16077TIP3    H269647   2.558   2.122  12.342  1.6880 -1.6164 -1.8307
16078TIP3   OH269648   5.434   4.547   6.572 -0.1230 -0.3167 -0.7075
16078TIP3    H169649   5.365   4.605   6.537 -0.4796 -1.0383 -1.2285
16078TIP3    H269650   5.490   4.605   6.623 -1.0974  0.3017 -0.2999
16079TIP3   OH269651   4.087   2.447  14.069  0.0592 -0.1617  0.8143
16079TIP3    H169652   4.126   2.374  14.118 -2.0850 -1.0294  1.3378
16079TIP3    H269653   4.116   2.525  14.115  0.1327 -0.8401  1.9521
16080TIP3   OH269654   1.092   6.198   5.545 -0.2717 -0.9059 -0.3244
16080TIP3    H169655   1.170   6.156   5.509  0.5879  2.2630 -2.6792
16080TIP3    H269656   1.054   6.245   5.471 -1.9137  1.1591  1.6651
16081TIP3   OH269657   1.245   4.691  14.617  0.1902 -0.2797  0.4056
16081TIP3    H169658   1.307   4.737  14.561 -0.1449  0.9960  1.0552
16081TIP3    H269659   1.300   4.632  14.669  0.5376 -1.2343 -0.9635
16082TIP3   OH269660   3.167   1.425  17.109  0.4111  0.0527  0.0107
16082TIP3    H169661   3.212   1.462  17.185  0.1326  0.3104  0.0512
16082TIP3    H269662   3.111   1.356  17.146  0.6579 -0.1675 -0.0226
16083TIP3   OH269663   0.682   4.172   5.050 -0.0993 -0.0598 -0.4224
16083TIP3    H169664   0.609   4.222   5.084 -0.9725  0.0063 -2.2695
16083TIP3    H269665   0.645   4.085   5.031  0.6990 -0.5264  0.0759
16084TIP3   OH269666   2.086   1.594  11.172 -0.0120  0.3451  0.0194
16084TIP3    H169667   2.048   1.592  11.084 -2.7826  3.3141  0.9477
16084TIP3    H269668   2.120   1.505  11.185  1.3893  0.0012 -4.2859
16085TIP3   OH269669   0.431   4.995   3.516  0.5048 -0.2042 -0.2306
16085TIP3    H169670   0.342   5.015   3.489  0.8496 -0.7165 -1.8565
16085TIP3    H269671   0.448   5.053   3.590 -0.7726  0.6929 -0.6194
16086TIP3   OH269672   3.747   4.708  16.328  0.4727 -0.3082 -0.2616
16086TIP3    H169673   3.701   4.681  16.249  1.0451 -1.6525 -0.1732
16086TIP3    H269674   3.816   4.643  16.339 -0.2908 -0.8442  1.9681
16087TIP3   OH269675   5.596   1.090   0.708 -1.0343  0.0699  0.9008
16087TIP3    H169676   5.602   1.137   0.791 -3.1935 -0.6309  1.5270
16087TIP3    H269677   5.661   1.021   0.715 -1.2793 -0.0667  2.0974
16088TIP3   OH269678   0.694   2.541  15.404  0.4201  0.3115 -0.7616
16088TIP3    H169679   0.723   2.521  15.493  0.2573 -0.9846 -0.9898
16088TIP3    H269680   0.653   2.461  15.373 -0.3674  1.0460 -1.6786
16089TIP3   OH269681   1.895   2.256  13.565  0.6637 -0.1495  0.2440
16089TIP3    H169682   1.947   2.244  13.486  0.7147  0.2835  0.2076
16089TIP3    H269683   1.929   2.191  13.626  3.2334  1.9705  1.2324
16090TIP3   OH269684   5.368   6.070   1.615 -0.0179 -0.5742  0.3588
16090TIP3    H169685   5.435   6.091   1.550  0.2142  0.2600  0.8507
16090TIP3    H269686   5.416   6.058   1.696  0.0828 -4.5919 -0.0711
16091TIP3   OH269687   4.170   1.302   1.393  0.1255 -0.1810  0.1833
16091TIP3    H169688   4.095   1.316   1.335 -1.3203 -0.5271  1.8879
16091TIP3    H269689   4.154   1.360   1.467  1.7333 -0.0476  0.4747
16092TIP3   OH269690   5.606   1.381   2.770  0.2178  0.1009 -0.0546
16092TIP3    H169691   5.700   1.392   2.755 -0.0399  0.3336 -1.6347
16092TIP3    H269692   5.566   1.458   2.730 -0.6684 -0.0881  0.4340
16093TIP3   OH269693   2.177   5.356  14.926  0.7505  0.2517 -0.1250
16093TIP3    H169694   2.141   5.267  14.916  0.2114  0.3645  0.7723
16093TIP3    H269695   2.150   5.383  15.013  1.3653  1.1050 -0.1944
16094TIP3   OH269696   4.076   2.329   4.693 -0.1243  0.5961 -0.3491
16094TIP3    H169697   4.083   2.409   4.640 -0.0563  0.9683  0.2089
16094TIP3    H269698   3.985   2.302   4.684 -0.1491  0.7450 -0.5373
16095TIP3   OH269699   0.693   5.745   6.272 -0.3546 -0.5357 -0.2437
16095TIP3    H169700   0.664   5.718   6.185  3.3036 -0.8939 -1.5062
16095TIP3    H269701   0.717   5.663   6.315 -0.7431 -0.2238  0.5780
16096TIP3   OH269702   1.223   2.722  11.381 -0.1191  0.5769 -0.0736
16096TIP3    H169703   1.308   2.679  11.386 -1.0236 -1.2488  0.2413
16096TIP3    H269704   1.232   2.799  11.437  0.5708 -0.9521  2.0282
16097TIP3   OH269705   0.202   2.168   6.047 -0.9565  0.1158 -0.0493
16097TIP3    H169706   0.206   2.263   6.045 -0.5295  0.0910 -0.6829
16097TIP3    H269707   0.181   2.147   6.138 -2.4308  0.8450 -0.2037
16098TIP3   OH269708   6.079   2.110  16.774  0.0539 -0.7245  0.1232
16098TIP3    H169709   6.071   2.116  16.869  0.6477 -0.6266  0.1757
16098TIP3    H269710   6.033   2.187  16.741  1.3183  0.2062  0.4316
16099TIP3   OH269711   0.229   2.320   3.800  0.4041 -0.1063  0.1102
16099TIP3    H169712   0.193   2.295   3.715 -1.0361 -0.0309  0.6706
16099TIP3    H269713   0.279   2.243   3.829 -0.2834 -0.6612 -0.1670
16100TIP3   OH269714   1.235   6.535   6.147 -0.2612  0.4114  0.2679
16100TIP3    H169715   1.310   6.490   6.186 -1.0106 -0.4544  0.7439
16100TIP3    H269716   1.274   6.599   6.087  0.9117  1.3001  1.8959
16101TIP3   OH269717   0.097   2.898   1.594 -0.0521  0.4283 -0.2671
16101TIP3    H169718   0.140   2.926   1.513  0.3529  1.5163  0.3042
16101TIP3    H269719   0.008   2.934   1.588 -0.4849 -0.6741 -0.8342
16102TIP3   OH269720   4.072   1.587  12.010  0.7667  0.3914 -0.2320
16102TIP3    H169721   3.980   1.602  12.032  0.8373 -0.8268  1.0195
16102TIP3    H269722   4.120   1.630  12.081  1.1531  0.5675 -0.5994
16103TIP3   OH269723   2.817   0.230   4.927 -0.5975 -0.9602 -0.1833
16103TIP3    H169724   2.789   0.321   4.922  0.5316 -0.6518 -1.5634
16103TIP3    H269725   2.754   0.188   4.985 -0.3434  0.9757  1.5697
16104TIP3   OH269726   6.244   4.965   4.482 -0.9209 -0.0916  0.0929
16104TIP3    H169727   6.152   4.990   4.470 -1.2581 -1.1114  0.4559
16104TIP3    H269728   6.241   4.872   4.501  0.3655 -0.6436 -2.1073
16105TIP3   OH269729   5.991   3.841  16.919 -0.3993 -0.2640 -0.7440
16105TIP3    H169730   6.063   3.833  16.857 -0.3747  2.8881 -1.3145
16105TIP3    H269731   5.928   3.775  16.892  0.8666 -0.8963 -2.2922
16106TIP3   OH269732   2.208   1.191  15.332  0.0004 -0.0262 -0.0113
16106TIP3    H169733   2.285   1.157  15.286  0.1464  0.5126 -0.1749
16106TIP3    H269734   2.201   1.136  15.410  0.8107  0.1893  0.2288
16107TIP3   OH269735   3.482   5.538  11.768 -0.4756 -0.2128  0.2885
16107TIP3    H169736   3.482   5.530  11.672  0.3553  2.0993  0.0411
16107TIP3    H269737   3.394   5.567  11.789 -1.3769 -2.8610  0.5208
16108TIP3   OH269738   6.151   0.406   0.947 -0.2293 -0.1631  0.3838
16108TIP3    H169739   6.059   0.396   0.922 -0.4249  1.8002  0.1377
16108TIP3    H269740   6.148   0.449   1.032  0.4600 -0.2400  0.4528
16109TIP3   OH269741   4.404   3.213   5.710  0.1735  0.1069 -0.0506
16109TIP3    H169742   4.370   3.281   5.652  0.5364  0.3294 -0.0044
16109TIP3    H269743   4.484   3.182   5.667  0.4527  0.2831  0.3372
16110TIP3   OH269744   1.283   3.328   2.038  0.3403 -0.3852 -0.2743
16110TIP3    H169745   1.189   3.343   2.050  0.5348  0.1415  0.7589
16110TIP3    H269746   1.289   3.281   1.955 -0.8612 -0.7626 -0.1762
16111TIP3   OH269747   5.703   6.636   2.451  0.0422  0.1693 -0.1529
16111TIP3    H169748   5.796   6.657   2.459  0.1310 -0.7618  1.9792
16111TIP3    H269749   5.700   6.562   2.390  0.4606  1.4090 -1.7495
16112TIP3   OH269750   1.404   1.426  12.126  0.0166  0.5072 -0.1321
16112TIP3    H169751   1.311   1.433  12.105 -0.2453 -0.1856  0.7216
16112TIP3    H269752   1.414   1.478  12.205  0.2610  0.2245  0.0241
16113TIP3   OH269753   3.870   5.626  16.951 -0.4715 -0.0672  0.4421
16113TIP3    H169754   3.947   5.676  16.925 -1.1826  1.2454  0.7895
16113TIP3    H269755   3.868   5.552  16.890  1.9364 -1.0467  1.4317
16114TIP3   OH269756   0.091   5.091   4.054  0.3181 -0.4081 -0.7037
16114TIP3    H169757   0.111   5.024   4.119  2.0889  0.3542 -0.4191
16114TIP3    H269758  -0.004   5.084   4.042  0.3751 -2.6089 -0.3237
16115TIP3   OH269759   4.930   4.917  15.527  0.4545  0.7304 -0.5540
16115TIP3    H169760   4.999   4.893  15.464 -1.2248 -1.2848 -1.7854
16115TIP3    H269761   4.926   4.842  15.587 -1.2832  0.3002 -1.1368
16116TIP3   OH269762   3.662   0.876  14.037 -0.3308 -0.1057 -0.5916
16116TIP3    H169763   3.742   0.854  13.988  0.4202 -2.5166  1.4875
16116TIP3    H269764   3.595   0.818  14.001 -1.1176  1.5908 -2.0137
16117TIP3   OH269765   1.146   3.182   0.632 -0.5186 -0.2260  0.2087
16117TIP3    H169766   1.239   3.164   0.646 -0.3152  1.2295  0.9756
16117TIP3    H269767   1.144   3.271   0.597 -1.6247 -0.2024  0.2988
16118TIP3   OH269768   4.039   6.687   3.096 -0.5516 -0.2752  0.3330
16118TIP3    H169769   4.057   6.694   3.002  1.2843 -0.6677  0.6062
16118TIP3    H269770   3.944   6.680   3.102 -0.6915 -0.5222 -1.5138
16119TIP3   OH269771   6.029   5.247  15.039  1.0140 -0.4238 -1.0922
16119TIP3    H169772   5.999   5.168  15.085  0.4893  0.9137  1.0247
16119TIP3    H269773   5.957   5.269  14.980  0.5091 -0.7301 -0.6085
16120TIP3   OH269774   3.766   6.251   0.603 -0.0170 -0.2372 -0.4801
16120TIP3    H169775   3.735   6.298   0.525  1.7444 -0.4809 -1.3627
16120TIP3    H269776   3.788   6.321   0.665  1.1067  0.0846 -1.2092
16121TIP3   OH269777   1.327   1.155  11.984  0.4302 -0.0880  0.2058
16121TIP3    H169778   1.279   1.237  11.985 -0.4509 -0.5918  0.1343
16121TIP3    H269779   1.276   1.096  12.040  1.3011 -0.4531  0.6414
16122TIP3   OH269780   5.750   1.736  16.396 -0.4440 -0.2081 -0.5674
16122TIP3    H169781   5.686   1.667  16.412  0.3878 -1.0026 -0.5769
16122TIP3    H269782   5.723   1.775  16.313 -0.8851 -0.5694 -0.5970
16123TIP3   OH269783   4.639   1.749   1.771 -0.0120  0.2264  0.6428
16123TIP3    H169784   4.715   1.722   1.824  0.6510 -1.5712 -1.1177
16123TIP3    H269785   4.588   1.669   1.760 -0.0984  0.5312 -1.4666
16124TIP3   OH269786   3.150   0.458  13.096 -0.5238 -0.3185  0.7029
16124TIP3    H169787   3.242   0.433  13.090 -0.7903 -1.2364  0.2572
16124TIP3    H269788   3.151   0.553  13.104  0.3968 -0.1063 -1.3578
16125TIP3   OH269789   2.322   3.865   4.675  0.3068  0.2362 -0.2309
16125TIP3    H169790   2.232   3.899   4.671  0.1417 -0.2263 -0.6049
16125TIP3    H269791   2.322   3.808   4.752 -0.3834 -1.5464 -1.4755
16126TIP3   OH269792   4.254   4.379   1.591  0.5409 -0.5286  0.2465
16126TIP3    H169793   4.177   4.331   1.623 -0.9038  1.3879 -0.1656
16126TIP3    H269794   4.233   4.400   1.500  0.8550  1.2692  0.5415
16127TIP3   OH269795   2.699   2.959   3.552 -0.0658 -0.1258  0.4692
16127TIP3    H169796   2.685   2.942   3.645 -0.6901 -0.2897  0.3545
16127TIP3    H269797   2.668   2.880   3.508  1.7716 -0.7364  0.2033
16128TIP3   OH269798   5.330   3.241  10.529 -0.1637 -0.2312  0.3365
16128TIP3    H169799   5.330   3.150  10.499 -1.1843 -0.5610  1.2775
16128TIP3    H269800   5.332   3.293  10.449  2.8586 -1.0275 -0.2195
16129TIP3   OH269801   1.225   5.203  16.934  0.1759 -0.0960 -0.2584
16129TIP3    H169802   1.138   5.171  16.959 -1.2780  3.5129 -0.0762
16129TIP3    H269803   1.273   5.208  17.017 -0.2311  0.0179 -0.0265
16130TIP3   OH269804   0.871   4.173  17.222  0.2478 -0.6956 -0.8174
16130TIP3    H169805   0.966   4.175  17.208  0.2037  0.5442 -1.0208
16130TIP3    H269806   0.857   4.226  17.300 -0.3076 -0.6646 -0.9317
16131TIP3   OH269807   0.930   4.245  12.099 -0.4598 -0.2142  0.4437
16131TIP3    H169808   0.991   4.213  12.031 -3.4811 -0.4233 -2.4197
16131TIP3    H269809   0.898   4.165  12.141  0.9219 -0.1182  1.7595
16132TIP3   OH269810   4.526   0.210   4.832  0.0549  0.2605  0.2587
16132TIP3    H169811   4.484   0.261   4.901 -0.4208  1.0307 -0.5814
16132TIP3    H269812   4.584   0.150   4.879 -1.3663 -0.2803  1.4158
16133TIP3   OH269813   3.384   2.234  16.536  0.2868 -0.3221 -0.1996
16133TIP3    H169814   3.473   2.269  16.529  0.0527  0.2561 -0.2786
16133TIP3    H269815   3.333   2.281  16.470 -0.1947 -0.2754  0.1977
16134TIP3   OH269816   6.628   1.176  12.574 -0.2570  0.2955  0.0520
16134TIP3    H169817   6.606   1.259  12.617  2.7819  0.5332  1.4777
16134TIP3    H269818   6.554   1.119  12.592 -2.0503  2.3978 -0.2132
16135TIP3   OH269819   3.432   2.860   1.884 -0.1081  0.0161 -0.2298
16135TIP3    H169820   3.420   2.953   1.868  0.8677  0.5408  1.7405
16135TIP3    H269821   3.493   2.856   1.958 -0.2224 -2.1833 -0.1877
16136TIP3   OH269822   0.964   2.661  11.041  0.2987  0.1491 -0.3837
16136TIP3    H169823   0.980   2.616  10.958 -0.2277  1.7131 -1.3694
16136TIP3    H269824   0.891   2.614  11.080  1.1520 -1.1923 -0.3167
16137TIP3   OH269825   0.075   4.785   5.138 -0.1167 -0.0800 -0.3049
16137TIP3    H169826   0.013   4.763   5.208  1.4552  0.3230  1.2679
16137TIP3    H269827   0.115   4.866   5.167 -2.7168  2.8223 -3.9369
16138TIP3   OH269828   5.847   1.956   0.249  0.2852  0.4307 -0.3439
16138TIP3    H169829   5.794   1.984   0.174  0.4257  0.8098 -0.3060
16138TIP3    H269830   5.783   1.934   0.317  0.1608  0.1986 -0.5346
16139TIP3   OH269831   3.387   1.204   5.010  0.2073 -0.2378  0.5578
16139TIP3    H169832   3.375   1.211   5.105  0.1155 -0.4119  0.5594
16139TIP3    H269833   3.304   1.171   4.977 -0.3589  1.4622  0.2007
16140TIP3   OH269834   4.988   5.619   3.939  0.1215  0.6742 -0.3744
16140TIP3    H169835   4.904   5.592   3.974 -0.8018  0.6931 -2.4401
16140TIP3    H269836   5.044   5.631   4.016 -1.6149  0.2270  1.0028
16141TIP3   OH269837   1.224   1.876  14.687 -0.5958 -0.6969  0.8980
16141TIP3    H169838   1.300   1.934  14.687  0.7072 -2.2870 -0.9218
16141TIP3    H269839   1.260   1.788  14.701 -2.2925 -1.3373  1.5855
16142TIP3   OH269840   5.838   3.642  16.834  0.0304 -0.6994  0.6334
16142TIP3    H169841   5.762   3.602  16.875  0.1130 -0.3018  1.1881
16142TIP3    H269842   5.898   3.569  16.818 -0.9077 -1.2025 -0.8593
16143TIP3   OH269843   3.974   6.305  14.069 -0.4035 -0.0787  0.5128
16143TIP3    H169844   3.931   6.220  14.071  0.4906 -0.5281  1.4979
16143TIP3    H269845   4.068   6.285  14.072 -0.1708  0.9250  0.3789
16144TIP3   OH269846   5.457   2.600   1.339 -0.0652 -0.4444  0.0173
16144TIP3    H169847   5.534   2.636   1.294  0.2720 -0.3298  0.6649
16144TIP3    H269848   5.493   2.562   1.420 -0.3385 -2.7101 -0.8619
16145TIP3   OH269849   4.379   0.691   0.445  0.0117  0.3542  0.1600
16145TIP3    H169850   4.340   0.778   0.451  1.3334  1.0127 -0.4012
16145TIP3    H269851   4.314   0.639   0.398 -0.7823  1.0412  0.4879
16146TIP3   OH269852   2.904   2.248  14.067  0.4670 -0.0574  0.2387
16146TIP3    H169853   2.917   2.182  14.135 -0.1788  1.2316  1.6789
16146TIP3    H269854   2.978   2.308  14.076 -0.1617  0.7061  0.5482
16147TIP3   OH269855   1.155   4.421   5.804  0.5728 -0.2548  0.0750
16147TIP3    H169856   1.200   4.389   5.883  0.1886 -1.3698 -0.1525
16147TIP3    H269857   1.089   4.355   5.785 -0.0387  0.5298 -0.5877
16148TIP3   OH269858   2.597   6.502   0.368 -0.6903 -0.8170  0.6240
16148TIP3    H169859   2.675   6.530   0.416 -0.7574  0.4350  0.0298
16148TIP3    H269860   2.577   6.574   0.309 -2.8493 -0.6924  1.4005
16149TIP3   OH269861   0.485   5.174   6.106 -0.2598  0.5717  0.0731
16149TIP3    H169862   0.390   5.175   6.118 -0.5521 -1.3663 -1.6468
16149TIP3    H269863   0.518   5.234   6.173 -2.5837  0.2895  1.5790
16150TIP3   OH269864   5.816   5.875   0.872  0.3155  0.1267 -0.5108
16150TIP3    H169865   5.776   5.788   0.870 -2.9585  1.3489  1.6855
16150TIP3    H269866   5.810   5.906   0.781 -3.1307 -0.2137 -0.5491
16151TIP3   OH269867   2.582   3.358  12.175 -0.4168  0.1271 -0.3346
16151TIP3    H169868   2.599   3.408  12.095  0.3987  1.0042  0.3648
16151TIP3    H269869   2.523   3.414  12.226  0.2269  0.2363  0.3025
16152TIP3   OH269870   1.700   3.265   5.664 -0.2354  0.1922 -0.5285
16152TIP3    H169871   1.713   3.356   5.692  1.0980 -0.4186  1.0097
16152TIP3    H269872   1.789   3.229   5.661 -0.8884 -1.7787  1.5784
16153TIP3   OH269873   2.473   0.193   4.585 -0.2307 -0.0556 -0.1731
16153TIP3    H169874   2.556   0.205   4.539  0.3917 -1.0776  0.6319
16153TIP3    H269875   2.446   0.104   4.564 -0.6720 -0.0343  0.2777
16154TIP3   OH269876   4.103   6.754  11.616  0.6688 -0.1906 -0.3295
16154TIP3    H169877   4.198   6.749  11.611  0.8085 -0.2814  1.6359
16154TIP3    H269878   4.077   6.678  11.668 -0.5109 -0.2368 -0.9343
16155TIP3   OH269879   2.886   3.175  15.612  0.2941 -0.4776  0.0945
16155TIP3    H169880   2.898   3.087  15.575  2.2045  0.3628 -1.4442
16155TIP3    H269881   2.954   3.182  15.679  0.1675 -0.1823  0.1931
16156TIP3   OH269882   3.063   6.183   6.045  0.0419  0.4744 -0.1688
16156TIP3    H169883   2.968   6.167   6.047 -0.1087  1.3826  0.4462
16156TIP3    H269884   3.071   6.277   6.030  0.8747  0.2041 -1.6013
16157TIP3   OH269885   3.610   3.209  13.472 -0.2492 -0.5210  0.2102
16157TIP3    H169886   3.578   3.250  13.392  0.8737 -0.6442 -0.3291
16157TIP3    H269887   3.654   3.129  13.442  1.8801  0.4001  0.7128
16158TIP3   OH269888   3.275   5.517  10.780  0.3504 -0.7115  0.1721
16158TIP3    H169889   3.311   5.579  10.716  0.5863  0.5616  1.4965
16158TIP3    H269890   3.204   5.564  10.823  0.1740 -1.5487  0.8409
16159TIP3   OH269891   4.084   0.614  16.979 -0.0768  0.6228  0.0637
16159TIP3    H169892   4.080   0.706  16.953  1.4722  0.7180  0.0178
16159TIP3    H269893   4.147   0.575  16.918  0.0153 -0.2381  0.6921
16160TIP3   OH269894   3.385   3.252  14.015 -0.1426 -0.0673  0.4834
16160TIP3    H169895   3.291   3.272  14.013 -0.3327 -0.0365  3.6253
16160TIP3    H269896   3.426   3.330  14.052  0.9067 -0.6013  0.4922
16161TIP3   OH269897   5.240   3.727   5.517  0.1994 -0.0752 -0.0374
16161TIP3    H169898   5.227   3.785   5.592  0.5225 -0.8986  0.6707
16161TIP3    H269899   5.327   3.690   5.531 -0.6752 -2.0628  0.4655
16162TIP3   OH269900   5.329   0.861  11.363  0.2581  0.1855  0.1080
16162TIP3    H169901   5.298   0.941  11.321  0.9489  0.2245 -0.3453
16162TIP3    H269902   5.251   0.807  11.373 -0.2705  1.0407  0.7171
16163TIP3   OH269903   4.405   6.681   6.541 -0.1355 -0.3490 -0.0452
16163TIP3    H169904   4.404   6.742   6.614  0.2756 -0.7301  0.2782
16163TIP3    H269905   4.421   6.595   6.580 -0.2506 -0.6055 -0.5439
16164TIP3   OH269906   1.681   0.510  12.159  0.4968  0.5863  0.0007
16164TIP3    H169907   1.666   0.456  12.236  0.0731  0.5211 -0.1203
16164TIP3    H269908   1.733   0.583  12.190 -0.2407  0.9141  0.4961
16165TIP3   OH269909   6.644   4.687  13.993 -0.1733 -0.1672 -0.1334
16165TIP3    H169910   6.719   4.645  14.035 -1.0176 -0.5910  0.9977
16165TIP3    H269911   6.571   4.628  14.010 -0.9869  0.7857 -0.2420
16166TIP3   OH269912   1.396   3.813   0.481 -0.7261 -0.2930 -0.3344
16166TIP3    H169913   1.456   3.763   0.425  0.0609 -0.2227  0.4363
16166TIP3    H269914   1.413   3.781   0.569 -2.5039 -0.9571 -0.1955
16167TIP3   OH269915   2.786   3.729  11.900 -0.6352 -0.4749  0.1515
16167TIP3    H169916   2.855   3.666  11.881  0.0652  0.3665 -0.1812
16167TIP3    H269917   2.820   3.780  11.973 -1.2100 -0.5132  0.4451
16168TIP3   OH269918   0.461   4.280  13.894  0.1758  0.1457 -0.0928
16168TIP3    H169919   0.496   4.369  13.889  0.1871  0.0923 -1.3780
16168TIP3    H269920   0.397   4.276  13.823  1.3148 -1.3304 -1.1155
16169TIP3   OH269921   0.635   6.459  15.139 -0.0606 -0.5443  0.4899
16169TIP3    H169922   0.714   6.482  15.090 -0.6213 -3.6209 -2.2056
16169TIP3    H269923   0.660   6.383  15.191 -0.1615  1.2082  3.3034
16170TIP3   OH269924   0.715   0.533  15.854  0.1753  0.2375  0.7098
16170TIP3    H169925   0.700   0.510  15.762  1.8414 -0.5972  0.6081
16170TIP3    H269926   0.689   0.455  15.902 -0.1277  0.4602  0.9139
16171TIP3   OH269927   1.377   3.661   6.103  0.0357 -0.3930  0.3849
16171TIP3    H169928   1.430   3.594   6.147  0.5039 -0.1003  0.2754
16171TIP3    H269929   1.323   3.699   6.173  1.3873  0.6640  0.9030
16172TIP3   OH269930   6.270   2.147  13.131  0.2363 -0.6106  0.2387
16172TIP3    H169931   6.209   2.190  13.191  0.4180 -0.7964  0.5652
16172TIP3    H269932   6.216   2.085  13.082  0.0285 -0.2227 -0.0247
16173TIP3   OH269933   0.349   2.669  14.813  0.2971  0.3852 -0.1714
16173TIP3    H169934   0.406   2.728  14.765 -1.1192  0.5409 -1.7846
16173TIP3    H269935   0.260   2.696  14.788 -0.5146  0.0098  2.0404
16174TIP3   OH269936   1.600   1.779  12.520 -0.3290  0.1434 -0.2311
16174TIP3    H169937   1.579   1.827  12.600  1.5725  0.6960 -0.0093
16174TIP3    H269938   1.689   1.747  12.535 -0.4175 -0.8134 -1.6380
16175TIP3   OH269939   6.244   6.202   1.661 -0.1253 -0.1123 -0.0008
16175TIP3    H169940   6.195   6.252   1.727 -1.9244 -1.4446 -0.2314
16175TIP3    H269941   6.195   6.217   1.580  0.0092 -1.2776 -0.3091
16176TIP3   OH269942   5.897   5.241   1.713  0.0028 -0.0301 -0.2632
16176TIP3    H169943   5.816   5.273   1.754  1.1300  0.3312  1.8129
16176TIP3    H269944   5.954   5.318   1.712 -0.1209  0.1177 -3.0854
16177TIP3   OH269945   1.265   6.333  15.372  0.0748 -0.4043  0.6891
16177TIP3    H169946   1.256   6.238  15.372  0.5812 -0.4566  0.9002
16177TIP3    H269947   1.304   6.353  15.457 -0.6614  0.0556  0.9268
16178TIP3   OH269948   1.144   5.623   5.338 -0.2599 -0.0443  0.0319
16178TIP3    H169949   1.124   5.681   5.412 -1.0201 -0.4398  0.1403
16178TIP3    H269950   1.060   5.608   5.295  0.2031  0.3352 -1.0403
16179TIP3   OH269951   3.297   4.812  17.111 -0.0811  0.0887  0.0419
16179TIP3    H169952   3.221   4.769  17.149  2.0374 -3.4131  0.8332
16179TIP3    H269953   3.302   4.778  17.021  1.2570 -0.9275  0.4591
16180TIP3   OH269954   4.719   6.247  11.654 -0.0074 -0.3817  0.2189
16180TIP3    H169955   4.764   6.169  11.688 -0.0396  0.2660  1.8215
16180TIP3    H269956   4.628   6.220  11.645  0.1881 -0.8699 -0.3727
16181TIP3   OH269957   1.239   2.431  13.162 -0.1365  0.0982  0.2901
16181TIP3    H169958   1.264   2.340  13.178  2.9451  0.7403 -0.2297
16181TIP3    H269959   1.153   2.426  13.121 -0.7023 -2.4596  1.6341
16182TIP3   OH269960   4.608   4.120  11.738  0.5248  0.1736  0.1029
16182TIP3    H169961   4.548   4.191  11.714  0.1890  0.2090  1.0157
16182TIP3    H269962   4.554   4.041  11.733  0.2653  0.2542  1.3656
16183TIP3   OH269963   4.765   2.449   2.526 -0.8449 -0.3980 -0.4676
16183TIP3    H169964   4.780   2.530   2.575  0.0857 -1.1912  0.6048
16183TIP3    H269965   4.806   2.465   2.441 -0.5569  0.2142 -0.2247
16184TIP3   OH269966   6.661   6.493  13.989 -0.4774 -0.0874 -0.4607
16184TIP3    H169967   6.667   6.586  13.966  0.2287 -0.0365 -0.0661
16184TIP3    H269968   6.732   6.478  14.050  0.2805 -1.2117 -1.5725
16185TIP3   OH269969   5.833   5.767   1.663  0.1669  0.1164 -0.8198
16185TIP3    H169970   5.754   5.768   1.610  0.0888 -2.3814 -0.8946
16185TIP3    H269971   5.876   5.851   1.646 -1.9681  1.1214 -1.4901
16186TIP3   OH269972   2.982   4.009  13.804  0.6951 -0.6937  0.5465
16186TIP3    H169973   2.916   3.950  13.769 -0.1338  0.5172 -0.0080
16186TIP3    H269974   2.974   4.001  13.899 -1.0727  0.2703  0.5257
16187TIP3   OH269975   3.519   2.613  11.628 -0.2114  0.1220  0.8391
16187TIP3    H169976   3.479   2.553  11.690  1.1469 -0.0608  1.5733
16187TIP3    H269977   3.514   2.699  11.671 -2.0108  0.5711 -0.1424
16188TIP3   OH269978   3.610   2.801   3.645  0.1730  0.3737 -0.1821
16188TIP3    H169979   3.540   2.793   3.710 -1.5774  0.7196 -1.9163
16188TIP3    H269980   3.643   2.712   3.634 -0.2738  0.1289  0.3764
16189TIP3   OH269981   2.008   6.312   4.730  0.0205  0.4129 -0.4524
16189TIP3    H169982   2.018   6.395   4.684 -1.1565  0.1250 -1.2685
16189TIP3    H269983   2.051   6.326   4.814 -1.9656  2.5968  0.3192
16190TIP3   OH269984   1.324   6.376  12.968 -0.7685 -0.1177  0.2245
16190TIP3    H169985   1.229   6.375  12.955 -0.8001  0.1166  0.4345
16190TIP3    H269986   1.335   6.362  13.062 -0.6272  0.8422  0.3575
16191TIP3   OH269987   5.918   4.577   1.358 -0.5089  0.0869 -0.0338
16191TIP3    H169988   5.922   4.498   1.411 -2.7550  0.1352  0.2644
16191TIP3    H269989   5.857   4.634   1.403  0.6729  1.8275 -0.5210
16192TIP3   OH269990   1.668   5.863   2.946  0.1830  0.5712  0.3217
16192TIP3    H169991   1.753   5.827   2.971 -0.6333 -1.7104 -0.0348
16192TIP3    H269992   1.655   5.837   2.855 -1.8372 -1.1226  1.0076
16193TIP3   OH269993   4.977   1.404  11.691 -0.2754  0.0533 -0.2104
16193TIP3    H169994   5.064   1.445  11.691 -1.0403  1.7588 -0.1480
16193TIP3    H269995   4.963   1.379  11.600 -0.3683  1.2980 -0.5622
16194TIP3   OH269996   0.843   3.017   2.888 -0.4120  0.2583  0.1614
16194TIP3    H169997   0.868   2.955   2.820  2.2766  1.8713 -0.4544
16194TIP3    H269998   0.846   2.966   2.969  0.6883 -0.6833 -0.4455
16195TIP3   OH269999   3.089   5.373   4.605 -0.4237 -0.5711  0.1056
16195TIP3    H170000   3.096   5.280   4.625 -0.3888 -0.4059  0.8676
16195TIP3    H270001   3.002   5.383   4.566 -0.6129 -0.8382  0.4658
16196TIP3   OH270002   4.856   4.496  10.673  0.2522  0.4076 -0.4037
16196TIP3    H170003   4.877   4.451  10.755  0.3582 -0.1399 -0.7217
16196TIP3    H270004   4.926   4.469  10.613 -0.7526 -0.5867 -1.1748
16197TIP3   OH270005   6.745   1.478  11.147 -0.4439 -0.1717 -0.0896
16197TIP3    H170006   6.690   1.546  11.107 -0.7998 -0.0515  0.5993
16197TIP3    H270007   6.758   1.507  11.237  0.9106 -0.1072 -0.2938
16198TIP3   OH270008   5.633   5.500  13.357  0.7169 -0.0831 -0.5690
16198TIP3    H170009   5.550   5.475  13.398  0.6387 -0.4320 -0.9370
16198TIP3    H270010   5.699   5.451  13.405  0.8429  1.0487  0.4823
16199TIP3   OH270011   4.017   1.668   5.151  0.6867 -0.0284  0.4854
16199TIP3    H170012   4.052   1.745   5.197 -0.1672  0.4797  0.3160
16199TIP3    H270013   4.067   1.665   5.069  0.9387  0.1640  0.6273
16200TIP3   OH270014   0.896   1.864  14.443 -0.3732 -0.3474  0.3070
16200TIP3    H170015   0.891   1.922  14.366  2.2413 -0.5227 -0.0874
16200TIP3    H270016   0.870   1.778  14.410 -0.9161 -0.0874  0.0453
16201TIP3   OH270017   5.816   3.424   2.986  0.0130  0.2332 -0.0660
16201TIP3    H170018   5.788   3.335   2.963  0.2184  0.4322 -1.1225
16201TIP3    H270019   5.900   3.411   3.031 -0.6078 -0.1899  1.0331
16202TIP3   OH270020   4.829   4.805  12.552 -0.0971 -0.2832  0.5635
16202TIP3    H170021   4.747   4.772  12.588 -0.5244 -0.6108 -0.6685
16202TIP3    H270022   4.841   4.756  12.471  0.9009  0.3451  0.3146
16203TIP3   OH270023   4.573   4.723   4.030  0.0742  0.6553 -0.5156
16203TIP3    H170024   4.620   4.691   3.953  0.4450  0.4533 -0.2051
16203TIP3    H270025   4.572   4.649   4.091  1.3178  1.3464  0.3868
16204TIP3   OH270026   0.480   0.168   0.454 -0.4029  0.2801 -0.6433
16204TIP3    H170027   0.421   0.123   0.394 -0.6331  0.2879 -0.4234
16204TIP3    H270028   0.513   0.242   0.403 -0.0014 -0.1400 -1.0174
16205TIP3   OH270029   1.017   2.929   0.919  0.1362  0.1449  0.6268
16205TIP3    H170030   1.102   2.887   0.932  0.6678  0.9681 -0.1442
16205TIP3    H270031   0.994   2.963   1.006  2.2138  2.8870  0.2180
16206TIP3   OH270032   4.112   5.713  12.544  0.7026 -0.2358  0.3745
16206TIP3    H170033   4.072   5.700  12.630 -0.1482 -2.2153 -0.2508
16206TIP3    H270034   4.138   5.625  12.517  0.7810  0.3182 -1.4670
16207TIP3   OH270035   6.403   4.745   5.455 -0.3667 -0.2531  0.7129
16207TIP3    H170036   6.422   4.772   5.545 -1.5468 -2.3730  1.6876
16207TIP3    H270037   6.310   4.721   5.457 -0.6728  0.5755 -1.3562
16208TIP3   OH270038   1.500   1.857   0.674 -0.4043  0.2672  0.4433
16208TIP3    H170039   1.523   1.950   0.671  5.6023 -0.8150 -1.0079
16208TIP3    H270040   1.484   1.834   0.583 -0.9142 -0.3107  0.6764
16209TIP3   OH270041   6.059   2.335  17.006  0.4566 -0.1965  0.0511
16209TIP3    H170042   6.114   2.403  16.968  2.3192 -0.3875  2.1823
16209TIP3    H270043   6.031   2.371  17.090  1.1485 -1.8403  1.0343
16210TIP3   OH270044   5.842   4.672   2.828 -0.2639 -0.6360 -0.1162
16210TIP3    H170045   5.874   4.744   2.774  1.2618 -1.3005 -0.1645
16210TIP3    H270046   5.822   4.711   2.913 -0.1298 -0.0442 -0.3534
16211TIP3   OH270047   6.426   1.783  15.868 -0.0854 -0.1263 -0.0316
16211TIP3    H170048   6.380   1.699  15.855 -1.4217 -0.0576  3.1404
16211TIP3    H270049   6.454   1.809  15.781 -1.0864 -3.0571 -1.3720
16212TIP3   OH270050   5.597   1.367   0.183 -0.2816  0.3298  0.2920
16212TIP3    H170051   5.674   1.341   0.132  1.7790  0.9199  2.9093
16212TIP3    H270052   5.549   1.286   0.199 -1.0811  0.1220 -2.4931
16213TIP3   OH270053   4.319   6.500  11.341  0.0067  0.1286  0.2776
16213TIP3    H170054   4.265   6.565  11.294  0.8805  0.9493  0.3791
16213TIP3    H270055   4.402   6.499  11.294  1.0808  1.3155  2.0330
16214TIP3   OH270056   5.987   1.214  13.167 -0.3083  0.6520 -0.1555
16214TIP3    H170057   6.030   1.299  13.164 -1.7738  1.4027 -1.7593
16214TIP3    H270058   5.960   1.203  13.258  0.4317  1.5983  0.1902
16215TIP3   OH270059   0.321   4.201  14.676 -0.2314 -0.2606 -0.2272
16215TIP3    H170060   0.413   4.189  14.696 -0.5249 -1.0536  0.7261
16215TIP3    H270061   0.309   4.161  14.590 -0.1087 -2.2077  0.6046
16216TIP3   OH270062   3.187   0.701   1.518 -0.8240  0.1301  0.9650
16216TIP3    H170063   3.116   0.763   1.500 -0.5200  0.4137  0.7185
16216TIP3    H270064   3.181   0.636   1.448 -0.6910  0.2911  0.8024
16217TIP3   OH270065   1.880   1.990  12.591  0.0317  0.5985 -0.1899
16217TIP3    H170066   1.800   2.035  12.617 -0.7594 -0.4319 -0.8009
16217TIP3    H270067   1.894   1.923  12.658 -0.1484  0.1566 -0.5868
16218TIP3   OH270068   6.061   5.851   2.830 -0.1660 -0.2376 -0.5213
16218TIP3    H170069   6.030   5.940   2.843  2.0579  0.3598  1.2084
16218TIP3    H270070   6.016   5.799   2.897  0.2000  0.0310 -0.0612
16219TIP3   OH270071   4.439   3.625  12.087  0.4392  0.2824  0.1864
16219TIP3    H170072   4.384   3.568  12.142  2.3589  0.2922  2.2885
16219TIP3    H270073   4.438   3.710  12.132 -0.2192  1.1718 -1.4249
16220TIP3   OH270074   0.919   0.795   6.290  0.6057  0.2350  0.5140
16220TIP3    H170075   0.928   0.888   6.311  1.5799  0.5973 -1.2966
16220TIP3    H270076   1.008   0.764   6.277  0.1818 -0.1173 -2.1123
16221TIP3   OH270077   4.825   5.834   3.037 -0.1652  0.3953  0.2487
16221TIP3    H170078   4.890   5.848   3.105 -2.3056 -0.4938  2.6060
16221TIP3    H270079   4.746   5.877   3.069 -1.4617 -0.6578 -1.3412
16222TIP3   OH270080   2.026   1.687   1.495 -0.0879  0.4266 -0.4734
16222TIP3    H170081   2.071   1.607   1.521 -2.4470 -0.7202  0.3458
16222TIP3    H270082   1.991   1.722   1.577 -2.2599  0.2158 -1.2405
16223TIP3   OH270083   3.301   5.268   3.993 -0.6365 -0.2757  0.3242
16223TIP3    H170084   3.340   5.181   4.003  1.2935  0.5148  0.0622
16223TIP3    H270085   3.300   5.304   4.082  1.4967  0.5814  0.0622
16224TIP3   OH270086   0.841   6.686  14.655 -0.6101  0.0355 -0.3462
16224TIP3    H170087   0.877   6.764  14.697  1.8617 -1.6556  0.9478
16224TIP3    H270088   0.749   6.706  14.642 -0.1673  2.9849  0.3010
16225TIP3   OH270089   5.856   2.459   2.930  0.3446 -0.5590 -0.2509
16225TIP3    H170090   5.919   2.528   2.949  0.3282  0.0405 -2.1328
16225TIP3    H270091   5.810   2.445   3.013  1.0167  0.9896  0.4310
16226TIP3   OH270092   6.126   0.935   0.099 -0.1661 -1.0908  0.2374
16226TIP3    H170093   6.117   0.867   0.166  0.7899 -0.5448  0.9412
16226TIP3    H270094   6.200   0.988   0.128  0.0193 -0.6013 -1.0527
16227TIP3   OH270095   4.150   3.933   1.719 -0.1132  0.2372 -0.6131
16227TIP3    H170096   4.107   3.855   1.756 -1.8162  1.7670  0.8227
16227TIP3    H270097   4.106   4.007   1.760  0.5861  2.0356 -2.8513
16228TIP3   OH270098   1.966   3.405  15.871 -0.0925 -0.0699  0.5530
16228TIP3    H170099   1.970   3.312  15.891 -1.6388 -0.1528  0.5765
16228TIP3    H270100   1.983   3.448  15.955  1.9898 -0.2784  0.2817
16229TIP3   OH270101   6.281   6.682  11.115 -0.1420  0.5847 -0.0814
16229TIP3    H170102   6.291   6.598  11.161  1.1547 -0.4343 -2.0577
16229TIP3    H270103   6.329   6.744  11.170 -0.9169  0.0317  1.2999
16230TIP3   OH270104   1.708   0.604   1.379 -0.1855  0.8079 -0.4865
16230TIP3    H170105   1.717   0.596   1.474  1.2623  0.0412 -0.6596
16230TIP3    H270106   1.673   0.692   1.366 -0.9391  0.7262  0.7703
16231TIP3   OH270107   4.006   1.312  15.429 -0.8353  0.5019  0.3062
16231TIP3    H170108   4.037   1.269  15.509 -0.8013 -1.2630 -0.6062
16231TIP3    H270109   4.035   1.403  15.438 -0.1466  0.1585  1.9353
16232TIP3   OH270110   3.077   2.547  16.047  0.5912 -0.0268 -0.4164
16232TIP3    H170111   3.160   2.593  16.040  1.1490 -0.9572 -0.0084
16232TIP3    H270112   3.087   2.470  15.990  0.0934 -0.2549 -0.2025
16233TIP3   OH270113   3.137   3.997  12.685 -0.6892  0.3949 -0.3278
16233TIP3    H170114   3.106   4.043  12.763 -1.2339  1.0095 -0.8950
16233TIP3    H270115   3.100   3.908  12.693  1.3423 -0.3824  1.3722
16234TIP3   OH270116   0.175   4.030   1.597 -0.0928  0.7392  0.5276
16234TIP3    H170117   0.093   4.003   1.555  1.4418 -1.5692 -1.2829
16234TIP3    H270118   0.175   4.125   1.591 -2.0229  0.7278 -0.6353
16235TIP3   OH270119   3.715   0.008   0.275 -0.4309  0.3321  0.5291
16235TIP3    H170120   3.772   0.077   0.309 -0.3603  0.1168  0.8473
16235TIP3    H270121   3.644   0.001   0.339  1.0938 -1.9370  2.1278
16236TIP3   OH270122   0.486   4.173  12.364  0.4291  0.2103  0.7442
16236TIP3    H170123   0.448   4.133  12.442 -1.2453  0.7458  0.2442
16236TIP3    H270124   0.561   4.223  12.397 -1.5820  2.3370  2.4120
16237TIP3   OH270125   4.617   2.958  16.628  0.4199 -0.5303 -0.3873
16237TIP3    H170126   4.644   2.998  16.710 -2.2371 -0.1645  0.4049
16237TIP3    H270127   4.620   2.864  16.644 -0.5748 -0.4493  0.3285
16238TIP3   OH270128   3.597   0.101  15.003  0.6583  0.3058  0.2400
16238TIP3    H170129   3.625   0.167  15.067 -0.8188  0.6685  0.5587
16238TIP3    H270130   3.679   0.070  14.963  1.4133  2.5559 -0.1527
16239TIP3   OH270131   2.230   5.515   2.068 -0.3406  0.1758 -0.3007
16239TIP3    H170132   2.167   5.462   2.019 -0.2773  0.6441 -0.9083
16239TIP3    H270133   2.225   5.602   2.027  1.8776 -0.1727 -1.4525
16240TIP3   OH270134   3.673   1.960   4.919 -0.1171 -0.6958  0.2025
16240TIP3    H170135   3.632   1.925   4.998  1.4947 -2.1862  0.4494
16240TIP3    H270136   3.766   1.935   4.927  0.9429  2.6396 -0.2500
16241TIP3   OH270137   1.764   3.806  14.751  0.1846 -0.4177 -0.4692
16241TIP3    H170138   1.836   3.769  14.701  1.0893  1.3016 -0.5435
16241TIP3    H270139   1.773   3.768  14.839  2.4695  1.1950  0.1091
16242TIP3   OH270140   5.056   4.603   2.975 -0.3148 -0.4186  0.1373
16242TIP3    H170141   5.057   4.527   3.034 -0.9748  1.1382  2.2823
16242TIP3    H270142   4.978   4.652   3.000  1.0480  1.9176  0.1623
16243TIP3   OH270143   2.871   5.435  13.561 -0.0830 -0.5611 -0.3118
16243TIP3    H170144   2.953   5.422  13.609  0.9930 -0.0962 -1.9515
16243TIP3    H270145   2.816   5.361  13.587  0.5646 -0.5092  1.3491
16244TIP3   OH270146   4.780   0.965  16.776 -0.4798  0.0816 -0.1408
16244TIP3    H170147   4.716   0.968  16.705 -0.0032  0.5450 -0.5585
16244TIP3    H270148   4.824   1.050  16.773 -0.7902  0.3105  1.0366
16245TIP3   OH270149   4.084   0.286   3.940 -0.5550  0.4129  0.1277
16245TIP3    H170150   3.992   0.312   3.933 -0.8757 -0.4616  0.8004
16245TIP3    H270151   4.125   0.354   3.992 -1.0039  0.3993  0.4999
16246TIP3   OH270152   5.386   0.861  16.348 -0.4752  0.2897  0.2115
16246TIP3    H170153   5.304   0.861  16.298 -0.3448  0.4385 -0.0064
16246TIP3    H270154   5.369   0.917  16.423  0.0060  1.8767 -0.8127
16247TIP3   OH270155   2.273   2.589   1.989  0.2973  0.0578 -0.6924
16247TIP3    H170156   2.217   2.620   1.918 -1.0945 -0.8869 -0.0536
16247TIP3    H270157   2.224   2.516   2.028  1.4369 -0.0265  0.6591
16248TIP3   OH270158   1.142   6.420   0.945  0.0964  0.2298 -0.0669
16248TIP3    H170159   1.128   6.387   1.034 -0.9443 -2.2161 -1.0440
16248TIP3    H270160   1.232   6.395   0.925  0.2930  0.6752  0.2426
16249TIP3   OH270161   5.925   2.958  14.603 -0.4664 -0.0366 -0.4964
16249TIP3    H170162   5.965   2.932  14.521 -0.0171 -0.7258 -0.0668
16249TIP3    H270163   5.966   3.042  14.625 -0.8816  0.3487 -1.1652
16250TIP3   OH270164   1.532   3.118  15.938 -0.0806  0.3854 -0.7618
16250TIP3    H170165   1.489   3.079  15.863  1.5503  0.3360 -1.7151
16250TIP3    H270166   1.599   3.174  15.901  0.5466  0.6141  0.6512
16251TIP3   OH270167   3.563   2.897  12.922  0.2107 -1.1708  0.6813
16251TIP3    H170168   3.586   2.990  12.926  1.2513 -1.2588 -1.6766
16251TIP3    H270169   3.468   2.896  12.932  0.0800  0.2399 -0.1110
16252TIP3   OH270170   3.334   1.463   1.502 -0.3201  0.5751  0.8074
16252TIP3    H170171   3.414   1.491   1.546 -0.2299 -0.9952  1.7338
16252TIP3    H270172   3.266   1.519   1.538  0.3752  2.1918 -0.2756
16253TIP3   OH270173   5.273   2.800   0.487 -0.2359  0.4026  0.1487
16253TIP3    H170174   5.339   2.823   0.553  0.6604 -0.0155 -0.5749
16253TIP3    H270175   5.305   2.717   0.450 -1.0233  0.3440 -0.4183
16254TIP3   OH270176   0.497   0.831   2.739 -0.0608  0.6272  0.3160
16254TIP3    H170177   0.570   0.888   2.763  3.2698 -3.1486  0.2776
16254TIP3    H270178   0.473   0.789   2.822 -1.4121  0.9616  0.1050
16255TIP3   OH270179   1.404   0.908  12.597  0.1033  0.1764  0.0102
16255TIP3    H170180   1.489   0.875  12.567  0.0223  0.3186 -0.3819
16255TIP3    H270181   1.425   0.987  12.647  0.4511 -1.2799  2.3428
16256TIP3   OH270182   5.314   2.112  14.991  0.3606 -0.5158 -0.5982
16256TIP3    H170183   5.401   2.111  14.950  2.1873  0.5625  2.8241
16256TIP3    H270184   5.290   2.020  14.998  3.8088 -1.4364  2.9143
16257TIP3   OH270185   3.182   0.537  12.252 -0.4683 -0.1217 -0.1481
16257TIP3    H170186   3.186   0.512  12.160 -2.1140 -0.6271 -0.1091
16257TIP3    H270187   3.134   0.466  12.295  0.4966 -0.0260  1.1689
16258TIP3   OH270188   6.061   2.618  15.757  0.0770  0.2166 -0.9466
16258TIP3    H170189   6.128   2.677  15.790 -0.0602  0.5501 -1.2673
16258TIP3    H270190   5.980   2.668  15.760 -0.2040 -0.2480 -0.3741
16259TIP3   OH270191   1.139   1.031   3.805  1.0021 -0.2633  0.2776
16259TIP3    H170192   1.205   0.962   3.805  1.4168  0.1299 -0.1789
16259TIP3    H270193   1.151   1.074   3.889  1.1141 -0.3932  0.3302
16260TIP3   OH270194   6.036   5.154  12.527  0.1130 -0.1049  0.3136
16260TIP3    H170195   6.063   5.153  12.435  0.0653  1.4024  0.2556
16260TIP3    H270196   6.112   5.188  12.574 -0.3559  0.5055  0.6454
16261TIP3   OH270197   0.791   6.413   1.108 -0.5297  0.2745 -0.0559
16261TIP3    H170198   0.739   6.478   1.061 -0.1570 -0.3473 -1.3662
16261TIP3    H270199   0.737   6.334   1.108  0.0961 -0.1636 -0.7848
16262TIP3   OH270200   2.000   0.982  13.220  0.6973 -0.1877  0.0958
16262TIP3    H170201   2.005   0.889  13.202 -0.3985 -0.1984 -0.2413
16262TIP3    H270202   1.974   0.988  13.312 -0.1483 -0.2434 -0.1295
16263TIP3   OH270203   1.941   4.143  15.614 -0.3256 -0.4766 -0.1925
16263TIP3    H170204   1.860   4.172  15.573  1.1617  2.9583 -1.0072
16263TIP3    H270205   1.940   4.183  15.701  0.3847 -0.6821 -0.0852
16264TIP3   OH270206   3.157   1.972   0.674  0.0127  0.9829 -0.0150
16264TIP3    H170207   3.134   2.054   0.629 -1.8475 -1.0200 -3.0114
16264TIP3    H270208   3.090   1.910   0.646  1.8306 -1.8342  1.4869
16265TIP3   OH270209   3.687   0.120   5.846  0.2709  0.2644 -0.8333
16265TIP3    H170210   3.775   0.089   5.866  0.5326  1.0299 -0.7656
16265TIP3    H270211   3.657   0.062   5.776  1.0339  0.3301 -1.2249
16266TIP3   OH270212   2.156   0.772  12.523  0.6842 -0.1236  0.2449
16266TIP3    H170213   2.227   0.740  12.469  1.4217  2.0392 -0.1869
16266TIP3    H270214   2.186   0.759  12.613  2.3736  2.0761  0.0841
16267TIP3   OH270215   3.796   2.693   1.659 -0.6339  0.1223 -0.4478
16267TIP3    H170216   3.789   2.759   1.728 -0.3957 -0.5885  0.2663
16267TIP3    H270217   3.807   2.744   1.579  0.5036  0.9393  0.1972
16268TIP3   OH270218   0.859   3.721   6.640 -0.1025  0.2907 -0.0722
16268TIP3    H170219   0.768   3.753   6.639  0.3475  1.7706  1.7391
16268TIP3    H270220   0.902   3.771   6.571 -0.3976  0.4251 -0.1636
16269TIP3   OH270221   4.798   6.534  11.095 -0.2402  0.1864  0.0204
16269TIP3    H170222   4.796   6.626  11.068 -0.7383 -0.4187 -2.1779
16269TIP3    H270223   4.890   6.509  11.088 -0.0538  0.5602  0.9145
16270TIP3   OH270224   4.056   6.272  14.606  0.0303 -0.2052  0.5898
16270TIP3    H170225   3.963   6.269  14.585  0.1300 -0.3749  0.1754
16270TIP3    H270226   4.100   6.239  14.528  0.6431  3.0590 -0.6172
16271TIP3   OH270227   1.233   1.754  13.987  0.0943  0.1240  0.5725
16271TIP3    H170228   1.290   1.823  13.954 -1.3771  0.8803 -0.5207
16271TIP3    H270229   1.189   1.792  14.063 -0.6614  0.4018  0.0154
16272TIP3   OH270230   6.293   6.267  17.262  0.1782  0.1293  0.0174
16272TIP3    H170231   6.388   6.256  17.270  0.4149  2.2902  0.6640
16272TIP3    H270232   6.257   6.210  17.331  0.8964 -1.6132 -0.9883
16273TIP3   OH270233   6.196   6.297   1.058  0.2341  0.8185  0.4697
16273TIP3    H170234   6.249   6.223   1.028  0.0643  0.9403 -0.1454
16273TIP3    H270235   6.211   6.365   0.992 -0.1880  1.0751  0.6338
16274TIP3   OH270236   5.214   4.887  12.340  0.6087  0.1831 -0.2820
16274TIP3    H170237   5.207   4.867  12.433 -0.9009  0.9030 -0.2002
16274TIP3    H270238   5.143   4.838  12.299 -1.4706  2.9970 -0.4193
16275TIP3   OH270239   4.234   6.183  16.894  0.0207  0.3681  0.0932
16275TIP3    H170240   4.315   6.212  16.935  0.9505 -2.4234  0.4842
16275TIP3    H270241   4.165   6.223  16.946  1.1367  1.7678  0.5677
16276TIP3   OH270242   0.741   4.056   5.818 -0.0509  0.6807 -0.6304
16276TIP3    H170243   0.742   4.038   5.912  0.2321  0.4448 -0.6759
16276TIP3    H270244   0.739   3.970   5.777 -1.6393  0.7935 -0.8422
16277TIP3   OH270245   1.317   4.133   4.684  0.7419 -0.3473  0.0498
16277TIP3    H170246   1.228   4.098   4.687  0.8339 -0.5967  3.4301
16277TIP3    H270247   1.370   4.059   4.655  0.1823 -1.1033  0.9032
16278TIP3   OH270248   4.464   3.747  13.479  0.4506  0.5036  0.2924
16278TIP3    H170249   4.440   3.816  13.417 -0.1136  0.3431  0.3334
16278TIP3    H270250   4.405   3.675  13.459  0.0923  0.5423  1.1794
16279TIP3   OH270251   4.204   0.383  14.191 -0.1202 -0.5797 -0.2673
16279TIP3    H170252   4.273   0.367  14.127 -1.1868 -1.3847 -1.2295
16279TIP3    H270253   4.122   0.373  14.143 -0.9329  1.0938  0.6822
16280TIP3   OH270254   0.341   3.406   0.643  0.1767  0.8172 -0.2034
16280TIP3    H170255   0.401   3.368   0.706 -0.6928  0.7513  0.5983
16280TIP3    H270256   0.352   3.353   0.564 -0.8926 -1.0346  0.8287
16281TIP3   OH270257   1.135   5.822  13.520 -0.2318  0.3803  0.5282
16281TIP3    H170258   1.081   5.754  13.561  0.7228 -0.1352  0.9707
16281TIP3    H270259   1.221   5.811  13.561 -0.1282  2.0307  0.7983
16282TIP3   OH270260   0.529   3.686   5.487 -0.4965  0.4959  0.3160
16282TIP3    H170261   0.550   3.751   5.554 -0.6674  1.1587 -0.2544
16282TIP3    H270262   0.527   3.736   5.405 -0.3762 -0.2773 -0.1745
16283TIP3   OH270263   3.650   4.390  13.244  0.5458  0.0409 -0.5189
16283TIP3    H170264   3.639   4.334  13.321 -1.1758  0.4285 -0.4395
16283TIP3    H270265   3.743   4.381  13.221  0.7657 -1.2274  0.7060
16284TIP3   OH270266   6.569   0.237   2.293  0.2635  0.2341  0.0009
16284TIP3    H170267   6.532   0.151   2.310  0.4856  0.0325 -0.5041
16284TIP3    H270268   6.659   0.231   2.325  0.2960  0.2555 -0.0843
16285TIP3   OH270269   1.276   2.942  11.577 -0.8489  0.7130 -0.2701
16285TIP3    H170270   1.340   3.010  11.599 -1.3163  2.0458 -2.7609
16285TIP3    H270271   1.195   2.972  11.617 -0.0892 -0.9662  2.8732
16286TIP3   OH270272   2.301   3.480   5.727  0.7913 -0.0737  0.4765
16286TIP3    H170273   2.276   3.572   5.727 -0.7865 -0.4642  2.2026
16286TIP3    H270274   2.274   3.447   5.812  1.7629 -2.0371  0.0855
16287TIP3   OH270275   0.623   2.843  15.448  0.4529 -0.0071  0.4592
16287TIP3    H170276   0.536   2.868  15.418  1.1285  0.7762 -0.9476
16287TIP3    H270277   0.640   2.760  15.403  1.5512  1.2712 -1.6775
16288TIP3   OH270278   2.193   3.468   0.135  0.0128 -0.0059 -0.4354
16288TIP3    H170279   2.259   3.424   0.189  0.1383  0.8969  0.1785
16288TIP3    H270280   2.109   3.443   0.174  0.1331  2.1652  1.5170
16289TIP3   OH270281   2.503   6.428   4.908 -0.0446  0.8408 -0.2075
16289TIP3    H170282   2.473   6.352   4.858 -1.7694  1.0594  0.4084
16289TIP3    H270283   2.577   6.396   4.959 -2.8748 -1.6021  2.8332
16290TIP3   OH270284   5.311   2.318   4.351  0.5018  0.7790  0.2552
16290TIP3    H170285   5.314   2.236   4.302 -1.0223 -0.5494  2.2147
16290TIP3    H270286   5.221   2.324   4.383  0.8438  2.7022  1.0365
16291TIP3   OH270287   0.691   4.522  11.673  0.0620  0.0205 -0.3999
16291TIP3    H170288   0.662   4.542  11.584  1.8425  1.9372 -0.6471
16291TIP3    H270289   0.780   4.557  11.677  0.7187 -1.6824  1.5919
16292TIP3   OH270290   4.570   5.547  12.272 -0.4480 -0.2869  0.2351
16292TIP3    H170291   4.539   5.549  12.363 -3.6216  1.3696 -0.7110
16292TIP3    H270292   4.653   5.595  12.274 -1.4004  1.4688  2.0241
16293TIP3   OH270293   4.501   5.551   0.263  0.0405  0.6263 -0.4682
16293TIP3    H170294   4.435   5.554   0.194 -0.5362 -0.0779  0.0254
16293TIP3    H270295   4.513   5.457   0.280 -0.4808  0.7785  0.9616
16294TIP3   OH270296   4.265   3.498  12.345  0.4064 -0.2559 -0.2404
16294TIP3    H170297   4.188   3.442  12.354 -0.1973  0.3395 -1.4645
16294TIP3    H270298   4.339   3.436  12.346 -0.3010 -1.3313 -2.9624
16295TIP3   OH270299   3.551   0.612  16.347 -0.4997 -0.2063  0.5217
16295TIP3    H170300   3.495   0.587  16.273  0.9603 -0.4563 -0.5462
16295TIP3    H270301   3.494   0.661  16.405 -1.2787  1.7075 -1.7197
16296TIP3   OH270302   2.443   2.569  15.746 -0.5079  0.4348  0.2341
16296TIP3    H170303   2.394   2.493  15.717 -0.2248 -0.1816  1.3292
16296TIP3    H270304   2.412   2.640  15.690 -3.8761  0.4803  1.8918
16297TIP3   OH270305   1.633   1.475   2.237 -0.1358  0.1495 -0.1623
16297TIP3    H170306   1.582   1.477   2.156 -2.6167  3.0396  1.2618
16297TIP3    H270307   1.606   1.554   2.284  1.0851 -1.4275  3.5605
16298TIP3   OH270308   0.391   5.145  15.000  0.0370  1.0582  0.4427
16298TIP3    H170309   0.346   5.063  15.021 -0.3520  0.6450 -1.7840
16298TIP3    H270310   0.333   5.214  15.033  0.3164  0.4997  2.2267
16299TIP3   OH270311   5.801   3.768   2.209  0.0356  0.2442 -0.0388
16299TIP3    H170312   5.789   3.857   2.176 -0.5929  0.2602  0.2225
16299TIP3    H270313   5.891   3.766   2.241  0.6131  0.2909 -1.5566
16300TIP3   OH270314   1.285   6.163   1.798  0.4947  0.4463 -0.1862
16300TIP3    H170315   1.372   6.130   1.820  0.7255  1.1637 -0.0074
16300TIP3    H270316   1.281   6.160   1.702  0.1117 -1.0981 -0.1425
16301TIP3   OH270317   3.305   3.384  15.375 -0.2252 -0.1436 -0.3915
16301TIP3    H170318   3.260   3.315  15.423 -0.6016  0.6712  0.4545
16301TIP3    H270319   3.297   3.358  15.283 -0.7339 -0.9946 -0.1188
16302TIP3   OH270320   3.846   4.532   1.094 -0.0470 -0.1292 -0.2074
16302TIP3    H170321   3.904   4.457   1.088  2.3620  1.6584 -0.8253
16302TIP3    H270322   3.904   4.608   1.095 -2.3709  1.7941 -0.5292
16303TIP3   OH270323   1.220   5.112  11.480 -0.4564 -0.3198 -0.7119
16303TIP3    H170324   1.232   5.106  11.575  1.3377  1.9700 -0.6888
16303TIP3    H270325   1.259   5.032  11.445  0.0671 -0.5723  0.4111
16304TIP3   OH270326   0.102   6.462   4.919  0.5972  0.4730  0.0156
16304TIP3    H170327   0.071   6.551   4.900  0.7513  1.1562  2.5751
16304TIP3    H270328   0.040   6.429   4.984  0.7037 -1.2220 -0.7030
16305TIP3   OH270329   1.764   4.956   3.278  0.1003 -0.1259 -0.0457
16305TIP3    H170330   1.764   5.040   3.232  1.2549  1.0668  1.9380
16305TIP3    H270331   1.675   4.947   3.312  0.3313  1.1116  0.9930
16306TIP3   OH270332   3.162   5.406  15.691  0.2167  0.6799 -0.3738
16306TIP3    H170333   3.228   5.463  15.652  2.0655 -0.9268  0.2368
16306TIP3    H270334   3.197   5.384  15.777 -1.2585 -0.0060  0.0790
16307TIP3   OH270335   0.892   3.237   6.268  0.0446 -0.0761  0.0071
16307TIP3    H170336   0.887   3.315   6.213  0.7892 -0.5577 -0.7684
16307TIP3    H270337   0.971   3.192   6.238  0.0309 -0.7537  0.9480
16308TIP3   OH270338   6.776   0.083  17.091 -0.2291 -0.4246 -0.1059
16308TIP3    H170339   6.783   0.013  17.156  0.9229  0.0740  0.3325
16308TIP3    H270340   6.687   0.117  17.101 -0.1505 -0.5288  1.0359
16309TIP3   OH270341   3.344   2.401   1.005  0.0224  0.3688 -1.0889
16309TIP3    H170342   3.434   2.374   1.020 -0.5288 -0.3012  1.6128
16309TIP3    H270343   3.330   2.474   1.067 -1.1421  0.7812 -1.8094
16310TIP3   OH270344   1.764   5.727   2.073  0.2870  0.2679  0.3119
16310TIP3    H170345   1.676   5.764   2.065  1.3885  3.1221  0.1824
16310TIP3    H270346   1.798   5.727   1.983  1.0417  0.9258  0.5907
16311TIP3   OH270347   5.670   6.760  11.976  0.5308 -0.2572  0.4050
16311TIP3    H170348   5.580   6.786  11.996  0.5021 -0.4292  0.4991
16311TIP3    H270349   5.698   6.822  11.908  0.3308 -0.2250  0.3509
16312TIP3   OH270350   6.527   0.532  15.700  0.2324 -0.1180 -0.0697
16312TIP3    H170351   6.597   0.559  15.640 -0.6384  1.0621 -0.6073
16312TIP3    H270352   6.462   0.602  15.692  0.5819  0.7411  3.1240
16313TIP3   OH270353   2.329   0.564   3.159  0.3330 -0.0388 -0.4330
16313TIP3    H170354   2.420   0.566   3.191  0.0394 -0.4120  0.4395
16313TIP3    H270355   2.276   0.583   3.237 -0.3514  0.0219 -0.9081
16314TIP3   OH270356   4.260   0.700   3.828 -0.5020 -0.3637  0.0776
16314TIP3    H170357   4.351   0.721   3.806 -1.3647  2.0647 -1.6451
16314TIP3    H270358   4.215   0.697   3.743 -2.5294  1.4225  0.9915
16315TIP3   OH270359   4.593   5.748  16.947 -0.6972  0.1791  0.9161
16315TIP3    H170360   4.586   5.652  16.948  0.8893  0.0076 -0.1971
16315TIP3    H270361   4.513   5.778  16.991 -0.9619 -1.6514  1.8180
16316TIP3   OH270362   3.963   6.665  16.009  0.6062 -0.4611  0.0611
16316TIP3    H170363   4.006   6.743  15.975 -0.2019 -0.3250 -0.6567
16316TIP3    H270364   3.952   6.683  16.103 -0.0321  0.5009 -0.1870
16317TIP3   OH270365   4.695   0.256  16.850 -0.3882 -0.3181  0.1359
16317TIP3    H170366   4.624   0.230  16.909 -0.5425  2.0857  1.1411
16317TIP3    H270367   4.768   0.275  16.908 -0.1456  0.8961 -0.5384
16318TIP3   OH270368   1.881   3.002   5.633  0.5284  0.7268  0.8625
16318TIP3    H170369   1.802   2.952   5.657  0.5359 -0.1302 -0.7353
16318TIP3    H270370   1.933   3.003   5.712  0.2549 -1.3445  1.1476
16319TIP3   OH270371   2.461   0.617  16.144 -0.1001  0.7564  0.2987
16319TIP3    H170372   2.374   0.631  16.180  0.3068 -0.9091  2.1199
16319TIP3    H270373   2.508   0.568  16.213  2.2188  1.4683 -0.6751
16320TIP3   OH270374   1.192   1.262  17.033 -0.0133  0.0249  0.3313
16320TIP3    H170375   1.156   1.174  17.032  1.7963 -0.7501 -0.1152
16320TIP3    H270376   1.285   1.250  17.049  0.4626  1.7808 -0.8161
16321TIP3   OH270377   3.080   2.252   1.057 -0.0249 -0.4809 -0.2885
16321TIP3    H170378   3.124   2.168   1.041  0.8237 -0.5760  2.0559
16321TIP3    H270379   3.123   2.314   0.999  1.7903 -1.0217  0.4083
16322TIP3   OH270380   6.039   1.312   4.135  0.2819 -0.2730 -0.0991
16322TIP3    H170381   5.972   1.299   4.202  1.7423 -0.7994  1.3094
16322TIP3    H270382   6.118   1.338   4.183  1.6302 -1.5541 -1.4828
16323TIP3   OH270383   0.586   3.758   6.618 -0.4794 -0.1299 -0.2876
16323TIP3    H170384   0.530   3.829   6.586  0.0842  0.0214 -0.9597
16323TIP3    H270385   0.560   3.682   6.567  0.7061  0.2068 -1.4415
16324TIP3   OH270386   3.003   4.658   1.450  0.0542 -0.1536  0.1451
16324TIP3    H170387   2.911   4.643   1.430 -0.0795  0.2598  0.4344
16324TIP3    H270388   3.043   4.678   1.366 -0.3458  0.7861  0.1737
16325TIP3   OH270389   5.134   3.558   6.032 -0.3120 -0.3426  0.2469
16325TIP3    H170390   5.083   3.533   6.109 -1.5588 -0.0799 -0.4681
16325TIP3    H270391   5.209   3.605   6.068 -1.2641  0.4594  1.2867
16326TIP3   OH270392   1.911   0.986  16.090 -0.2916 -0.0628 -0.1184
16326TIP3    H170393   1.960   0.987  16.173  0.5523  0.5319 -0.6065
16326TIP3    H270394   1.919   1.076  16.057 -2.8184  0.4138  0.4017
16327TIP3   OH270395   1.165   6.729  17.261  0.7137  0.0809 -0.2352
16327TIP3    H170396   1.204   6.653  17.218 -0.7810 -0.4502 -0.7375
16327TIP3    H270397   1.141   6.787  17.189  0.3459  0.2778  0.0441
16328TIP3   OH270398   0.556   0.664   5.730  0.3700  0.0806  0.3317
16328TIP3    H170399   0.553   0.571   5.752  1.7514  0.0942  0.6651
16328TIP3    H270400   0.613   0.668   5.653 -1.0612  0.4909 -0.7627
16329TIP3   OH270401   2.148   3.553   1.565 -0.0226  0.0800 -0.3444
16329TIP3    H170402   2.183   3.467   1.546 -0.2885 -0.2304  0.5084
16329TIP3    H270403   2.159   3.563   1.660 -0.1786  0.8956 -0.4018
16330TIP3   OH270404   2.219   0.297   6.574  0.1710 -0.3323 -0.4902
16330TIP3    H170405   2.311   0.325   6.570 -0.1122  0.6852 -0.1025
16330TIP3    H270406   2.208   0.264   6.663 -0.1699  0.7364 -0.1330
16331TIP3   OH270407   5.600   4.321   2.817  0.1760  0.1651 -0.1907
16331TIP3    H170408   5.599   4.228   2.793  0.6813  0.5630 -1.9435
16331TIP3    H270409   5.524   4.357   2.772 -0.5063  0.4875  1.1619
16332TIP3   OH270410   0.613   5.670   4.414  1.0537  0.2211  0.2300
16332TIP3    H170411   0.688   5.614   4.431  2.1647  1.5113 -0.2315
16332TIP3    H270412   0.588   5.703   4.501  0.9822 -0.2563  0.3911
16333TIP3   OH270413   0.220   1.131   0.427  0.0315  0.1225 -0.0426
16333TIP3    H170414   0.176   1.069   0.485 -1.4609  1.0481 -0.1217
16333TIP3    H270415   0.218   1.214   0.475  0.2190  0.5494 -0.7588
16334TIP3   OH270416   0.859   6.612   4.246 -0.4762  0.3270 -0.3277
16334TIP3    H170417   0.868   6.683   4.183 -0.9749  0.3208 -0.4085
16334TIP3    H270418   0.947   6.577   4.256 -0.2749  0.7928 -0.4808
16335TIP3   OH270419   2.802   1.201  15.502  0.5300 -0.2793  0.0927
16335TIP3    H170420   2.713   1.224  15.478  0.6366  0.0297 -0.0135
16335TIP3    H270421   2.815   1.113  15.468 -0.1455 -0.8152  1.1742
16336TIP3   OH270422   5.325   6.462  17.222  0.5267  0.0745 -0.4614
16336TIP3    H170423   5.259   6.477  17.289  0.4870  0.1712 -0.5226
16336TIP3    H270424   5.343   6.368  17.227 -2.5967 -0.8454 -3.1294
16337TIP3   OH270425   6.030   5.428   5.627 -0.6710  0.2388 -0.1206
16337TIP3    H170426   6.124   5.440   5.615 -0.5668 -1.1336 -0.9134
16337TIP3    H270427   6.007   5.487   5.699  0.7127  0.8824 -0.1721
16338TIP3   OH270428   2.707   1.373  12.076 -0.3552 -0.5732 -0.1751
16338TIP3    H170429   2.727   1.395  12.167 -0.0207  3.2392 -1.0046
16338TIP3    H270430   2.646   1.299  12.082 -0.3719 -0.4459  3.1219
16339TIP3   OH270431   3.380   6.194  10.241 -0.1358  0.3308  0.0499
16339TIP3    H170432   3.347   6.131  10.177  1.2048  1.9093 -2.3501
16339TIP3    H270433   3.343   6.278  10.212  1.3122  1.2370  0.7314
16340TIP3   OH270434   5.761   4.486  10.860 -0.0164 -0.2416  0.2517
16340TIP3    H170435   5.790   4.456  10.774 -0.9471 -0.2217 -0.0886
16340TIP3    H270436   5.665   4.485  10.854 -0.1127  2.1838  0.4088
16341TIP3   OH270437   3.130   3.738   5.984 -0.5340  0.0813 -0.0980
16341TIP3    H170438   3.203   3.782   6.028 -0.6246 -1.6847  1.9535
16341TIP3    H270439   3.164   3.718   5.896  0.8242  0.8436  0.2204
16342TIP3   OH270440   2.283   6.037   0.502  0.2719  0.1779 -0.2358
16342TIP3    H170441   2.305   6.026   0.595  0.5957  1.5832 -0.1267
16342TIP3    H270442   2.291   6.131   0.486 -2.3016  0.3389 -1.0751
16343TIP3   OH270443   4.414   3.090  16.114  0.1515 -0.1421  0.0642
16343TIP3    H170444   4.439   3.167  16.063 -0.2139  0.9701  1.5064
16343TIP3    H270445   4.489   3.075  16.172  1.2787 -2.3780 -1.7766
16344TIP3   OH270446   0.184   4.211  13.291  0.0755  0.6392 -0.0319
16344TIP3    H170447   0.263   4.260  13.272  0.5749 -0.0773  0.1568
16344TIP3    H270448   0.213   4.120  13.299 -0.5992  0.4891  1.0192
16345TIP3   OH270449   6.312   4.979   0.426  0.1178 -0.1331 -0.1610
16345TIP3    H170450   6.292   5.014   0.340  0.9294 -0.2212 -0.3958
16345TIP3    H270451   6.229   4.946   0.459 -0.1398 -0.3885 -1.0416
16346TIP3   OH270452   2.926   5.389   5.473 -0.4047 -0.1744  0.4811
16346TIP3    H170453   2.850   5.431   5.432  0.9032  2.0735  0.1687
16346TIP3    H270454   2.998   5.407   5.413  0.5210 -1.7144  1.0733
16347TIP3   OH270455   3.425   4.504  14.888  0.6018  0.1792  0.0370
16347TIP3    H170456   3.486   4.430  14.890  2.0769  1.3609  0.5850
16347TIP3    H270457   3.339   4.464  14.894  1.2030 -1.6452 -2.1145
16348TIP3   OH270458   4.499   2.498   5.741 -0.5763 -0.0172  0.4823
16348TIP3    H170459   4.472   2.490   5.833 -0.2864 -0.4935  0.5320
16348TIP3    H270460   4.433   2.554   5.701 -1.5878 -1.0921  0.6102
16349TIP3   OH270461   2.096   1.025  12.380 -0.2887 -0.5946 -0.1759
16349TIP3    H170462   2.094   0.938  12.419  0.9751 -0.3452  0.4926
16349TIP3    H270463   2.152   1.076  12.438 -2.4204  1.1885  0.4845
16350TIP3   OH270464   2.838   2.536  13.952 -0.1562  0.2063  0.2082
16350TIP3    H170465   2.791   2.501  13.877 -0.8057 -0.0641  0.7242
16350TIP3    H270466   2.929   2.541  13.924 -0.4783  0.6455 -0.7774
16351TIP3   OH270467   2.689   5.160   1.107  0.0961 -0.5119 -0.0961
16351TIP3    H170468   2.746   5.134   1.179  0.1535 -0.8212 -0.2513
16351TIP3    H270469   2.600   5.155   1.144 -0.0518 -2.6822 -0.6126
16352TIP3   OH270470   3.762   0.779  16.264 -0.0031 -0.0210 -0.0110
16352TIP3    H170471   3.708   0.857  16.249  1.9165  1.3213 -0.2727
16352TIP3    H270472   3.703   0.717  16.308 -1.7339  1.3635 -0.2826
16353TIP3   OH270473   1.068   5.489  16.592  0.6444  0.3583 -0.6367
16353TIP3    H170474   1.129   5.524  16.656  0.0507  0.9589 -0.3885
16353TIP3    H270475   1.020   5.421  16.640  0.6815  0.3249 -0.6464
16354TIP3   OH270476   5.081   0.367  13.243 -0.1139  0.4130  0.0486
16354TIP3    H170477   5.116   0.421  13.172 -0.3524  0.0976 -0.3138
16354TIP3    H270478   5.107   0.278  13.221 -1.4907  0.1113 -0.4549
16355TIP3   OH270479   5.597   4.927   1.447 -0.0328  0.1555 -0.5640
16355TIP3    H170480   5.505   4.901   1.453 -0.1007  0.3014 -0.9167
16355TIP3    H270481   5.644   4.865   1.502 -0.2163 -0.5996 -1.2428
16356TIP3   OH270482   4.594   0.684  14.473  0.1536 -0.2745  0.2240
16356TIP3    H170483   4.627   0.773  14.468 -0.0152 -0.2560 -0.6451
16356TIP3    H270484   4.653   0.632  14.419 -1.1711 -0.2403 -1.3422
16357TIP3   OH270485   1.029   2.604   5.426 -0.4881 -0.2258  0.2142
16357TIP3    H170486   1.096   2.620   5.492 -0.0457 -1.9639  0.2406
16357TIP3    H270487   1.014   2.689   5.385  1.4207  0.2847  0.4924
16358TIP3   OH270488   1.507   3.629   5.805 -0.8727 -0.4877  0.0586
16358TIP3    H170489   1.461   3.701   5.761  1.1667  0.1943 -1.0955
16358TIP3    H270490   1.437   3.570   5.833 -2.5328  1.2154 -0.2362
16359TIP3   OH270491   0.865   3.251  11.713 -0.4467 -0.2229 -0.0954
16359TIP3    H170492   0.926   3.184  11.683 -0.9198 -0.3009 -0.9360
16359TIP3    H270493   0.915   3.305  11.774  0.5857 -0.0045 -1.1203
16360TIP3   OH270494   2.159   6.544   0.258  0.1909 -0.0539  0.0261
16360TIP3    H170495   2.063   6.543   0.255  0.1133 -2.9849  0.0789
16360TIP3    H270496   2.186   6.555   0.167 -0.1558  1.1248  0.0504
16361TIP3   OH270497   5.522   5.895  15.999 -0.1677  0.2779  0.7782
16361TIP3    H170498   5.508   5.970  15.941 -0.1453 -0.2467  0.0863
16361TIP3    H270499   5.463   5.911  16.073 -1.2811  0.2397 -0.0746
16362TIP3   OH270500   4.240   3.824   1.485  0.3472 -0.1757 -0.1871
16362TIP3    H170501   4.211   3.869   1.565  1.0898 -0.9484  0.5435
16362TIP3    H270502   4.335   3.816   1.495  0.5307  0.2462 -1.4400
16363TIP3   OH270503   2.044   1.017  15.787 -0.1927 -0.3228 -0.2850
16363TIP3    H170504   2.013   0.950  15.849 -0.0276  0.3770  0.5705
16363TIP3    H270505   2.005   1.098  15.818  0.0646  0.0791 -0.9884
16364TIP3   OH270506   2.025   3.109  12.799 -0.0451 -0.2055 -0.2858
16364TIP3    H170507   2.020   3.014  12.792  0.4507 -0.2318 -0.3498
16364TIP3    H270508   2.076   3.136  12.722 -2.0606  0.3217 -1.5132
16365TIP3   OH270509   4.141   3.550   6.577 -0.0049 -0.2613 -0.6177
16365TIP3    H170510   4.097   3.466   6.593  0.9299 -0.4960  1.0525
16365TIP3    H270511   4.074   3.605   6.538 -1.1765 -1.2461 -0.0853
16366TIP3   OH270512   3.980   0.368   4.820  0.3845  0.8250 -0.0621
16366TIP3    H170513   4.012   0.328   4.901  0.6412 -0.3504 -0.7219
16366TIP3    H270514   3.911   0.309   4.790  1.0819  0.6104 -1.3052
16367TIP3   OH270515   2.508   3.448   5.520  0.3323 -0.0890  0.4936
16367TIP3    H170516   2.475   3.437   5.609  0.4938 -0.6602  0.4892
16367TIP3    H270517   2.488   3.365   5.477 -0.3174  0.4169 -0.1978
16368TIP3   OH270518   5.714   0.819  15.957  0.1183 -0.1710  0.1868
16368TIP3    H170519   5.696   0.871  16.036 -0.6020  0.3636 -0.3089
16368TIP3    H270520   5.644   0.753  15.956  0.1246 -0.1763  0.0044
16369TIP3   OH270521   4.099   2.938   4.906 -0.3534 -0.4741  0.1841
16369TIP3    H170522   4.025   2.998   4.909 -0.2516 -0.3413  0.0939
16369TIP3    H270523   4.082   2.883   4.830 -0.7829 -1.0063  0.6576
16370TIP3   OH270524   3.484   2.188   2.825  0.8978  0.1948 -0.0633
16370TIP3    H170525   3.463   2.272   2.866  0.5312 -0.6561  1.5684
16370TIP3    H270526   3.402   2.161   2.784  1.0423  0.6543 -0.6800
16371TIP3   OH270527   1.143   2.419  12.804  0.4687  0.0736 -0.2969
16371TIP3    H170528   1.202   2.345  12.794 -0.0627 -0.4945  0.5784
16371TIP3    H270529   1.199   2.492  12.829  1.1484  0.2892 -2.3102
16372TIP3   OH270530   4.206   1.023   4.377  0.5144 -0.3934  0.2391
16372TIP3    H170531   4.121   0.996   4.411  0.6428 -1.0998  0.0027
16372TIP3    H270532   4.233   1.096   4.434  0.8733 -1.7384  1.8638
16373TIP3   OH270533   6.484   5.627   0.385  0.3929 -0.4090 -0.0703
16373TIP3    H170534   6.532   5.581   0.454 -0.0068  0.6195  0.9272
16373TIP3    H270535   6.419   5.680   0.432 -2.2929 -2.2944 -1.3605
16374TIP3   OH270536   4.811   6.510  16.662 -0.0509 -0.0825 -0.2400
16374TIP3    H170537   4.835   6.437  16.719 -1.9781 -0.7203 -0.1531
16374TIP3    H270538   4.785   6.580  16.722  0.2452  0.0979 -0.3239
16375TIP3   OH270539   6.530   1.620  13.326 -0.0809  0.3480  0.1199
16375TIP3    H170540   6.523   1.525  13.336  2.1042  0.1393  0.2360
16375TIP3    H270541   6.607   1.633  13.271 -0.2395  2.0654  0.2349
16376TIP3   OH270542   5.779   1.161  11.568 -0.2477  0.1364 -0.3903
16376TIP3    H170543   5.701   1.121  11.529 -0.6577  0.1412  0.4103
16376TIP3    H270544   5.745   1.219  11.636  0.4860 -0.7891  0.8106
16377TIP3   OH270545   4.663   4.706   2.144  0.7637 -0.0067  0.0524
16377TIP3    H170546   4.711   4.656   2.211  0.2030 -0.5985  0.0219
16377TIP3    H270547   4.632   4.639   2.083  1.5400  0.5616 -0.9784
16378TIP3   OH270548   3.193   3.439  13.330  0.0229  0.2823 -0.1051
16378TIP3    H170549   3.273   3.416  13.282  0.8352 -0.2194  1.4099
16378TIP3    H270550   3.178   3.366  13.389 -1.4436  0.4882 -0.1932
16379TIP3   OH270551   0.306   4.324  13.663  0.6450  0.2246 -0.5292
16379TIP3    H170552   0.220   4.351  13.697  0.6849  1.4403 -1.3394
16379TIP3    H270553   0.285   4.274  13.585  0.6404 -0.6016 -0.0108
16380TIP3   OH270554   2.277   5.915  12.067  0.3090 -0.0079 -0.6042
16380TIP3    H170555   2.311   6.002  12.089  1.9465 -0.0396 -2.6647
16380TIP3    H270556   2.312   5.898  11.979 -2.5188 -1.4547 -1.5454
16381TIP3   OH270557   4.741   3.470  11.074  0.5910  0.4536 -0.3109
16381TIP3    H170558   4.796   3.431  11.142  0.2283  1.1785  0.4195
16381TIP3    H270559   4.789   3.456  10.993  1.2785  0.0245  0.1611
16382TIP3   OH270560   0.318   2.638   2.721 -0.2428  0.0302  0.3808
16382TIP3    H170561   0.356   2.632   2.809 -0.4995  1.1737  0.5835
16382TIP3    H270562   0.367   2.574   2.670  1.5892  1.0451  0.7710
16383TIP3   OH270563   3.821   0.728   3.604  0.0697 -0.0468  0.2442
16383TIP3    H170564   3.760   0.674   3.654 -0.1697  0.3477  0.3803
16383TIP3    H270565   3.887   0.756   3.668  2.0249 -2.7326 -0.4024
16384TIP3   OH270566   5.847   1.250  10.754  0.7824 -0.5014  0.0265
16384TIP3    H170567   5.769   1.304  10.744 -0.6885 -2.5710 -0.4908
16384TIP3    H270568   5.914   1.310  10.785 -0.6912  1.5981 -0.6191
16385TIP3   OH270569   3.211   2.163   5.122 -0.1599 -0.5477 -0.4245
16385TIP3    H170570   3.202   2.082   5.071 -0.5589 -1.5232  1.1189
16385TIP3    H270571   3.214   2.133   5.213 -2.8166  1.3342  0.3890
16386TIP3   OH270572   3.169   0.355   0.224  0.1019 -0.2586 -0.3965
16386TIP3    H170573   3.130   0.269   0.237  0.9306 -0.3036  2.3334
16386TIP3    H270574   3.220   0.346   0.143 -1.7853 -1.5402 -1.5214
16387TIP3   OH270575   0.918   3.799  13.826 -0.2297  0.1719  0.0600
16387TIP3    H170576   0.999   3.766  13.786 -0.3262 -0.1887  0.1597
16387TIP3    H270577   0.864   3.721  13.839 -0.6719  0.4320 -0.1805
16388TIP3   OH270578   1.382   0.105   2.558  0.6038  0.1844  0.8731
16388TIP3    H170579   1.288   0.102   2.577  0.4035 -1.0747 -0.1632
16388TIP3    H270580   1.409   0.013   2.554  1.3232  0.4175 -1.3139
16389TIP3   OH270581   1.680   6.652   1.073  0.3084  0.1126 -0.9571
16389TIP3    H170582   1.728   6.730   1.102 -0.7492  0.3051  0.3616
16389TIP3    H270583   1.741   6.607   1.015  2.5790 -0.2524  1.5236
16390TIP3   OH270584   0.037   5.972   3.355 -0.0677 -0.5086 -0.3757
16390TIP3    H170585   0.118   5.961   3.306  0.0336  0.9354 -0.5794
16390TIP3    H270586  -0.031   5.937   3.297  0.2481 -0.3935 -0.8241
16391TIP3   OH270587   4.665   3.729  14.923 -0.4834 -0.0416 -0.1378
16391TIP3    H170588   4.674   3.722  14.828 -0.3663 -1.1789 -0.0539
16391TIP3    H270589   4.743   3.686  14.958 -0.6101  0.2174  0.4816
16392TIP3   OH270590   3.618   5.927  11.272  0.0737  0.3006 -0.3678
16392TIP3    H170591   3.601   5.983  11.348 -0.8305 -2.2727  1.4737
16392TIP3    H270592   3.565   5.965  11.202 -3.3976 -0.0975  1.7599
16393TIP3   OH270593   3.538   6.125  15.349 -0.3328 -0.2058 -0.0369
16393TIP3    H170594   3.588   6.109  15.269 -0.9120  0.5768 -0.5776
16393TIP3    H270595   3.559   6.215  15.374 -2.1170  0.4809 -0.7958
16394TIP3   OH270596   4.942   6.520  10.488  0.2265 -1.0637 -0.3972
16394TIP3    H170597   4.927   6.611  10.461 -0.8575 -1.1097 -0.0261
16394TIP3    H270598   4.980   6.478  10.411 -2.3227 -1.0630 -1.7604
16395TIP3   OH270599   3.801   4.131  16.733  0.9188 -0.0544 -0.6459
16395TIP3    H170600   3.707   4.136  16.717  0.7567  0.5318  0.4036
16395TIP3    H270601   3.810   4.066  16.802  1.0843  1.2208  0.5814
16396TIP3   OH270602   6.668   4.700   4.643 -0.1851 -0.5180  0.3646
16396TIP3    H170603   6.710   4.692   4.729  1.5516  0.6462 -0.3042
16396TIP3    H270604   6.630   4.788   4.642  0.6867 -0.1193 -0.3646
16397TIP3   OH270605   6.132   3.161   3.208  0.2548  0.2421 -0.6593
16397TIP3    H170606   6.168   3.238   3.166  1.9323 -0.7027 -1.0401
16397TIP3    H270607   6.206   3.100   3.216 -0.4237 -0.4071  1.8450
16398TIP3   OH270608   3.388   1.564   5.331 -0.4992  0.3726 -0.6255
16398TIP3    H170609   3.327   1.550   5.259  0.0436  0.0815 -1.0388
16398TIP3    H270610   3.420   1.653   5.319 -1.9701  1.0878  0.4759
16399TIP3   OH270611   5.976   1.700  16.888 -0.2083  0.3773  0.3293
16399TIP3    H170612   5.930   1.783  16.902 -0.5090  0.2043  0.3809
16399TIP3    H270613   5.965   1.682  16.795  0.1821  0.5842  0.2433
16400TIP3   OH270614   0.587   0.564  12.897 -0.0736 -0.5193  0.1036
16400TIP3    H170615   0.636   0.646  12.897  0.3648 -0.7277 -1.9769
16400TIP3    H270616   0.508   0.583  12.946  0.2269  1.0140  0.0370
16401TIP3   OH270617   2.041   0.930   5.732  0.4197 -0.4992 -0.0026
16401TIP3    H170618   2.079   0.999   5.785 -1.3934  0.5854 -0.0356
16401TIP3    H270619   2.104   0.915   5.662  1.5569 -0.0099  0.9010
16402TIP3   OH270620   2.842   5.459  15.991 -0.1309  0.2607 -0.2834
16402TIP3    H170621   2.750   5.483  16.004  0.0521  1.3669 -0.8648
16402TIP3    H270622   2.890   5.513  16.054  0.2308  0.8314 -1.0268
16403TIP3   OH270623   0.602   1.837   4.941 -0.2614  0.1389 -0.1445
16403TIP3    H170624   0.591   1.922   4.984 -1.6028 -0.4770  0.8596
16403TIP3    H270625   0.602   1.856   4.848 -1.9579  1.1438  0.0203
16404TIP3   OH270626   1.378   1.889  15.013 -0.2251 -0.4681 -0.3079
16404TIP3    H170627   1.425   1.972  15.025  1.0016 -1.1597 -0.1067
16404TIP3    H270628   1.445   1.822  15.028 -1.3023 -1.5025 -0.0057
16405TIP3   OH270629   3.543   0.344   5.894  0.1896 -1.0475  0.2437
16405TIP3    H170630   3.461   0.304   5.863  0.7087  0.0972 -2.9961
16405TIP3    H270631   3.612   0.290   5.856  0.8749  1.4709 -2.4173
16406TIP3   OH270632   1.914   4.492  14.248  0.6269 -0.7335  0.0288
16406TIP3    H170633   1.933   4.456  14.335 -0.8338  0.8853  1.0873
16406TIP3    H270634   1.893   4.415  14.195 -0.6081 -1.6462  1.7216
16407TIP3   OH270635   3.309   0.589   3.709 -0.2164  0.5475 -0.1001
16407TIP3    H170636   3.276   0.584   3.799 -0.1635  0.8809 -0.0623
16407TIP3    H270637   3.231   0.586   3.654 -0.2251 -0.1215 -0.0636
16408TIP3   OH270638   0.613   5.864  14.460  0.7565 -0.2193 -0.0932
16408TIP3    H170639   0.556   5.789  14.477  1.8414 -0.7120  1.6292
16408TIP3    H270640   0.594   5.889  14.370 -1.2192 -1.1759  0.0196
16409TIP3   OH270641   0.287   5.843   4.158  0.1627 -0.5377 -0.0689
16409TIP3    H170642   0.234   5.776   4.200  1.4615 -1.7026 -0.1949
16409TIP3    H270643   0.266   5.924   4.205 -0.9114 -1.1606  0.5593
16410TIP3   OH270644   6.345   5.226   1.955 -0.2921 -0.3849 -0.3790
16410TIP3    H170645   6.409   5.206   2.023 -1.2497 -1.2521  0.3002
16410TIP3    H270646   6.382   5.301   1.908  1.6458 -1.4292 -0.6047
16411TIP3   OH270647   2.466   6.092  16.078  0.0504 -0.2879 -0.4933
16411TIP3    H170648   2.480   6.036  16.154  0.4371 -1.6923 -1.5562
16411TIP3    H270649   2.526   6.058  16.011  1.8283  2.7046 -0.5783
16412TIP3   OH270650   2.876   2.195  12.582  0.1237  0.5885  0.3383
16412TIP3    H170651   2.816   2.123  12.600  0.6805 -0.3694 -1.3872
16412TIP3    H270652   2.824   2.259  12.534  0.2159  0.2153 -0.2698
16413TIP3   OH270653   4.075   4.959  16.624 -0.1725  0.2117  0.6902
16413TIP3    H170654   3.993   5.004  16.602  0.7185  0.7219 -1.8279
16413TIP3    H270655   4.047   4.884  16.678 -2.1355  1.0729  0.9499
16414TIP3   OH270656   1.888   6.691  12.168  0.1100 -0.4690 -0.4336
16414TIP3    H170657   1.955   6.702  12.236  1.2224 -0.6271 -1.4716
16414TIP3    H270658   1.838   6.772  12.170 -0.7065 -0.9532  1.4143
16415TIP3   OH270659   5.090   6.202  13.808 -0.4044  0.3673  0.1446
16415TIP3    H170660   5.041   6.139  13.860 -0.6511  0.2383 -0.2370
16415TIP3    H270661   5.059   6.287  13.837 -2.2682  0.2836 -1.3786
16416TIP3   OH270662   3.953   0.667  15.774  0.4172 -0.1214 -0.0856
16416TIP3    H170663   3.987   0.623  15.696 -0.2721  0.5240 -0.7688
16416TIP3    H270664   4.028   0.669  15.834  1.5916  1.2047 -1.5067
16417TIP3   OH270665   4.157   6.082  10.227 -0.5765 -0.0166 -0.5471
16417TIP3    H170666   4.117   6.020  10.289 -1.0654 -0.9865 -1.7938
16417TIP3    H270667   4.152   6.167  10.272 -0.9210 -0.6917  0.7360
16418TIP3   OH270668   1.900   2.660  14.975  0.3644  0.6346 -0.2919
16418TIP3    H170669   1.897   2.729  15.042 -2.5004 -0.3893  0.7809
16418TIP3    H270670   1.928   2.582  15.022 -4.3284 -0.7870  0.6808
16419TIP3   OH270671   1.562   2.947   1.666 -0.8068 -0.6199 -0.6683
16419TIP3    H170672   1.624   2.909   1.604 -0.3237 -0.0487 -0.5426
16419TIP3    H270673   1.481   2.958   1.616 -0.4468 -0.2468 -1.1769
16420TIP3   OH270674   3.577   4.525  12.751  0.1307 -0.3812  0.8504
16420TIP3    H170675   3.510   4.593  12.741 -1.3244 -2.0133 -1.4692
16420TIP3    H270676   3.614   4.514  12.663  1.3651 -1.5739  1.4862
16421TIP3   OH270677   1.240   3.970  12.777  0.0644 -0.1920  0.0460
16421TIP3    H170678   1.249   4.063  12.759  1.6705  0.0892  2.0151
16421TIP3    H270679   1.316   3.930  12.735 -0.3542 -0.5750 -0.3646
16422TIP3   OH270680   5.750   2.383   3.181  0.0641 -0.2974  0.2663
16422TIP3    H170681   5.704   2.386   3.265 -1.3273 -0.6343 -0.4475
16422TIP3    H270682   5.816   2.314   3.192 -1.3342 -1.6533  0.5141
16423TIP3   OH270683   6.343   2.520  15.554  0.8671 -1.0528  0.3531
16423TIP3    H170684   6.389   2.599  15.583  3.0970 -1.6413 -1.2458
16423TIP3    H270685   6.292   2.493  15.630 -0.3049  2.0860  0.8354
16424TIP3   OH270686   1.275   2.627   3.814  0.4829  0.9270 -0.4289
16424TIP3    H170687   1.309   2.568   3.747 -1.7824 -1.7915  0.5788
16424TIP3    H270688   1.350   2.647   3.870  1.2500 -1.7093 -0.3873
16425TIP3   OH270689   3.033   0.291   4.411  0.1748 -0.8338 -0.0395
16425TIP3    H170690   2.970   0.353   4.446  0.0212  0.0352 -1.7304
16425TIP3    H270691   3.116   0.340   4.409 -0.0160 -0.5083 -1.6888
16426TIP3   OH270692   1.900   1.310   0.273  0.1555  0.1340  0.1832
16426TIP3    H170693   1.847   1.387   0.291  0.2431  0.5988 -1.3564
16426TIP3    H270694   1.989   1.335   0.298  0.3228  0.8570 -1.0262
16427TIP3   OH270695   4.118   0.266   2.476  0.3982 -0.6090 -0.0956
16427TIP3    H170696   4.096   0.318   2.398 -1.4306 -0.9863  0.1173
16427TIP3    H270697   4.086   0.178   2.456 -1.4797 -0.3895  1.6002
16428TIP3   OH270698   0.059   0.950  13.604  0.7855  0.6382  0.8049
16428TIP3    H170699   0.005   0.873  13.619  0.9670 -0.4349 -2.8809
16428TIP3    H270700   0.146   0.925  13.634  0.5605 -0.1269  0.8392
16429TIP3   OH270701   0.042   2.966   0.459 -0.0243  0.0292  0.4005
16429TIP3    H170702  -0.039   2.918   0.441  0.4284 -0.1152 -1.5540
16429TIP3    H270703   0.110   2.898   0.462  0.3751  0.3538 -0.6584
16430TIP3   OH270704   1.710   6.586  16.691 -0.3687  0.3991  0.1185
16430TIP3    H170705   1.689   6.569  16.783  0.8999  2.2380  0.7957
16430TIP3    H270706   1.696   6.680  16.680  2.3134  0.7732 -0.7632
16431TIP3   OH270707   3.353   2.973  12.637 -0.6464  0.0692  0.1895
16431TIP3    H170708   3.368   2.903  12.574  0.2081 -0.2641  0.7426
16431TIP3    H270709   3.339   3.051  12.584  0.8240 -0.0505 -0.4006
16432TIP3   OH270710   2.006   4.161   0.821 -0.2917  0.0875 -0.4055
16432TIP3    H170711   1.976   4.251   0.830  0.5655  0.2416  1.2395
16432TIP3    H270712   2.084   4.167   0.766  0.6803  0.5959  0.9687
16433TIP3   OH270713   2.176   5.889  17.205 -0.0323 -0.4160 -0.1529
16433TIP3    H170714   2.105   5.895  17.270 -0.3475 -0.9133 -0.4435
16433TIP3    H270715   2.256   5.905  17.255 -0.3698  0.4637  0.1209
16434TIP3   OH270716   5.953   3.408  16.479  0.6242 -0.0841 -0.1395
16434TIP3    H170717   5.917   3.354  16.409  0.4985  2.0655 -1.8201
16434TIP3    H270718   5.970   3.493  16.438  0.7345  1.2078  2.3837
16435TIP3   OH270719   1.968   0.239  14.534  0.3250  0.1154  0.1747
16435TIP3    H170720   1.942   0.273  14.619  0.0100  4.4461 -1.4014
16435TIP3    H270721   1.886   0.221  14.489  0.4397 -0.0354  0.0232
16436TIP3   OH270722   1.198   0.409  12.379  0.3303  0.4697 -0.2285
16436TIP3    H170723   1.215   0.484  12.322  0.0669  1.5365  1.0407
16436TIP3    H270724   1.112   0.428  12.417  0.2301 -0.5202  0.0628
16437TIP3   OH270725   6.271   0.938   6.070 -0.4642 -0.7736  0.4607
16437TIP3    H170726   6.279   0.949   6.165  3.8448  3.2833 -0.0005
16437TIP3    H270727   6.336   0.871   6.049 -1.8871 -2.1600  0.3188
16438TIP3   OH270728   3.988   0.209  12.129 -0.2392 -0.0166  0.0755
16438TIP3    H170729   3.980   0.302  12.151 -1.0255 -0.0382 -0.0949
16438TIP3    H270730   4.016   0.167  12.210  0.7900  0.4607 -0.0218
16439TIP3   OH270731   0.578   0.372   0.286 -0.3674  0.0417 -0.2310
16439TIP3    H170732   0.645   0.380   0.218 -0.2976 -0.2762 -0.2040
16439TIP3    H270733   0.503   0.333   0.242 -0.6584  0.7097 -0.3367
16440TIP3   OH270734   1.497   4.147   5.270  0.3454  0.5211  0.2336
16440TIP3    H170735   1.569   4.113   5.322  0.2082  2.0008  1.4737
16440TIP3    H270736   1.436   4.183   5.334  0.1262  2.3358 -0.9094
16441TIP3   OH270737   2.128   0.995  14.330  0.3065  0.0341  0.1775
16441TIP3    H170738   2.122   1.090  14.331 -0.8614 -0.0230  0.5444
16441TIP3    H270739   2.194   0.975  14.264 -1.4751  1.0305 -2.0372
16442TIP3   OH270740   5.777   1.511  12.139  0.3490  0.3941 -0.0627
16442TIP3    H170741   5.817   1.597  12.124 -0.0671  0.4163 -1.1963
16442TIP3    H270742   5.836   1.467  12.199  1.2332  1.0081 -0.4585
16443TIP3   OH270743   3.789   4.547  13.638  0.4359 -0.3225 -0.3954
16443TIP3    H170744   3.694   4.547  13.626  0.6341  1.1735 -2.4945
16443TIP3    H270745   3.815   4.456  13.625 -0.7385 -0.8231  0.6289
16444TIP3   OH270746   2.390   1.803   3.839 -0.8347  0.0745 -0.5869
16444TIP3    H170747   2.421   1.804   3.929 -1.7098 -2.1540 -0.1878
16444TIP3    H270748   2.439   1.731   3.798 -1.1177  0.4594 -1.6295
16445TIP3   OH270749   1.523   3.779   1.768 -0.7553 -0.0413  0.4666
16445TIP3    H170750   1.542   3.693   1.731 -0.9316  0.2025 -0.2020
16445TIP3    H270751   1.577   3.839   1.718 -0.4138  0.2135  1.1265
16446TIP3   OH270752   6.677   6.569  12.729  0.2280  0.1651 -0.4919
16446TIP3    H170753   6.694   6.488  12.680 -1.5902 -0.6515  0.1494
16446TIP3    H270754   6.591   6.598  12.698  1.3270  2.5653 -1.5864
16447TIP3   OH270755   2.325   6.282   4.249  0.2310  0.3742  1.0703
16447TIP3    H170756   2.419   6.280   4.265  0.3357  1.0690  0.5642
16447TIP3    H270757   2.311   6.221   4.176  0.2412  0.0187  1.3636
16448TIP3   OH270758   3.390   2.527   3.452 -0.1109  0.3244 -0.5635
16448TIP3    H170759   3.354   2.603   3.405 -3.3071  0.6516  2.0747
16448TIP3    H270760   3.317   2.465   3.456  0.8386 -0.7574  1.6462
16449TIP3   OH270761   3.192   0.697   6.616 -0.0107  0.1019  0.1311
16449TIP3    H170762   3.206   0.791   6.604 -2.2367  0.3681 -0.8235
16449TIP3    H270763   3.253   0.656   6.554 -0.7555  1.0364 -1.2888
16450TIP3   OH270764   4.921   3.645   1.162 -0.5398 -0.3508 -0.4809
16450TIP3    H170765   4.855   3.624   1.229 -0.2638 -1.2799 -0.5002
16450TIP3    H270766   4.871   3.649   1.080 -0.8904  0.8473 -0.2341
16451TIP3   OH270767   3.630   6.501   2.535  0.0272  0.0527 -0.6437
16451TIP3    H170768   3.563   6.433   2.529 -0.4588  0.5337 -0.6336
16451TIP3    H270769   3.712   6.452   2.547 -0.2648 -0.5445 -1.0555
16452TIP3   OH270770   5.428   1.544   0.611  0.2646 -0.0524 -0.4520
16452TIP3    H170771   5.436   1.497   0.528 -1.3003 -0.8683 -0.1852
16452TIP3    H270772   5.358   1.608   0.595  2.6089  2.5683 -0.9371
16453TIP3   OH270773   6.742   5.858  14.106 -0.4149  0.4457 -0.0135
16453TIP3    H170774   6.744   5.762  14.097 -0.7277  0.5745 -1.8108
16453TIP3    H270775   6.657   5.884  14.071 -0.4173  1.3788  0.6470
16454TIP3   OH270776   4.682   4.517   5.090 -0.3260 -0.4164  0.2456
16454TIP3    H170777   4.611   4.541   5.031 -0.1910  1.1169  0.6660
16454TIP3    H270778   4.663   4.563   5.172 -0.2115 -2.0585  1.2599
16455TIP3   OH270779   2.427   6.329  16.699  0.3735  0.2288 -0.0580
16455TIP3    H170780   2.414   6.321  16.793 -0.8651 -0.9983 -0.2936
16455TIP3    H270781   2.384   6.412  16.675  0.7825  0.5927  0.4514
16456TIP3   OH270782   2.835   4.469  13.514 -0.4539  0.2543 -0.4192
16456TIP3    H170783   2.761   4.478  13.574  1.5367 -1.8291  2.6158
16456TIP3    H270784   2.885   4.550  13.525 -1.6041  1.1783 -1.6441
16457TIP3   OH270785   1.842   6.168  11.638 -0.2970 -0.4070 -0.4411
16457TIP3    H170786   1.807   6.226  11.569  2.0308  0.0762 -1.3135
16457TIP3    H270787   1.789   6.188  11.715 -0.2162  2.2338 -0.9716
16458TIP3   OH270788   5.928   2.128   4.608 -0.4571 -0.2920 -0.5279
16458TIP3    H170789   5.910   2.040   4.574  0.6298 -0.5805 -0.4071
16458TIP3    H270790   6.017   2.147   4.579 -0.0501  0.0731  0.8778
16459TIP3   OH270791   0.998   6.141  15.147 -0.4924  0.3480  0.5988
16459TIP3    H170792   1.094   6.137  15.150 -0.2613 -0.8275 -3.0358
16459TIP3    H270793   0.970   6.059  15.187  0.0314  0.4952  1.2911
16460TIP3   OH270794   3.527   1.176  17.064 -0.4208 -0.7531 -0.0482
16460TIP3    H170795   3.462   1.201  16.999 -0.0521 -0.1090 -0.1709
16460TIP3    H270796   3.608   1.219  17.036 -0.7949  1.6476  2.1811
16461TIP3   OH270797   5.091   3.372   6.516 -0.0404  0.5761  0.0917
16461TIP3    H170798   5.105   3.335   6.429 -3.1205  0.1258 -0.3259
16461TIP3    H270799   5.052   3.301   6.566  0.1114  1.3371  1.3219
16462TIP3   OH270800   5.354   2.446  15.752 -0.3477 -0.3159  0.4551
16462TIP3    H170801   5.269   2.463  15.793 -1.5522 -1.7149 -1.3046
16462TIP3    H270802   5.382   2.531  15.718 -1.6432 -0.0513  0.0031
16463TIP3   OH270803   3.474   1.411   4.038  0.1533 -0.1277 -0.4127
16463TIP3    H170804   3.430   1.327   4.025 -0.5816  0.4240 -1.7268
16463TIP3    H270805   3.514   1.430   3.953 -1.1522  1.6459 -0.7026
16464TIP3   OH270806   4.745   2.061  13.689 -0.5029 -0.3176 -0.0346
16464TIP3    H170807   4.768   2.154  13.693 -0.2419 -0.3833 -0.0237
16464TIP3    H270808   4.738   2.042  13.596 -1.3498 -0.0910 -0.0236
16465TIP3   OH270809   1.470   2.726   5.547 -0.1851 -1.1412  0.3278
16465TIP3    H170810   1.530   2.755   5.616  0.7347 -3.0521  0.4060
16465TIP3    H270811   1.392   2.697   5.594 -0.9426  0.6626  0.2756
16466TIP3   OH270812   3.486   5.177   5.213 -0.8468 -0.1718 -0.3119
16466TIP3    H170813   3.545   5.120   5.262  0.7376  0.4150 -1.4201
16466TIP3    H270814   3.541   5.213   5.143 -2.1818  1.5373 -0.5458
16467TIP3   OH270815   5.388   5.558  10.864  0.0827  0.2694  0.5556
16467TIP3    H170816   5.466   5.603  10.832  1.1621 -2.0287 -0.2400
16467TIP3    H270817   5.321   5.573  10.797  0.4619  0.5460  0.2388
16468TIP3   OH270818   6.149   3.251  13.837 -0.5313 -0.0519  0.3528
16468TIP3    H170819   6.191   3.334  13.857 -2.1396  1.1579 -1.0667
16468TIP3    H270820   6.058   3.273  13.818 -0.6233 -1.9089 -1.7693
16469TIP3   OH270821   1.217   0.548  16.012  0.2405  0.0547  0.3588
16469TIP3    H170822   1.265   0.629  16.027 -2.4627  1.6679  0.7782
16469TIP3    H270823   1.191   0.552  15.920 -0.2603 -0.1282  0.4886
16470TIP3   OH270824   1.659   4.168   2.331  0.5439  0.0305 -0.2938
16470TIP3    H170825   1.675   4.112   2.406 -0.6072  0.8445  0.6039
16470TIP3    H270826   1.740   4.219   2.322  0.5443  0.2236  0.6709
16471TIP3   OH270827   6.553   4.751   3.375 -0.2969  0.0504 -0.2536
16471TIP3    H170828   6.484   4.694   3.342 -1.3609  1.0864  0.0933
16471TIP3    H270829   6.514   4.794   3.451  0.8337  0.4620  0.1172
16472TIP3   OH270830   2.175   5.308  11.497  0.1705  0.0523  0.2359
16472TIP3    H170831   2.254   5.280  11.542  0.4218  0.8542  0.3130
16472TIP3    H270832   2.206   5.351  11.417 -0.0364  2.1605  1.2132
16473TIP3   OH270833   5.394   0.671   1.596  0.4733 -0.3834  0.2070
16473TIP3    H170834   5.351   0.587   1.581  0.9155 -0.4687 -0.6911
16473TIP3    H270835   5.485   0.655   1.570  0.6291  0.2879  0.3410
16474TIP3   OH270836   6.260   1.772  13.769 -0.4529  0.1893 -0.0287
16474TIP3    H170837   6.316   1.702  13.804  1.3891  0.9028 -1.3661
16474TIP3    H270838   6.312   1.810  13.698 -1.3524  2.9606  0.6919
16475TIP3   OH270839   3.395   2.901  16.418  0.3462  0.2881 -0.8670
16475TIP3    H170840   3.451   2.949  16.358  1.2892 -0.5620 -0.6869
16475TIP3    H270841   3.442   2.903  16.502 -1.0691  1.6954 -0.0468
16476TIP3   OH270842   3.662   2.169  11.646  0.3636 -0.4040  0.6858
16476TIP3    H170843   3.655   2.262  11.667 -0.8929 -0.6348  1.4277
16476TIP3    H270844   3.624   2.160  11.559  2.6454  0.0882 -0.4286
16477TIP3   OH270845   3.549   1.958   3.788 -0.5104 -0.1319 -0.0764
16477TIP3    H170846   3.490   1.907   3.732 -1.2888  1.0309 -0.3478
16477TIP3    H270847   3.556   1.906   3.868  0.0739 -1.4805 -0.9694
16478TIP3   OH270848   0.248   0.418   5.669  0.0216  0.1433  0.6258
16478TIP3    H170849   0.262   0.509   5.696 -0.2702  0.1079  0.8985
16478TIP3    H270850   0.239   0.422   5.574  3.4914  0.0024  0.1466
16479TIP3   OH270851   6.456   0.907   6.577  0.4978 -0.3597  0.5278
16479TIP3    H170852   6.540   0.868   6.601 -0.7533 -3.5460  0.2263
16479TIP3    H270853   6.428   0.954   6.656  2.5302  0.8310  0.6036
16480TIP3   OH270854   2.742   5.120   5.268 -0.7302 -0.0302  0.3109
16480TIP3    H170855   2.677   5.067   5.222 -0.0084 -0.0099 -0.7794
16480TIP3    H270856   2.706   5.209   5.266  0.0461  0.3023 -1.7974
16481TIP3   OH270857   2.716   3.759  13.278  0.5815 -0.1293  0.1829
16481TIP3    H170858   2.773   3.721  13.346 -0.4556 -0.0317  1.1358
16481TIP3    H270859   2.731   3.704  13.201  2.1868  0.0794  0.3033
16482TIP3   OH270860   5.405   3.089   0.405  0.2758  0.1191 -0.8319
16482TIP3    H170861   5.335   3.121   0.348 -0.1292 -0.0285 -0.4193
16482TIP3    H270862   5.389   2.995   0.412 -0.7814  0.4098  1.0272
16483TIP3   OH270863   4.778   6.340  10.588  0.2760 -0.0103  0.2858
16483TIP3    H170864   4.836   6.414  10.567  1.4419 -0.4428  1.8106
16483TIP3    H270865   4.708   6.379  10.641 -0.6497  0.4459 -1.2297
16484TIP3   OH270866   1.174   5.262   2.309  0.1432  0.0642  0.1091
16484TIP3    H170867   1.237   5.202   2.349 -2.0322 -1.7795  1.0101
16484TIP3    H270868   1.211   5.349   2.323  3.3161 -0.9639 -1.0021
16485TIP3   OH270869   4.481   1.061   3.652 -0.1115 -0.2174 -0.2040
16485TIP3    H170870   4.545   1.018   3.595  2.0131 -1.0433  2.6057
16485TIP3    H270871   4.527   1.140   3.683 -0.7962 -0.3300  1.1376
16486TIP3   OH270872   4.995   3.574  15.972  0.2654  0.6263 -0.0389
16486TIP3    H170873   4.998   3.482  16.000 -1.3222  0.6277  0.2507
16486TIP3    H270874   5.073   3.585  15.917  0.3212 -0.9715 -0.3350
16487TIP3   OH270875   3.077   5.848  11.481  0.0237 -0.0286  0.3346
16487TIP3    H170876   3.055   5.889  11.397 -1.3263 -0.4466  0.4544
16487TIP3    H270877   3.167   5.817  11.470  0.4945  1.5016 -0.3220
16488TIP3   OH270878   2.314   6.113   1.291  0.1469 -0.1089  0.2726
16488TIP3    H170879   2.395   6.064   1.299  0.7085  0.3515 -1.9980
16488TIP3    H270880   2.293   6.110   1.198 -2.1890  0.2096  0.7278
16489TIP3   OH270881   0.631   0.180  12.236  0.3666 -0.1588  0.1677
16489TIP3    H170882   0.607   0.253  12.293  0.5708 -0.2098  0.3187
16489TIP3    H270883   0.726   0.184  12.231  0.4671 -1.1210  1.1096
16490TIP3   OH270884   6.172   0.913   4.049  0.3568  0.8386 -0.0627
16490TIP3    H170885   6.159   0.974   4.121  2.3934  0.3425  0.8117
16490TIP3    H270886   6.259   0.935   4.015  1.2021 -1.5782  0.3366
16491TIP3   OH270887   1.038   6.646  16.699 -0.1262  0.5241  0.0792
16491TIP3    H170888   1.071   6.734  16.682 -1.7862  0.9920 -0.9458
16491TIP3    H270889   1.057   6.631  16.792 -1.1811  2.5866  0.6989
16492TIP3   OH270890   2.506   3.759   4.036  0.2424 -0.0536 -0.7271
16492TIP3    H170891   2.564   3.753   4.113 -0.4606  1.5908 -0.0364
16492TIP3    H270892   2.547   3.825   3.980 -0.2341  0.1046 -0.8909
16493TIP3   OH270893   1.860   0.788  16.715  0.1568 -0.0526  0.4036
16493TIP3    H170894   1.824   0.703  16.740 -1.8844  0.9422  1.0770
16493TIP3    H270895   1.875   0.832  16.799  0.1750  0.6414  0.0358
16494TIP3   OH270896   0.847   2.690  14.044  0.3178  0.4318  0.0071
16494TIP3    H170897   0.870   2.731  14.127  4.5386 -3.8407  1.4132
16494TIP3    H270898   0.907   2.729  13.980 -0.3700  1.1125 -0.2366
16495TIP3   OH270899   2.308   5.531   5.681 -0.4226 -0.4156 -0.3936
16495TIP3    H170900   2.258   5.465   5.633 -1.6188  0.3099 -0.1886
16495TIP3    H270901   2.249   5.560   5.750  0.6055 -0.1304  0.3972
16496TIP3   OH270902   6.359   2.772  12.005  0.5449  0.0807 -0.2060
16496TIP3    H170903   6.451   2.786  12.030  0.3306  1.6736 -0.1994
16496TIP3    H270904   6.356   2.794  11.912 -0.2151  2.1994  0.2694
16497TIP3   OH270905   0.920   6.669  15.215 -0.0618 -0.1976  0.1392
16497TIP3    H170906   0.965   6.713  15.287  0.8851 -0.3137 -0.3639
16497TIP3    H270907   0.967   6.586  15.205 -0.9965 -0.7452  0.2235
16498TIP3   OH270908   5.158   0.120   1.798 -0.2152  0.1861 -0.2912
16498TIP3    H170909   5.168   0.030   1.765  1.0752 -0.0472  0.6569
16498TIP3    H270910   5.069   0.145   1.772 -0.0124 -0.7494 -2.0176
16499TIP3   OH270911   0.578   6.251  13.280  0.7142  1.2581 -0.5162
16499TIP3    H170912   0.519   6.226  13.351 -0.5622  1.4907 -1.4758
16499TIP3    H270913   0.560   6.188  13.210 -1.0609  3.4460 -2.1888
16500TIP3   OH270914   0.082   1.742   2.202  0.0327 -0.1197  0.1004
16500TIP3    H170915   0.131   1.798   2.142 -0.7502 -0.7876 -1.1845
16500TIP3    H270916   0.150   1.692   2.248  0.6896  1.1400  0.5699
16501TIP3   OH270917   3.202   1.783  16.097  0.5971 -0.2694 -0.1012
16501TIP3    H170918   3.141   1.737  16.155  0.2703 -0.0859 -0.2905
16501TIP3    H270919   3.208   1.727  16.020  0.2289 -0.0160 -0.3160
16502TIP3   OH270920   4.911   1.332   1.459 -0.1507 -0.6016  0.0598
16502TIP3    H170921   5.005   1.319   1.448 -0.1915 -0.9937  0.1415
16502TIP3    H270922   4.895   1.310   1.551  0.0393  1.6750  0.6886
16503TIP3   OH270923   3.234   2.085  15.849  0.3715 -0.0736  0.7319
16503TIP3    H170924   3.140   2.093  15.834  0.5187 -0.6190 -0.7018
16503TIP3    H270925   3.258   2.002  15.807  1.8773  1.2802 -1.2978
16504TIP3   OH270926   0.163   2.985  15.922 -0.7057 -0.0092 -0.4309
16504TIP3    H170927   0.110   3.043  15.869 -1.8150 -1.3130 -0.8080
16504TIP3    H270928   0.252   2.997  15.890 -0.9936  1.0720 -0.8571
16505TIP3   OH270929   3.481   0.769   3.034  0.2393  0.0962  0.4114
16505TIP3    H170930   3.401   0.809   3.067 -1.0724 -2.5902  0.6862
16505TIP3    H270931   3.493   0.690   3.087  0.9336 -1.5914 -2.0839
16506TIP3   OH270932   4.066   4.689   4.798  0.0297  0.3715  0.0865
16506TIP3    H170933   4.083   4.620   4.862 -1.8016 -0.7619 -0.5537
16506TIP3    H270934   4.062   4.769   4.849 -0.4049 -0.3621  1.2541
16507TIP3   OH270935   3.495   4.493  12.158  0.4165 -0.0729 -0.1921
16507TIP3    H170936   3.455   4.489  12.071  0.8758  0.0929 -0.4155
16507TIP3    H270937   3.441   4.435  12.212  0.8727 -1.1737 -0.8889
16508TIP3   OH270938   1.671   4.295  16.419 -0.1350  0.0898 -0.7920
16508TIP3    H170939   1.620   4.371  16.390  0.1834  1.3141  1.6021
16508TIP3    H270940   1.610   4.243  16.471  0.3796  0.2784  0.0277
16509TIP3   OH270941   1.425   0.495   4.966 -0.2708  1.0663 -0.1165
16509TIP3    H170942   1.456   0.579   5.000 -0.2476  0.4763  1.3934
16509TIP3    H270943   1.350   0.473   5.021 -0.9783  0.6129 -1.2196
16510TIP3   OH270944   6.528   1.063  12.906 -0.6311 -0.2536 -0.2447
16510TIP3    H170945   6.619   1.090  12.893 -1.3262  1.7042 -1.4994
16510TIP3    H270946   6.507   1.012  12.828 -0.9085  0.2330 -0.4958
16511TIP3   OH270947   4.350   2.161  11.991  0.2032 -0.2806  0.5534
16511TIP3    H170948   4.416   2.228  12.010  0.6133 -0.6886  0.6007
16511TIP3    H270949   4.359   2.098  12.062  0.0317 -0.5423  0.3444
16512TIP3   OH270950   3.457   0.683   3.990 -0.2687 -0.0124  0.0891
16512TIP3    H170951   3.526   0.656   3.929  1.0725  1.4091  0.9024
16512TIP3    H270952   3.504   0.717   4.066 -1.8812  0.5467  0.8877
16513TIP3   OH270953   4.901   3.917   1.278 -0.3694  0.0535  0.0459
16513TIP3    H170954   4.947   3.841   1.241  0.6524  0.4318  0.5087
16513TIP3    H270955   4.821   3.924   1.225 -0.2534 -1.0552 -0.3105
16514TIP3   OH270956   4.103   3.566   5.903 -0.2442  0.3886 -0.6738
16514TIP3    H170957   4.091   3.651   5.945 -0.0258 -0.8416  2.1145
16514TIP3    H270958   4.137   3.509   5.973 -0.9216 -2.1387 -2.2465
16515TIP3   OH270959   4.564   1.365  15.720  0.4328  0.3157 -0.3350
16515TIP3    H170960   4.540   1.439  15.663  0.7441  0.8520  0.2163
16515TIP3    H270961   4.612   1.305  15.663  1.5291  1.2633 -0.4503
16516TIP3   OH270962   1.467   4.445   2.116 -0.2472 -0.1943 -0.2950
16516TIP3    H170963   1.531   4.388   2.073 -0.8948  0.3817 -2.1496
16516TIP3    H270964   1.458   4.520   2.057 -1.5139  0.4581  0.6625
16517TIP3   OH270965   1.553   1.478  11.870 -0.1432 -0.2881  0.1667
16517TIP3    H170966   1.575   1.568  11.896 -1.0460 -0.5795  2.1273
16517TIP3    H270967   1.509   1.441  11.947  1.6184 -2.9419  0.0517
16518TIP3   OH270968   6.114   0.342   2.573 -0.3387 -0.0003  0.5421
16518TIP3    H170969   6.108   0.255   2.613 -1.6387 -0.1064  0.1617
16518TIP3    H270970   6.203   0.346   2.540  0.0731 -0.7706  1.4934
16519TIP3   OH270971   1.936   3.283   0.182  0.2485 -0.2321  0.1704
16519TIP3    H170972   1.872   3.344   0.145  0.7932 -0.5973 -1.4289
16519TIP3    H270973   1.919   3.285   0.276 -2.4511 -0.7078 -0.2460
16520TIP3   OH270974   1.103   5.293  15.985  0.5017  0.3011  0.3909
16520TIP3    H170975   1.104   5.211  15.935  0.7305  0.5234  0.0246
16520TIP3    H270976   1.125   5.360  15.921 -2.8047  1.1025 -0.0610
16521TIP3   OH270977   3.212   3.353   0.590 -0.3377 -0.4287  0.2591
16521TIP3    H170978   3.167   3.303   0.659 -0.5907  0.2716  0.6065
16521TIP3    H270979   3.225   3.289   0.519 -0.0671 -1.1583  0.9531
16522TIP3   OH270980   5.699   0.039  14.910 -0.4055 -0.2976 -0.4186
16522TIP3    H170981   5.657   0.026  14.824  0.1605 -0.9744 -0.6021
16522TIP3    H270982   5.790   0.012  14.897  0.2271  1.5616 -0.1372
16523TIP3   OH270983   5.415   5.892   3.718  0.6912 -0.0697  0.1218
16523TIP3    H170984   5.441   5.977   3.754 -0.7780  1.1268 -1.4577
16523TIP3    H270985   5.459   5.888   3.633 -1.6232  0.5489 -1.1664
16524TIP3   OH270986   1.961   5.599   1.114  0.2341 -0.0649  0.4064
16524TIP3    H170987   1.959   5.562   1.202  0.8213  0.7268  0.7609
16524TIP3    H270988   1.898   5.670   1.116 -0.4090 -0.6058 -0.0842
16525TIP3   OH270989   3.292   5.509  13.389 -0.2398 -0.4382  0.2005
16525TIP3    H170990   3.291   5.460  13.307 -1.5235 -0.2954  0.1143
16525TIP3    H270991   3.355   5.580  13.373  0.5407 -1.1933 -0.1727
16526TIP3   OH270992   0.942   1.383  13.238  0.4270 -0.4954 -0.2994
16526TIP3    H170993   0.992   1.450  13.286 -1.2127  1.0393 -0.6425
16526TIP3    H270994   0.992   1.370  13.157  0.9343  0.0826 -0.0933
16527TIP3   OH270995   3.955   1.315   0.409  0.2171  0.2522  0.0542
16527TIP3    H170996   4.036   1.270   0.387 -1.1995 -2.1930 -0.5231
16527TIP3    H270997   3.957   1.322   0.504  0.2407 -1.6360  0.2296
16528TIP3   OH270998   2.497   4.578   0.942 -0.0787  0.3929 -0.4132
16528TIP3    H170999   2.518   4.661   0.900  3.1704 -0.6894 -1.2705
16528TIP3    H271000   2.528   4.512   0.880  1.5064 -1.3476  2.0292
16529TIP3   OH271001   4.351   6.155   2.628  0.2443 -0.3157 -0.1631
16529TIP3    H171002   4.367   6.168   2.722  1.7703 -1.8991 -0.1513
16529TIP3    H271003   4.410   6.217   2.585  0.2380 -0.2559 -0.0872
16530TIP3   OH271004   6.496   1.403   0.906  0.0622 -0.1544 -0.0546
16530TIP3    H171005   6.478   1.497   0.910  1.7262  0.2477 -1.1423
16530TIP3    H271006   6.483   1.379   0.814 -0.8721 -1.1227  0.3058
16531TIP3   OH271007   0.208   1.343  12.856 -0.2902  0.2493 -0.2243
16531TIP3    H171008   0.197   1.379  12.768 -0.6218 -0.0195 -0.2973
16531TIP3    H271009   0.272   1.400  12.898 -0.7908  0.9166 -0.3417
16532TIP3   OH271010   2.922   1.340  14.964  0.1127  0.7833  0.0686
16532TIP3    H171011   3.014   1.363  14.980 -0.1613  1.1314  1.2492
16532TIP3    H271012   2.925   1.279  14.891  1.1891  1.6486 -0.6373
16533TIP3   OH271013   6.111   5.058   2.628 -1.0761  0.4120  0.0530
16533TIP3    H171014   6.068   5.137   2.596 -1.6783 -0.0577 -0.3223
16533TIP3    H271015   6.203   5.069   2.602 -0.9492  1.4161  0.8613
16534TIP3   OH271016   5.720   1.201   0.450 -0.2407 -0.2531 -0.3709
16534TIP3    H171017   5.676   1.187   0.534 -0.5613  1.0200 -0.3058
16534TIP3    H271018   5.705   1.120   0.402 -1.1977 -0.4974  0.3012
16535TIP3   OH271019   4.292   3.466  16.220  0.3132  0.2166  0.0771
16535TIP3    H171020   4.384   3.439  16.228  0.1529  0.1361  1.9594
16535TIP3    H271021   4.248   3.390  16.183  0.6497 -0.5235  1.1504
16536TIP3   OH271022   1.734   5.929   4.688  0.1467  0.4724  0.1507
16536TIP3    H171023   1.666   5.918   4.755 -0.3648 -0.0248 -0.4438
16536TIP3    H271024   1.707   5.871   4.617  0.4840  1.2945 -0.6507
16537TIP3   OH271025   0.903   6.322  12.043  0.1461 -0.4136 -0.6808
16537TIP3    H171026   0.812   6.300  12.063  0.1387 -0.6950 -1.0249
16537TIP3    H271027   0.925   6.269  11.967  1.0497 -1.4201  0.2462
16538TIP3   OH271028   0.252   2.190  12.449 -0.0841 -1.0883  0.2476
16538TIP3    H171029   0.224   2.254  12.516  2.5320  0.7628 -0.2690
16538TIP3    H271030   0.307   2.128  12.497  1.6269  0.1229 -0.0732
16539TIP3   OH271031   6.402   3.512  13.636 -0.1615  0.1846  0.1302
16539TIP3    H171032   6.430   3.450  13.703  2.5739  0.9447 -0.1925
16539TIP3    H271033   6.367   3.457  13.566 -1.3228 -0.7208  1.3615
16540TIP3   OH271034   0.007   4.659  10.505 -0.2355  0.4937 -0.4976
16540TIP3    H171035   0.055   4.584  10.470 -0.9311  0.1576 -0.7430
16540TIP3    H271036  -0.040   4.625  10.581  1.1016  1.1740  0.6850
16541TIP3   OH271037   5.009   6.537  12.378  0.7701  0.6497 -0.4022
16541TIP3    H171038   5.018   6.536  12.473  2.6672 -0.3753 -0.5327
16541TIP3    H271039   4.926   6.492  12.361  2.0308 -2.4207  0.7107
16542TIP3   OH271040   3.928   0.400  11.838 -0.6639  0.1371 -0.0487
16542TIP3    H171041   3.963   0.319  11.874 -2.5913 -0.6327  0.1812
16542TIP3    H271042   3.968   0.469  11.891  0.3948 -0.6831  0.2553
16543TIP3   OH271043   0.468   0.760  11.855  0.4152  0.2102  0.2749
16543TIP3    H171044   0.548   0.708  11.844 -0.5873 -1.1040 -1.3136
16543TIP3    H271045   0.398   0.695  11.862 -1.0322  1.2523 -2.7759
16544TIP3   OH271046   4.285   6.583  10.805 -0.4865 -0.3846 -0.3685
16544TIP3    H171047   4.289   6.675  10.777  2.7381 -1.2803 -3.5599
16544TIP3    H271048   4.206   6.549  10.763 -0.1787  0.2979 -1.5312
16545TIP3   OH271049   3.363   0.843   2.386 -1.0587  0.2257 -0.0032
16545TIP3    H171050   3.348   0.836   2.291  2.2254 -0.9237 -0.5994
16545TIP3    H271051   3.355   0.936   2.405  0.1986  0.7891 -1.9039
16546TIP3   OH271052   4.332   5.925  16.927 -0.2393 -0.1000  0.0012
16546TIP3    H171053   4.279   5.866  16.874 -0.1026  0.2371 -0.5199
16546TIP3    H271054   4.288   6.009  16.921  0.2493  0.1416 -0.2861
16547TIP3   OH271055   3.433   0.506  13.039  0.0323  0.7090 -0.5286
16547TIP3    H171056   3.423   0.520  12.945 -2.3542  0.9296 -0.2837
16547TIP3    H271057   3.445   0.594  13.075 -0.4927  0.7556 -0.4716
16548TIP3   OH271058   5.182   5.566  16.692 -0.1113 -0.9702 -0.3989
16548TIP3    H171059   5.104   5.591  16.642  0.2388  0.8943 -0.0938
16548TIP3    H271060   5.255   5.610  16.648  0.5791 -1.5722  0.1145
16549TIP3   OH271061   0.189   5.932   1.651 -0.2100 -0.1955 -0.0270
16549TIP3    H171062   0.109   5.967   1.692  1.0360  1.9649  0.7391
16549TIP3    H271063   0.163   5.910   1.562 -1.4443  1.5324 -0.1506
16550TIP3   OH271064   1.364   5.189  11.846  0.4693  0.1623 -0.0982
16550TIP3    H171065   1.418   5.251  11.797  0.1253 -0.5169 -1.3613
16550TIP3    H271066   1.276   5.227  11.845  0.7998  1.0947  1.6630
16551TIP3   OH271067   5.875   2.248  13.038  0.6469 -0.0786 -0.5443
16551TIP3    H171068   5.923   2.324  13.070 -1.1413  1.4812 -1.4346
16551TIP3    H271069   5.937   2.204  12.980  2.0823  0.0219  0.8253
16552TIP3   OH271070   6.205   2.010   3.437  0.4624 -0.4254 -0.1059
16552TIP3    H171071   6.220   2.104   3.443 -0.4559 -0.3419  1.4940
16552TIP3    H271072   6.208   1.991   3.343 -0.1011  1.3296 -0.5136
16553TIP3   OH271073   4.334   2.425  16.873 -0.0564  0.1849 -0.2000
16553TIP3    H171074   4.426   2.400  16.884  0.6200  2.0059 -1.1241
16553TIP3    H271075   4.317   2.488  16.943 -1.0766 -1.2147  0.8521
16554TIP3   OH271076   4.001   4.635   2.977 -0.6916 -0.6479 -0.0543
16554TIP3    H171077   3.950   4.657   2.899 -0.0093 -0.2874 -0.4138
16554TIP3    H271078   3.977   4.702   3.041 -0.7474 -0.5390 -0.1884
16555TIP3   OH271079   4.295   4.885   1.641  0.3009 -0.1385 -0.3206
16555TIP3    H171080   4.287   4.970   1.684  2.2771  0.7567 -1.5580
16555TIP3    H271081   4.335   4.828   1.708  2.0758  0.8669 -0.4527
16556TIP3   OH271082   1.374   2.331  16.765  0.2786  0.6382  0.0891
16556TIP3    H171083   1.394   2.287  16.847  0.6513 -0.4547 -0.5775
16556TIP3    H271084   1.349   2.261  16.705 -0.0710  1.4288 -0.7174
16557TIP3   OH271085   0.253   2.692  13.567  0.3965  0.5701  0.2500
16557TIP3    H171086   0.178   2.752  13.565 -1.2157 -1.3449 -0.8736
16557TIP3    H271087   0.322   2.739  13.521 -0.1134  2.3267  1.1571
16558TIP3   OH271088   3.603   2.652  14.936 -0.2595  0.4343 -0.4224
16558TIP3    H171089   3.621   2.700  14.855 -1.0974 -3.0360 -2.9270
16558TIP3    H271090   3.572   2.718  14.997  1.5644  3.4502 -2.4942
16559TIP3   OH271091   0.252   0.239  13.925  0.1802 -0.8247 -0.0616
16559TIP3    H171092   0.229   0.332  13.922  1.8279 -0.3116  1.5740
16559TIP3    H271093   0.172   0.194  13.898 -2.0505  0.9173  3.0696
16560TIP3   OH271094   0.115   2.999   3.126  0.1440 -0.0058  0.2749
16560TIP3    H171095   0.159   2.969   3.206  0.3583  0.9387  0.5354
16560TIP3    H271096   0.039   2.943   3.117  1.8857 -2.3697 -0.7440
16561TIP3   OH271097   4.672   5.397   2.172 -0.2932  0.1606  0.0581
16561TIP3    H171098   4.690   5.452   2.095 -0.3142  0.3704  0.2029
16561TIP3    H271099   4.742   5.332   2.171  0.8062  1.2981  0.9250
16562TIP3   OH271100   5.971   3.085   2.117  0.1949  0.2242  0.6216
16562TIP3    H171101   6.034   3.014   2.104 -0.7049 -0.8039  1.6093
16562TIP3    H271102   6.021   3.165   2.103  1.7097 -0.5511  1.3517
16563TIP3   OH271103   6.643   5.921   4.588  0.3358 -0.0626 -0.2407
16563TIP3    H171104   6.607   5.906   4.676 -0.0973 -3.7026 -0.8699
16563TIP3    H271105   6.714   5.984   4.602  0.4298 -0.6555  2.7689
16564TIP3   OH271106   4.672   5.061  12.910  0.4175  0.1245  0.0582
16564TIP3    H171107   4.584   5.086  12.883  0.5595  0.3149 -0.2426
16564TIP3    H271108   4.664   5.039  13.003 -0.2391 -1.3121 -0.3268
16565TIP3   OH271109   3.796   5.763   0.925  0.1411  0.1334 -0.2379
16565TIP3    H171110   3.767   5.754   1.016 -1.9933 -1.3226 -0.9764
16565TIP3    H271111   3.728   5.719   0.874  1.8774 -0.1306 -2.4736
16566TIP3   OH271112   4.608   0.315   4.029 -0.2170  0.0954 -0.5138
16566TIP3    H171113   4.568   0.350   4.109  0.5785  0.3439 -0.2169
16566TIP3    H271114   4.560   0.358   3.958  1.5619  2.8891 -0.1887
16567TIP3   OH271115   3.590   2.790  16.667  0.6487 -0.2622 -0.1894
16567TIP3    H171116   3.586   2.708  16.618  0.7075 -0.3554 -0.0384
16567TIP3    H271117   3.681   2.795  16.697  0.0983 -1.3188  1.8132
16568TIP3   OH271118   0.382   0.830   4.658 -0.3751  0.0798  0.4682
16568TIP3    H171119   0.362   0.737   4.647  0.2170  0.0982 -1.0116
16568TIP3    H271120   0.298   0.874   4.644 -0.5384 -0.1923  0.5750
16569TIP3   OH271121   5.130   6.673   4.141 -0.0229  0.0783 -0.4501
16569TIP3    H171122   5.101   6.662   4.232 -0.9380 -1.4455 -0.8901
16569TIP3    H271123   5.204   6.613   4.132  1.3797  1.7006 -0.1899
16570TIP3   OH271124   3.308   1.786  13.780  0.3340  0.5673  0.2292
16570TIP3    H171125   3.299   1.790  13.875  0.7078 -0.2892  0.3140
16570TIP3    H271126   3.347   1.870  13.756 -1.6107  1.6249  0.5903
16571TIP3   OH271127   3.758   5.836  16.480 -0.1046 -0.3726 -0.1664
16571TIP3    H171128   3.669   5.835  16.515  0.1997 -0.2184  0.6288
16571TIP3    H271129   3.814   5.825  16.556  0.5811  0.1835 -0.5807
16572TIP3   OH271130   0.490   5.213   1.745 -0.2129 -0.4571 -0.0652
16572TIP3    H171131   0.435   5.274   1.695  0.1635  0.1551  0.2546
16572TIP3    H271132   0.483   5.130   1.698  0.0109  0.0673 -1.0429
16573TIP3   OH271133   6.486   3.577   2.366 -0.3948 -0.2094 -1.0274
16573TIP3    H171134   6.491   3.554   2.458 -0.1698 -0.7835 -1.1764
16573TIP3    H271135   6.492   3.493   2.320  0.2183  0.1272 -1.5830
16574TIP3   OH271136   3.969   2.454  12.320 -0.3230  0.1679  0.5953
16574TIP3    H171137   3.976   2.516  12.248  0.4092  0.0776  0.5828
16574TIP3    H271138   3.964   2.509  12.399  1.0520  0.2436  0.6423
16575TIP3   OH271139   0.484   6.253  16.009 -0.0355  0.0253 -0.5751
16575TIP3    H171140   0.404   6.210  16.039  0.3468  0.2495  0.8627
16575TIP3    H271141   0.460   6.344  15.995 -0.1289  0.0037 -0.5519
16576TIP3   OH271142   5.636   1.996   3.096  0.3297 -0.6352 -0.2428
16576TIP3    H171143   5.664   1.934   3.029  3.4315 -0.0527  0.3777
16576TIP3    H271144   5.620   2.078   3.048 -2.0749 -1.3340 -0.8057
16577TIP3   OH271145   3.615   6.343  11.361 -0.3763 -0.5766  0.5266
16577TIP3    H171146   3.687   6.290  11.396 -0.0003 -1.0730 -0.8956
16577TIP3    H271147   3.618   6.424  11.412  0.6445 -0.9448  1.0887
16578TIP3   OH271148   3.534   0.023  14.392 -0.2620 -0.2732  0.0269
16578TIP3    H171149   3.488   0.004  14.311  0.5027  1.1771 -0.7735
16578TIP3    H271150   3.542   0.118  14.395  0.1287 -0.3143  1.5814
16579TIP3   OH271151   5.340   3.632  11.059  0.4053  0.0547 -0.3086
16579TIP3    H171152   5.368   3.718  11.029 -0.5792 -0.0236 -1.5880
16579TIP3    H271153   5.415   3.575  11.042  0.2478  0.2296 -1.7263
16580TIP3   OH271154   1.566   6.404  16.916  0.3963  0.7190  0.0427
16580TIP3    H171155   1.487   6.355  16.895  0.6902  0.5499 -0.7035
16580TIP3    H271156   1.637   6.349  16.882  0.8658  0.6577  1.0928
16581TIP3   OH271157   1.811   6.191  12.132  0.3523 -0.5548 -0.0057
16581TIP3    H171158   1.725   6.211  12.095  0.2454 -1.1035 -0.0607
16581TIP3    H271159   1.791   6.149  12.216  0.5475 -1.2984 -0.3242
16582TIP3   OH271160   0.016   2.681  15.399  0.4682  0.0362  0.1943
16582TIP3    H171161   0.077   2.753  15.417  1.4728 -0.5960 -0.6086
16582TIP3    H271162   0.072   2.607  15.376 -0.6149 -0.2151 -1.8419
16583TIP3   OH271163   4.450   3.217  13.279 -0.0341  0.3048  0.1333
16583TIP3    H171164   4.387   3.158  13.321 -1.0644 -1.1805 -3.1619
16583TIP3    H271165   4.495   3.163  13.215  1.3016  2.4113 -0.8302
16584TIP3   OH271166   2.505   1.576   0.256  0.0967  0.6348  0.1046
16584TIP3    H171167   2.429   1.624   0.221 -0.1174  2.1506  2.3856
16584TIP3    H271168   2.484   1.564   0.349  1.1388 -2.0968  0.0788
16585TIP3   OH271169   5.599   0.533  15.713 -0.0545  0.3104 -0.2417
16585TIP3    H171170   5.664   0.470  15.683  0.0493  0.7586 -0.9793
16585TIP3    H271171   5.635   0.618  15.687 -0.8253  0.5751 -0.4435
16586TIP3   OH271172   3.118   4.375  13.561 -0.3424  0.7903 -0.0521
16586TIP3    H171173   3.035   4.381  13.515 -0.2403  0.7579 -0.2435
16586TIP3    H271174   3.138   4.282  13.564 -1.8416  0.4431  2.7699
16587TIP3   OH271175   5.915   5.856   5.296  0.1632  0.1855 -0.4324
16587TIP3    H171176   5.938   5.838   5.387 -1.5441 -0.6873 -0.1312
16587TIP3    H271177   5.991   5.903   5.261  0.6006  1.1329  1.6067
16588TIP3   OH271178   2.845   1.736  14.310 -0.1243 -0.0557  0.3258
16588TIP3    H171179   2.892   1.792  14.372 -1.9082  2.0672 -0.1236
16588TIP3    H271180   2.901   1.733  14.233 -0.2497  1.6800  0.1258
16589TIP3   OH271181   0.693   5.444   5.268 -0.4807 -0.1971 -0.2255
16589TIP3    H171182   0.639   5.369   5.242 -0.9265  0.4777 -1.3037
16589TIP3    H271183   0.783   5.409   5.270 -0.6950 -0.7850 -0.5880
16590TIP3   OH271184   4.886   5.362  12.449 -0.3182 -0.1695  0.1806
16590TIP3    H171185   4.974   5.388  12.477 -0.3301 -0.0740  0.1290
16590TIP3    H271186   4.828   5.413  12.505 -0.3473 -1.0962  1.0364
16591TIP3   OH271187   0.319   4.040  11.253 -0.1003  0.0330  0.1796
16591TIP3    H171188   0.368   4.081  11.181 -0.4533  1.5403  0.7734
16591TIP3    H271189   0.382   3.981  11.294  0.5185  0.1972 -0.5045
16592TIP3   OH271190   4.644   6.182  15.019 -0.3938 -0.9336 -0.1102
16592TIP3    H171191   4.560   6.167  15.063  0.3043 -0.1702  1.5599
16592TIP3    H271192   4.708   6.186  15.090  0.9061 -0.3917 -1.2648
16593TIP3   OH271193   5.682   6.334   5.614  0.4007  0.4546  1.1136
16593TIP3    H171194   5.652   6.333   5.705 -0.3116  0.8748  0.8917
16593TIP3    H271195   5.631   6.266   5.570 -1.0711  1.8802  0.4959
16594TIP3   OH271196   2.561   4.228   0.188  0.0086  0.2348 -0.9350
16594TIP3    H171197   2.596   4.176   0.261 -0.4391  0.8178 -0.2875
16594TIP3    H271198   2.484   4.271   0.225  0.7613  1.9251 -1.2266
16595TIP3   OH271199   0.632   2.793  16.020  0.1934 -0.1042 -0.1038
16595TIP3    H171200   0.597   2.882  16.013  2.8557  0.9728 -1.1337
16595TIP3    H271201   0.608   2.752  15.937  0.2928  0.1801 -0.2743
16596TIP3   OH271202   5.635   0.852  10.127 -0.0605  0.0332  0.0231
16596TIP3    H171203   5.675   0.882  10.208 -0.0601  1.6956 -0.5565
16596TIP3    H271204   5.550   0.817  10.153  0.2059 -0.0360  0.8051
16597TIP3   OH271205   6.454   1.655   5.492  0.2973  0.0458  0.2600
16597TIP3    H171206   6.468   1.596   5.566 -0.6131  0.5100  0.8161
16597TIP3    H271207   6.511   1.730   5.509  0.3038  0.0220  0.3415
16598TIP3   OH271208   0.726   1.367  11.540 -0.0985  0.1995 -0.0800
16598TIP3    H171209   0.812   1.353  11.580 -0.7364 -1.6698  0.7429
16598TIP3    H271210   0.687   1.437  11.592  0.5340  0.3786  0.1697
16599TIP3   OH271211   0.954   2.983   1.193  0.2891  0.6824 -0.0667
16599TIP3    H171212   0.971   2.889   1.191 -3.0784 -0.0919 -2.3029
16599TIP3    H271213   0.870   2.991   1.239  0.7079  2.6553  0.4469
16600TIP3   OH271214   1.387   4.642   3.993 -0.0715 -0.0794  0.2674
16600TIP3    H171215   1.354   4.622   3.905  0.0853  0.2528  0.1318
16600TIP3    H271216   1.351   4.729   4.013  0.6478  0.2560  0.1492
16601TIP3   OH271217   4.383   4.943   4.541  0.5830 -0.1333 -0.1311
16601TIP3    H171218   4.441   5.008   4.503  1.0907  0.2878  1.2945
16601TIP3    H271219   4.357   4.981   4.625  0.0527 -1.3079  0.2514
16602TIP3   OH271220   0.352   4.588   1.039  0.4985 -0.1211  0.5733
16602TIP3    H171221   0.408   4.517   1.071 -0.0071 -0.8852 -0.1925
16602TIP3    H271222   0.407   4.635   0.976  1.5300  1.4493  2.5420
16603TIP3   OH271223   4.546   0.967   4.319 -0.3283 -0.0178  0.0512
16603TIP3    H171224   4.455   0.960   4.290 -0.7163  0.9636  0.9548
16603TIP3    H271225   4.557   0.895   4.381 -0.7072  0.2315  0.4225
16604TIP3   OH271226   5.383   3.429   4.045 -0.4397  0.5904 -0.1535
16604TIP3    H171227   5.440   3.443   3.969 -0.8299 -0.0311 -0.5668
16604TIP3    H271228   5.418   3.489   4.112  1.3687 -0.5185 -0.0386
16605TIP3   OH271229   1.246   0.191   1.753 -0.5042 -0.0608  0.4098
16605TIP3    H171230   1.271   0.143   1.832 -1.6143 -0.8585  0.3018
16605TIP3    H271231   1.180   0.253   1.783 -0.0987  0.4191  0.3046
16606TIP3   OH271232   3.177   5.557   3.891 -0.3728 -0.0985 -0.0300
16606TIP3    H171233   3.267   5.528   3.877 -0.6322 -0.5892 -0.7929
16606TIP3    H271234   3.140   5.563   3.802 -0.1750  3.1962 -0.0075
16607TIP3   OH271235   1.834   1.892  12.847 -0.0288  0.1304 -0.3801
16607TIP3    H171236   1.809   1.802  12.866  0.2439 -0.0792 -0.9907
16607TIP3    H271237   1.904   1.912  12.910 -0.7528  0.2582  0.4121
16608TIP3   OH271238   1.155   3.430  15.420 -0.2096 -0.0759 -0.2429
16608TIP3    H171239   1.236   3.475  15.397  0.1894 -0.8473 -0.3770
16608TIP3    H271240   1.089   3.469  15.362  0.3193 -0.3227 -1.0369
16609TIP3   OH271241   1.052   6.310   3.679  0.5976  0.1978  0.0378
16609TIP3    H171242   1.139   6.350   3.675  0.7009  0.0616  0.8623
16609TIP3    H271243   1.062   6.237   3.740  0.1111 -0.3546 -0.5233
16610TIP3   OH271244   1.057   0.023  14.137 -0.2749 -0.1642 -0.4538
16610TIP3    H171245   0.974   0.062  14.110 -1.7199 -2.7786 -0.1342
16610TIP3    H271246   1.109   0.020  14.057 -1.3516 -0.4415 -1.1662
16611TIP3   OH271247   4.294   3.670   1.210  0.5041 -0.0309  0.4517
16611TIP3    H171248   4.217   3.676   1.153  0.0189  0.9218  1.1691
16611TIP3    H271249   4.258   3.645   1.295  1.1984 -1.2595  0.3992
16612TIP3   OH271250   1.215   2.098   4.448  0.1560 -0.2629  0.1159
16612TIP3    H171251   1.232   2.064   4.360  0.0122 -0.6397  0.2289
16612TIP3    H271252   1.252   2.032   4.507  0.2460 -0.0147  0.3376
16613TIP3   OH271253   4.595   5.860   3.392  0.2006  0.7885 -0.3107
16613TIP3    H171254   4.657   5.823   3.454 -1.0064  0.6363  0.8440
16613TIP3    H271255   4.509   5.840   3.429 -0.5268  1.9742 -1.2867
16614TIP3   OH271256   3.034   1.267  16.542  0.0667 -0.3252 -0.6787
16614TIP3    H171257   2.947   1.239  16.572  0.1078 -1.2297 -1.3443
16614TIP3    H271258   3.052   1.211  16.466  1.1257  0.0195 -0.7002
16615TIP3   OH271259   2.223   3.437  14.100  0.2002  0.0430 -0.3122
16615TIP3    H171260   2.212   3.519  14.051 -1.5055  0.4112  0.6246
16615TIP3    H271261   2.148   3.383  14.075  0.2275 -0.4404  0.5880
16616TIP3   OH271262   5.614   3.000  16.145  0.7896  0.2260  0.5558
16616TIP3    H171263   5.647   3.085  16.116  0.0482  1.1530  2.2925
16616TIP3    H271264   5.604   3.009  16.240 -5.7488  0.6699  0.2535
16617TIP3   OH271265   2.509   3.324  10.722  0.3471  0.2392 -0.5789
16617TIP3    H171266   2.490   3.413  10.690  0.9835  0.2261 -1.0112
16617TIP3    H271267   2.599   3.307  10.694  0.0976 -0.6941 -0.8460
16618TIP3   OH271268   2.024   1.278  14.342 -0.5188  0.2302  0.3752
16618TIP3    H171269   2.019   1.341  14.270 -0.0131 -0.8900 -0.6899
16618TIP3    H271270   1.963   1.208  14.317  0.1459 -0.4859  0.6976
16619TIP3   OH271271   5.924   2.314  12.422 -0.5112  0.0514  0.1486
16619TIP3    H171272   5.851   2.279  12.372 -0.5885  1.6600 -0.9221
16619TIP3    H271273   5.921   2.409  12.408  1.7776  0.1791  0.0655
16620TIP3   OH271274   0.239   1.628   2.823 -0.6830  0.1674  0.3102
16620TIP3    H171275   0.330   1.600   2.831 -0.4561  0.7581 -0.1895
16620TIP3    H271276   0.242   1.723   2.831 -1.1804  0.2447 -0.3298
16621TIP3   OH271277   3.130   0.229   1.418  0.1265 -0.3887 -0.4822
16621TIP3    H171278   3.107   0.196   1.331  0.5512 -0.5734 -0.5276
16621TIP3    H271279   3.092   0.165   1.479  2.5082 -2.0513 -0.5966
16622TIP3   OH271280   4.384   1.053   0.551  0.6690  0.0767 -0.1700
16622TIP3    H171281   4.402   0.980   0.611  2.6387 -0.5431 -1.4517
16622TIP3    H271282   4.440   1.124   0.582 -0.4131  0.7220  0.3859
16623TIP3   OH271283   3.865   1.152   3.743  0.0642  0.2156 -0.3499
16623TIP3    H171284   3.787   1.121   3.789  0.6340 -0.1675  0.3810
16623TIP3    H271285   3.862   1.247   3.753  0.2363  0.1381  0.6089
16624TIP3   OH271286   0.078   4.705   0.773 -0.4466 -0.0889 -0.3518
16624TIP3    H171287   0.080   4.638   0.841  1.8339 -0.1223 -0.3707
16624TIP3    H271288   0.141   4.675   0.707  0.4640  1.9169 -0.4753
16625TIP3   OH271289   1.741   0.161   0.982  0.1795  0.3683  0.2971
16625TIP3    H171290   1.807   0.154   1.051  0.2783 -0.7850  0.1118
16625TIP3    H271291   1.666   0.204   1.025 -0.2343 -1.4615  1.5267
16626TIP3   OH271292   1.322   2.792   4.181  0.1260  0.1740 -0.4294
16626TIP3    H171293   1.274   2.872   4.202  0.4755  0.2134  0.2755
16626TIP3    H271294   1.414   2.820   4.175  0.0045  0.2457 -2.5354
16627TIP3   OH271295   6.080   0.879  12.418  0.3276  0.1581  0.1087
16627TIP3    H171296   6.018   0.840  12.480 -0.7693 -0.3237 -1.2191
16627TIP3    H271297   6.150   0.814  12.410  1.2729  0.8866  1.9381
16628TIP3   OH271298   6.729   0.357  12.538  0.6569 -0.4549 -0.1555
16628TIP3    H171299   6.636   0.374  12.527  0.4557 -2.5751 -2.7343
16628TIP3    H271300   6.764   0.438  12.574 -1.7874  1.2739 -1.3885
16629TIP3   OH271301   1.710   5.910   4.224 -0.3360  0.1164  0.1562
16629TIP3    H171302   1.764   5.985   4.247 -1.1483  0.6097  0.4999
16629TIP3    H271303   1.740   5.884   4.137  1.0181 -0.1530  0.6857
16630TIP3   OH271304   2.631   3.319  14.469  0.3935  0.5125  0.0368
16630TIP3    H171305   2.547   3.348  14.434  0.3028 -1.6045 -1.7376
16630TIP3    H271306   2.622   3.327  14.564 -1.9520  0.0079 -0.0813
16631TIP3   OH271307   6.448   3.326   1.342  0.5944  0.5835 -0.3130
16631TIP3    H171308   6.487   3.243   1.370  0.4979  0.3386 -0.8863
16631TIP3    H271309   6.475   3.389   1.409  2.5430  0.5695 -1.0170
16632TIP3   OH271310   4.900   2.407   2.267  0.3922 -0.6897 -0.2581
16632TIP3    H171311   4.995   2.399   2.254  0.4655  1.4720 -1.4253
16632TIP3    H271312   4.863   2.406   2.179 -0.5227  0.0035  0.0989
16633TIP3   OH271313   1.038   2.748  16.368 -0.0581  0.2310 -0.2158
16633TIP3    H171314   1.108   2.802  16.331 -1.3824  0.2155 -2.9520
16633TIP3    H271315   0.960   2.803  16.364 -0.8275 -0.8272 -0.1710
16634TIP3   OH271316   6.658   0.930  11.364  0.3557 -0.1475  0.2993
16634TIP3    H171317   6.597   0.857  11.372 -1.1234  0.9649 -0.4206
16634TIP3    H271318   6.623   0.983  11.292  1.4268  1.2443  0.7607
16635TIP3   OH271319   6.655   5.457   1.744  0.3471 -0.2620 -0.1667
16635TIP3    H171320   6.699   5.524   1.692 -1.7942  1.5168  0.1852
16635TIP3    H271321   6.578   5.433   1.692 -2.4505  2.3140  2.3416
16636TIP3   OH271322   6.648   1.567  12.180  0.1260 -0.1305  0.4762
16636TIP3    H171323   6.614   1.636  12.237 -0.9247 -0.6214  0.4660
16636TIP3    H271324   6.640   1.487  12.233 -2.3693 -0.8753 -0.8491
16637TIP3   OH271325   0.870   3.542   3.908  0.6433  0.2961  0.7949
16637TIP3    H171326   0.806   3.518   3.976  0.8311 -0.1629  0.8143
16637TIP3    H271327   0.945   3.577   3.956  0.3131  1.0707  0.7592
16638TIP3   OH271328   6.236   2.358  13.777 -0.3775 -0.3308 -0.7201
16638TIP3    H171329   6.298   2.290  13.748  1.3064  0.9426 -0.2626
16638TIP3    H271330   6.177   2.312  13.837  0.2207 -1.5570 -1.0256
16639TIP3   OH271331   5.225   1.724   0.521  0.0030 -0.5361 -0.6814
16639TIP3    H171332   5.211   1.727   0.426  0.2861 -0.2847 -0.7162
16639TIP3    H271333   5.137   1.735   0.559 -0.0542 -0.2045 -0.9081
16640TIP3   OH271334   4.626   2.204  14.730 -0.0317  1.0210 -0.0793
16640TIP3    H171335   4.644   2.284  14.681 -0.1491 -0.7748 -3.3339
16640TIP3    H271336   4.537   2.180  14.705 -1.0993  1.2761  3.1001
16641TIP3   OH271337   0.824   2.486   1.571  0.1415  0.9083 -0.5501
16641TIP3    H171338   0.870   2.404   1.553 -1.4367 -0.3306  0.7435
16641TIP3    H271339   0.840   2.539   1.494  1.9708 -0.2473 -1.0452
16642TIP3   OH271340   1.717   2.199  13.267 -0.0796 -0.6488  0.6843
16642TIP3    H171341   1.649   2.167  13.327 -1.5899  0.2354 -0.4571
16642TIP3    H271342   1.765   2.265  13.317  0.4594 -1.8367  1.7601
16643TIP3   OH271343   5.067   1.397  12.639  0.7237  0.0339 -0.0705
16643TIP3    H171344   5.082   1.454  12.714  2.0033  1.2963 -1.2178
16643TIP3    H271345   5.119   1.319  12.658 -0.0558 -0.2479  0.9617
16644TIP3   OH271346   1.530   5.455  11.721 -0.1462  0.0001 -0.1081
16644TIP3    H171347   1.517   5.415  11.635 -1.7569  0.3742 -0.0662
16644TIP3    H271348   1.618   5.428  11.746 -0.3610 -1.7151 -1.0251
16645TIP3   OH271349   2.559   0.394   3.781  0.3788 -0.7104 -0.5920
16645TIP3    H171350   2.504   0.464   3.747  1.1068  0.4180  0.4459
16645TIP3    H271351   2.622   0.377   3.711  1.7691  1.4743  0.0141
16646TIP3   OH271352   3.584   0.930   0.312 -0.1822  0.5196 -0.3249
16646TIP3    H171353   3.652   0.956   0.374 -0.8403  0.4769  0.4306
16646TIP3    H271354   3.521   1.002   0.313 -1.4855 -0.5886  0.9895
16647TIP3   OH271355   4.953   1.464  14.813  0.4921 -0.0898  0.0356
16647TIP3    H171356   4.987   1.454  14.902  0.7434 -0.1995 -0.0718
16647TIP3    H271357   5.032   1.476  14.759  0.3457 -0.1172 -0.1840
16648TIP3   OH271358   5.024   0.749  14.246 -0.1553 -0.2247 -0.1349
16648TIP3    H171359   4.992   0.674  14.195 -1.2553 -0.1071  0.3558
16648TIP3    H271360   4.998   0.826  14.194  2.0663 -0.1680 -1.2687
16649TIP3   OH271361   6.489   3.351  11.287  0.4657 -0.0077 -0.2114
16649TIP3    H171362   6.554   3.286  11.259  1.6850  0.7633  0.7334
16649TIP3    H271363   6.468   3.399  11.207  3.0713  1.4415 -0.1544
16650TIP3   OH271364   2.932   2.722  12.247 -0.4186  0.4518 -0.0779
16650TIP3    H171365   2.964   2.743  12.335  1.1219 -1.8755  0.0125
16650TIP3    H271366   2.914   2.807  12.207 -2.3188  1.5570  2.8434
16651TIP3   OH271367   2.868   2.509   4.461  0.5813  0.0199 -0.3308
16651TIP3    H171368   2.957   2.483   4.437 -0.3203 -2.5940 -1.1628
16651TIP3    H271369   2.871   2.518   4.556  1.8196  0.4014 -0.3843
16652TIP3   OH271370   5.207   2.103  11.857  0.3290  0.0770 -0.2092
16652TIP3    H171371   5.251   2.019  11.874  2.3108  1.3268  1.3086
16652TIP3    H271372   5.119   2.078  11.829  0.9555 -2.5139 -0.1920
16653TIP3   OH271373   2.603   0.305   0.475 -0.2876  0.1471  0.4519
16653TIP3    H171374   2.598   0.391   0.517  0.9856  0.2692  0.3818
16653TIP3    H271375   2.513   0.272   0.477 -0.8489  1.5949  0.2354
16654TIP3   OH271376   3.399   5.746   1.681  0.9912  0.0900  0.3716
16654TIP3    H171377   3.392   5.686   1.607  2.6015 -0.5729  0.7153
16654TIP3    H271378   3.452   5.699   1.746  1.1603  1.3608  1.2005
16655TIP3   OH271379   1.568   3.615  12.327 -0.7621 -0.2070  0.1266
16655TIP3    H171380   1.552   3.682  12.393 -0.0860 -0.4596  0.5615
16655TIP3    H271381   1.631   3.556  12.368  2.6117  1.5757 -2.0075
16656TIP3   OH271382   2.173   1.898  16.627  0.0418 -0.1302  0.0313
16656TIP3    H171383   2.106   1.960  16.655 -0.7607 -0.2537 -1.5407
16656TIP3    H271384   2.162   1.891  16.532  1.3693 -1.2158 -0.0724
16657TIP3   OH271385   1.135   5.476  12.285 -0.5637 -0.0399  0.3200
16657TIP3    H171386   1.218   5.463  12.239 -2.2515  0.0367 -3.0455
16657TIP3    H271387   1.101   5.388  12.299 -0.7282 -0.0301  0.0020
16658TIP3   OH271388   2.843   6.414   6.019  0.6473 -0.3060 -0.4607
16658TIP3    H171389   2.767   6.461   5.986  0.7904  0.2567 -0.0041
16658TIP3    H271390   2.821   6.322   6.006 -0.5333 -0.1973  0.5600
16659TIP3   OH271391   0.273   2.601  10.795  0.4985  0.2702  0.0834
16659TIP3    H171392   0.318   2.540  10.737  0.3997  2.9049 -3.0195
16659TIP3    H271393   0.201   2.635  10.743  1.0612  3.6284  1.2559
16660TIP3   OH271394   1.612   0.184  15.805  0.0896 -0.2000  0.2783
16660TIP3    H171395   1.581   0.270  15.776  1.7010  0.3209 -0.0044
16660TIP3    H271396   1.687   0.166  15.749 -1.2903 -2.6540 -0.9166
16661TIP3   OH271397   0.510   1.329  11.369 -0.4753  0.5937 -0.2072
16661TIP3    H171398   0.470   1.400  11.417 -0.4528  0.2614  0.3067
16661TIP3    H271399   0.561   1.281  11.434  1.5071  1.5184 -0.9683
16662TIP3   OH271400   3.481   2.233  12.161  0.4799  0.6649  0.0390
16662TIP3    H171401   3.398   2.223  12.114  1.3908 -0.5131 -1.4174
16662TIP3    H271402   3.527   2.303  12.115 -0.5226  2.9369  2.2153
16663TIP3   OH271403   4.220   4.093   0.314  0.8840 -0.3883 -0.6683
16663TIP3    H171404   4.207   4.032   0.387 -1.0775 -0.6649 -1.1906
16663TIP3    H271405   4.254   4.038   0.243  0.4532 -0.6047 -0.7103
16664TIP3   OH271406   4.167   5.495   4.286  0.2128 -0.0467 -0.2220
16664TIP3    H171407   4.104   5.439   4.242  0.8093  0.4505 -1.7805
16664TIP3    H271408   4.196   5.444   4.361 -0.5014 -1.1185 -0.6458
16665TIP3   OH271409   1.031   4.383  15.620  0.5034  0.0965  0.0323
16665TIP3    H171410   1.109   4.393  15.566  1.4404  0.1888  1.3609
16665TIP3    H271411   0.964   4.434  15.575  1.3723  0.5561 -0.7803
16666TIP3   OH271412   0.222   4.929   0.123  0.0575 -0.0107 -0.4320
16666TIP3    H171413   0.258   5.007   0.079  1.8792 -1.3912 -1.5654
16666TIP3    H271414   0.132   4.953   0.145  0.3513  2.1708 -1.3406
16667TIP3   OH271415   4.867   5.686  11.782 -0.0335  0.1500  0.3677
16667TIP3    H171416   4.803   5.754  11.761  1.1004  1.6161  1.4573
16667TIP3    H271417   4.848   5.615  11.720 -1.2314  1.4661 -0.8354
16668TIP3   OH271418   5.683   6.226   6.344 -0.5651 -0.0270 -0.5458
16668TIP3    H171419   5.643   6.287   6.406  0.4226 -1.2430  1.3764
16668TIP3    H271420   5.608   6.181   6.303 -1.2267  0.4970  0.0649
16669TIP3   OH271421   3.580   0.728  15.354  0.2677 -0.9013  0.6053
16669TIP3    H171422   3.529   0.691  15.426 -2.7463 -1.2309 -1.4817
16669TIP3    H271423   3.543   0.815  15.341  0.9311 -0.7520 -0.3967
16670TIP3   OH271424   3.282   6.627  15.205 -0.0478 -0.7610 -0.1516
16670TIP3    H171425   3.280   6.557  15.271 -1.2290  0.8777  1.6527
16670TIP3    H271426   3.226   6.596  15.134 -0.7665 -1.5407  0.7422
16671TIP3   OH271427   0.989   5.749   3.840 -0.0871  0.1471  0.0232
16671TIP3    H171428   0.958   5.832   3.802 -1.9110 -0.7735 -0.6007
16671TIP3    H271429   1.025   5.700   3.766  1.5069  0.5600  0.4837
16672TIP3   OH271430   2.094   6.421  12.180 -0.3431  1.1915 -0.2216
16672TIP3    H171431   2.143   6.441  12.100  0.7721  0.8380  0.3419
16672TIP3    H271432   2.050   6.503  12.203  0.2573  1.6170 -0.5701
16673TIP3   OH271433   1.319   6.213  14.181  0.1071 -0.3994  0.1618
16673TIP3    H171434   1.274   6.239  14.101 -0.7935 -0.4157  0.6406
16673TIP3    H271435   1.249   6.179  14.237  0.0618  2.7063  2.2543
16674TIP3   OH271436   5.560   0.310   0.267 -0.2405 -0.5270 -0.3646
16674TIP3    H171437   5.600   0.244   0.210  1.6982  1.5530 -1.5839
16674TIP3    H271438   5.469   0.283   0.275 -0.3701 -1.4892 -3.6448
16675TIP3   OH271439   0.590   0.995  16.720 -0.3637 -0.4359 -0.1858
16675TIP3    H171440   0.571   0.966  16.631 -0.5283 -0.3440 -0.1825
16675TIP3    H271441   0.552   0.928  16.776 -0.1843 -0.5381 -0.1868
16676TIP3   OH271442   2.600   2.211  11.937 -0.0621 -0.2459  0.2324
16676TIP3    H171443   2.534   2.191  11.871  1.1742  0.7073 -1.3519
16676TIP3    H271444   2.631   2.299  11.914  0.9590 -0.2156  1.6170
16677TIP3   OH271445   0.521   0.376   2.076  0.0794  0.0087 -0.0912
16677TIP3    H171446   0.465   0.451   2.056  0.6096  0.1309 -1.1731
16677TIP3    H271447   0.608   0.413   2.086  0.1659 -0.3290  0.4363
16678TIP3   OH271448   2.819   2.510   3.137 -0.6560  0.3469  1.0091
16678TIP3    H171449   2.830   2.587   3.082  0.6322 -0.0397  0.6727
16678TIP3    H271450   2.902   2.462   3.127 -1.4242 -1.0666  1.2154
16679TIP3   OH271451   2.426   2.480   4.864  0.5007 -0.3365 -0.5369
16679TIP3    H171452   2.375   2.422   4.920  1.6897 -0.3659  0.5745
16679TIP3    H271453   2.369   2.554   4.846 -0.8370 -1.5459 -1.4832
16680TIP3   OH271454   0.633   1.147   2.703 -0.3657  0.0641 -0.5069
16680TIP3    H171455   0.710   1.123   2.651 -0.2207  1.2938 -0.8899
16680TIP3    H271456   0.665   1.213   2.765 -0.5961 -1.1767  1.0019
16681TIP3   OH271457   5.983   2.545  15.511 -0.0742  0.2966  0.6972
16681TIP3    H171458   5.950   2.455  15.515  0.5797  0.0842  1.9234
16681TIP3    H271459   6.001   2.568  15.602 -2.0744  2.4095  0.6572
16682TIP3   OH271460   5.096   2.581   5.427  0.2863 -0.2747  0.1589
16682TIP3    H171461   5.126   2.497   5.463  0.9081  0.4665  1.4339
16682TIP3    H271462   5.001   2.571   5.421  0.3396 -1.0337  0.4214
16683TIP3   OH271463   4.990   2.847   5.357 -0.3206 -0.0223 -0.4350
16683TIP3    H171464   5.014   2.794   5.434  0.6623 -0.1416 -0.8117
16683TIP3    H271465   4.900   2.821   5.338 -0.1371 -0.9583 -0.1132
16684TIP3   OH271466   1.997   0.392   1.597 -0.3866  0.2279  0.5296
16684TIP3    H171467   1.929   0.439   1.645 -0.9734 -0.0442 -0.0309
16684TIP3    H271468   1.962   0.304   1.585  0.4002 -0.1502  0.9260
16685TIP3   OH271469   2.022   5.714  14.074 -0.1599  0.0501  0.1945
16685TIP3    H171470   2.067   5.780  14.021 -0.9067 -0.4243 -1.0681
16685TIP3    H271471   2.076   5.706  14.153  1.4571  0.1698 -0.8577
16686TIP3   OH271472   3.468   0.628   0.826  0.3267 -0.5180  0.3509
16686TIP3    H171473   3.412   0.675   0.889  0.6707  1.6354 -0.8409
16686TIP3    H271474   3.507   0.557   0.877 -0.8799 -0.0290  2.0675
16687TIP3   OH271475   5.152   5.837  11.742 -0.3092 -0.0395  0.6260
16687TIP3    H171476   5.212   5.763  11.750  0.9545  1.1445  3.1456
16687TIP3    H271477   5.149   5.875  11.829 -1.4519  2.5049 -0.4320
16688TIP3   OH271478   2.924   2.000   0.489 -0.3479 -0.0371  0.9060
16688TIP3    H171479   2.890   1.919   0.452 -1.2607  1.0123 -0.6865
16688TIP3    H271480   2.848   2.042   0.529 -0.0865  0.4855  0.8658
16689TIP3   OH271481   4.879   3.960  12.535  0.1906 -0.0682 -0.0192
16689TIP3    H171482   4.823   4.036  12.549  0.8951  0.3399  0.6505
16689TIP3    H271483   4.911   3.937  12.622 -0.9209 -1.8677 -0.0320
16690TIP3   OH271484   6.527   6.124  12.467 -0.0085 -0.3869  0.3802
16690TIP3    H171485   6.550   6.031  12.459 -1.8843 -0.9163  0.7227
16690TIP3    H271486   6.560   6.164  12.386  1.3997 -1.1965  0.5202
16691TIP3   OH271487   0.538   2.727  14.363 -0.1464 -0.1622  0.0553
16691TIP3    H171488   0.490   2.770  14.434 -0.3579 -1.8220  0.9598
16691TIP3    H271489   0.473   2.716  14.293 -0.2792  0.2975  0.1027
16692TIP3   OH271490   6.479   1.605   0.698  0.2361 -0.1143 -0.1422
16692TIP3    H171491   6.434   1.659   0.633  0.5898  0.5863  0.1766
16692TIP3    H271492   6.466   1.652   0.780  2.6281  0.8487 -0.2311
16693TIP3   OH271493   4.797   4.423   6.199 -0.1963 -0.2277 -0.3260
16693TIP3    H171494   4.852   4.468   6.262 -0.8345  0.1125  0.0003
16693TIP3    H271495   4.807   4.330   6.220  2.0536 -0.3760 -1.7616
16694TIP3   OH271496   3.781   0.452  16.471  0.2654 -0.5752  0.5185
16694TIP3    H171497   3.825   0.488  16.548  2.1411 -0.8976 -0.3168
16694TIP3    H271498   3.711   0.514  16.452  1.0308  0.5934  1.3228
16695TIP3   OH271499   3.106   5.527  15.292  0.1046 -0.3468  0.2722
16695TIP3    H171500   3.181   5.547  15.348 -0.0921 -0.2801  0.5150
16695TIP3    H271501   3.053   5.607  15.294 -0.5579 -0.7953  1.0337
16696TIP3   OH271502   2.554   2.278  15.768  0.2972 -0.3950 -0.6852
16696TIP3    H171503   2.648   2.284  15.782  0.8328  3.5609 -4.0279
16696TIP3    H271504   2.515   2.300  15.853  2.3911 -0.2826  0.2929
16697TIP3   OH271505   0.901   0.227  13.636 -0.2857 -0.0912  0.1583
16697TIP3    H171506   0.972   0.170  13.666 -0.2345 -0.4543 -0.6271
16697TIP3    H271507   0.835   0.167  13.602  0.5014  0.3416 -2.3059
16698TIP3   OH271508   5.959   2.390  12.098  0.0932 -0.0387  0.0704
16698TIP3    H171509   6.036   2.446  12.110  1.3277 -1.6296 -0.0628
16698TIP3    H271510   5.902   2.410  12.172  0.9573  0.6630  0.5623
16699TIP3   OH271511   1.117   4.484  13.959  0.0634 -0.3201  0.6377
16699TIP3    H171512   1.178   4.557  13.949  0.8545 -0.8549  1.4201
16699TIP3    H271513   1.132   4.430  13.882 -1.2511  0.8307 -0.4771
16700TIP3   OH271514   2.463   4.510  15.017  1.1511 -0.4156 -0.5612
16700TIP3    H171515   2.477   4.473  15.104  0.8377 -1.8813 -1.0886
16700TIP3    H271516   2.374   4.544  15.019  1.5610  0.6734  0.0408
16701TIP3   OH271517   1.819   4.168  11.992  0.5770  0.1068 -0.4110
16701TIP3    H171518   1.849   4.259  11.981  1.0987 -0.2720 -2.7969
16701TIP3    H271519   1.732   4.167  11.952 -0.8329  0.1924  2.4483
16702TIP3   OH271520   5.666   2.590  13.013  0.0436  0.2565 -0.1884
16702TIP3    H171521   5.636   2.577  12.923 -0.8984  2.1943 -0.2147
16702TIP3    H271522   5.612   2.663  13.045  0.0427 -0.6827  2.0996
16703TIP3   OH271523   3.323   1.033  12.899  0.4758 -0.6043 -0.1581
16703TIP3    H171524   3.363   1.116  12.926  0.1462 -1.1813  2.3805
16703TIP3    H271525   3.389   0.992  12.842  0.3186  1.6696 -2.1011
16704TIP3   OH271526   4.577   4.852  11.292 -0.7125 -0.2077  0.4328
16704TIP3    H171527   4.615   4.802  11.364  0.4313  0.8524  0.5869
16704TIP3    H271528   4.570   4.788  11.221  0.5386 -0.6512  0.6792
16705TIP3   OH271529   3.312   6.109   6.355 -0.3093  0.3846 -0.5411
16705TIP3    H171530   3.337   6.098   6.263 -2.7734  0.0722 -1.2254
16705TIP3    H271531   3.274   6.196   6.359  2.4519  1.6578  0.9150
16706TIP3   OH271532   3.417   5.863  16.192  0.0039  0.5635  0.4312
16706TIP3    H171533   3.411   5.807  16.114 -0.1099 -1.1997  1.6371
16706TIP3    H271534   3.436   5.950  16.158 -0.9722  0.0431 -1.6235
16707TIP3   OH271535   0.882   2.948  16.607 -0.5881 -0.5752  0.3955
16707TIP3    H171536   0.883   2.953  16.512 -0.3654 -1.0829  0.3704
16707TIP3    H271537   0.859   3.037  16.635  0.0490 -0.2422 -0.1172
16708TIP3   OH271538   6.340   4.696   4.887 -0.2768  0.2398 -0.4300
16708TIP3    H171539   6.345   4.708   4.981  1.1013  0.5646 -0.5261
16708TIP3    H271540   6.274   4.759   4.858 -0.4978  0.3389  0.2770
16709TIP3   OH271541   4.796   1.353  13.694  0.4044 -0.2741 -0.0998
16709TIP3    H171542   4.845   1.434  13.708 -2.1289  1.6230 -1.6478
16709TIP3    H271543   4.855   1.299  13.641  2.7049 -0.1507  2.1085
16710TIP3   OH271544   3.005   3.239  12.033  0.0349 -0.5831  0.6982
16710TIP3    H171545   3.063   3.291  11.977 -1.7537 -0.2088 -0.9222
16710TIP3    H271546   3.039   3.150  12.026 -2.2323 -1.3838 -4.2901
16711TIP3   OH271547   5.308   0.674   4.561  0.7305 -0.1434  0.5184
16711TIP3    H171548   5.283   0.717   4.643 -2.2027 -0.9642  0.1429
16711TIP3    H271549   5.404   0.669   4.566  0.7091  0.2254  3.6706
16712TIP3   OH271550   4.040   4.572  14.081  0.1863  0.7776 -0.0398
16712TIP3    H171551   4.046   4.662  14.114  1.4247  0.8728 -0.4501
16712TIP3    H271552   4.111   4.566  14.016  0.7183 -0.7765  0.6475
16713TIP3   OH271553   1.702   1.486   1.159  0.1005 -0.5941 -0.0954
16713TIP3    H171554   1.761   1.557   1.185  1.0885 -0.9020 -1.3752
16713TIP3    H271555   1.681   1.505   1.067 -1.1844 -0.9192  0.1116
16714TIP3   OH271556   3.325   0.529   2.991  0.0044 -0.4069 -0.7328
16714TIP3    H171557   3.317   0.607   2.935 -1.5518  2.2241  2.7465
16714TIP3    H271558   3.242   0.483   2.980  0.1097 -0.4598 -1.3116
16715TIP3   OH271559   2.515   3.913  14.800  0.3557 -0.2309 -0.3114
16715TIP3    H171560   2.558   3.905  14.885  0.3194 -0.7256 -0.3320
16715TIP3    H271561   2.446   3.977  14.813 -0.4150 -1.1594  0.3592
16716TIP3   OH271562   5.925   0.749  11.840  0.4768 -0.1863  0.0170
16716TIP3    H171563   5.963   0.819  11.893  1.8865 -1.6708  1.0270
16716TIP3    H271564   5.973   0.753  11.758  1.0227 -0.4015  0.3253
16717TIP3   OH271565   0.942   0.786  16.746 -0.2094 -0.3902  0.1652
16717TIP3    H171566   0.896   0.703  16.761 -1.3548  0.3922  1.2094
16717TIP3    H271567   0.880   0.838  16.695  0.1005  0.1691  0.3534
16718TIP3   OH271568   2.253   6.557  16.098  0.8231 -0.2039 -0.5749
16718TIP3    H171569   2.263   6.485  16.160 -0.5017  0.1458  0.0774
16718TIP3    H271570   2.217   6.516  16.019  1.7652 -0.5195 -0.8594
16719TIP3   OH271571   5.796   4.318  16.840  0.3641  0.7441 -0.3897
16719TIP3    H171572   5.764   4.248  16.783 -0.5364  1.0343 -0.2536
16719TIP3    H271573   5.843   4.377  16.781 -0.2225  0.8355 -0.7748
16720TIP3   OH271574   5.491   4.912  10.708  0.0489 -0.2362  0.3084
16720TIP3    H171575   5.555   4.841  10.706 -0.2618 -0.5482 -2.4376
16720TIP3    H271576   5.544   4.992  10.712  0.4866 -0.5400  0.7364
16721TIP3   OH271577   3.148   5.437  11.544 -0.0055 -0.3745  0.2494
16721TIP3    H171578   3.219   5.389  11.502  0.7602 -1.1213  2.2552
16721TIP3    H271579   3.087   5.457  11.474  1.2647 -1.4073 -1.2028
16722TIP3   OH271580   6.555   0.909  12.654 -0.1904  0.4987 -0.7788
16722TIP3    H171581   6.530   0.893  12.563 -0.7990 -0.8255 -0.3973
16722TIP3    H271582   6.651   0.904  12.653 -0.1840  0.6489 -1.3666
16723TIP3   OH271583   4.224   4.320  15.526 -0.0474  0.5866 -0.2111
16723TIP3    H171584   4.181   4.327  15.611 -0.5266  2.2234 -0.5450
16723TIP3    H271585   4.310   4.284  15.545 -0.1811  0.8429  0.9602
16724TIP3   OH271586   5.107   3.091   5.279  0.0876  0.5826 -0.5621
16724TIP3    H171587   5.075   3.012   5.321  0.1335  0.9638  0.1997
16724TIP3    H271588   5.199   3.097   5.306  0.2110  0.6621 -0.9813
16725TIP3   OH271589   6.395   0.135   3.688  0.4502  0.2175  0.4718
16725TIP3    H171590   6.319   0.123   3.745  0.5836  0.4376  0.6958
16725TIP3    H271591   6.382   0.221   3.649 -0.8940 -0.8806 -1.7190
16726TIP3   OH271592   6.741   4.735  12.391  0.2318 -0.2559 -0.2578
16726TIP3    H171593   6.693   4.687  12.324  1.5663  0.3027 -1.6448
16726TIP3    H271594   6.752   4.672  12.462  1.5358 -1.8889 -1.8360
16727TIP3   OH271595   1.827   3.028  16.154 -0.2532 -0.1978  0.2982
16727TIP3    H171596   1.773   3.000  16.079 -0.7349  0.7261  0.2806
16727TIP3    H271597   1.825   2.954  16.214 -0.1016 -0.8445 -0.4740
16728TIP3   OH271598   0.144   3.056  12.773 -0.0622  0.2440 -0.5481
16728TIP3    H171599   0.137   2.961  12.767  1.2340  0.1014 -0.1273
16728TIP3    H271600   0.209   3.071  12.842 -3.4108  1.5285  2.6545
16729TIP3   OH271601   3.330   2.656  12.847 -0.4157 -0.4361  0.4674
16729TIP3    H171602   3.295   2.743  12.827 -1.1479 -0.8764 -0.2069
16729TIP3    H271603   3.311   2.644  12.940 -0.2518  0.1421  0.5835
16730TIP3   OH271604   5.741   0.019  15.983 -0.3193 -0.0258 -0.4615
16730TIP3    H171605   5.699   0.001  15.900 -0.6885 -1.5257  0.0179
16730TIP3    H271606   5.669   0.028  16.046 -0.0300  0.5750 -0.2037
16731TIP3   OH271607   5.467   3.919   0.728 -0.1023  0.2530  0.0200
16731TIP3    H171608   5.415   3.900   0.650 -1.0071 -0.2542  0.7245
16731TIP3    H271609   5.408   3.901   0.802  0.5863  1.1422  0.8184
16732TIP3   OH271610   4.295   0.590  14.478  0.0528 -0.0441 -0.6314
16732TIP3    H171611   4.286   0.500  14.510  1.7341 -0.6864 -1.8659
16732TIP3    H271612   4.384   0.616  14.503 -0.7357  1.6984  0.6202
16733TIP3   OH271613   3.119   4.945  14.158  0.0070 -0.2874  0.1339
16733TIP3    H171614   3.194   4.947  14.100 -1.2765  0.3380 -1.5901
16733TIP3    H271615   3.139   5.010  14.226 -0.3878  2.5597 -2.2439
16734TIP3   OH271616   3.341   5.296  11.736 -0.0151  0.2440  0.0456
16734TIP3    H171617   3.380   5.337  11.659 -0.6727  0.3127 -0.2565
16734TIP3    H271618   3.296   5.367  11.781  0.1321  0.1497  0.3416
16735TIP3   OH271619   4.474   3.560  17.157 -0.3278 -0.3056 -0.1849
16735TIP3    H171620   4.433   3.566  17.243  1.7357 -3.0309  1.1311
16735TIP3    H271621   4.537   3.632  17.155 -0.8316  0.1552  0.3143
16736TIP3   OH271622   2.297   4.749  13.901  0.4479 -0.0420 -0.2433
16736TIP3    H171623   2.282   4.693  13.825 -0.8482 -0.1195  0.0504
16736TIP3    H271624   2.246   4.709  13.972  0.7748  0.6208  0.3910
16737TIP3   OH271625   0.305   1.652   3.701  0.7162  0.2175  0.1998
16737TIP3    H171626   0.371   1.590   3.733 -0.0158 -0.8699 -0.3257
16737TIP3    H271627   0.353   1.709   3.641  1.3909  0.1316  0.6394
16738TIP3   OH271628   5.488   4.071   1.947  0.0783  0.3989 -0.0761
16738TIP3    H171629   5.419   4.136   1.936  0.4394  0.4937 -2.5104
16738TIP3    H271630   5.491   4.025   1.862  1.4965 -1.1056  0.7211
16739TIP3   OH271631   2.428   0.051  11.376 -0.0211  0.1539  0.0439
16739TIP3    H171632   2.407   0.109  11.450  0.4810 -0.6859  0.8735
16739TIP3    H271633   2.382  -0.031  11.397 -1.5916  0.5351 -1.6320
16740TIP3   OH271634   4.364   4.503  12.747  0.4152  0.3250 -0.0666
16740TIP3    H171635   4.304   4.578  12.743 -0.5653 -0.4932 -1.6551
16740TIP3    H271636   4.345   4.461  12.830  1.7584  2.4078  1.4069
16741TIP3   OH271637   1.560   3.057  12.191 -0.0034 -0.3008 -0.0494
16741TIP3    H171638   1.470   3.045  12.221  0.9096  0.1940  3.3134
16741TIP3    H271639   1.556   3.043  12.097 -3.6769  0.2675 -0.1315
16742TIP3   OH271640   3.681   1.019  11.465 -0.6725  0.1610  0.1007
16742TIP3    H171641   3.734   1.026  11.545 -1.2560 -0.0083  0.5019
16742TIP3    H271642   3.592   1.038  11.494 -0.4007  4.8861 -1.2409
16743TIP3   OH271643   2.051   3.317   1.064 -0.6118 -0.2168 -0.3724
16743TIP3    H171644   2.139   3.337   1.097 -1.5078  1.1219  1.3980
16743TIP3    H271645   2.023   3.241   1.115 -0.2443 -1.0784 -1.4271
16744TIP3   OH271646   2.023   3.103   2.732  0.4631 -0.1151  0.6004
16744TIP3    H171647   1.997   3.014   2.707  1.5275 -0.5091  0.8404
16744TIP3    H271648   1.940   3.147   2.752 -0.0669 -1.1189  0.7136
16745TIP3   OH271649   1.190   6.474   0.612  0.1101  0.3809 -0.1743
16745TIP3    H171650   1.181   6.569   0.625  0.5813  0.2709  1.1014
16745TIP3    H271651   1.100   6.441   0.610 -0.0386  0.5824  1.7350
16746TIP3   OH271652   2.167   5.271   5.223 -0.1369  0.1235 -0.0396
16746TIP3    H171653   2.241   5.307   5.272 -1.3166  1.8690  0.5877
16746TIP3    H271654   2.118   5.219   5.287 -0.0901 -0.0394 -0.1366
16747TIP3   OH271655   1.556   0.812   2.876 -0.2515 -0.2321 -0.3342
16747TIP3    H171656   1.544   0.718   2.891 -1.7774 -0.2568 -1.5389
16747TIP3    H271657   1.550   0.851   2.963  0.1778 -1.2104  0.1526
16748TIP3   OH271658   2.065   3.342  11.806  0.0993 -0.6265  0.2720
16748TIP3    H171659   1.995   3.405  11.788  0.3703 -0.2799  0.4377
16748TIP3    H271660   2.140   3.375  11.757 -0.2448 -1.7888 -1.1311
16749TIP3   OH271661   6.034   0.290  16.771 -0.4710  0.2551  0.1992
16749TIP3    H171662   6.036   0.212  16.716  1.1293  0.7779 -0.5371
16749TIP3    H271663   6.055   0.259  16.859 -0.9251 -0.2799  0.1241
16750TIP3   OH271664   5.597   5.641   0.514 -0.0666 -0.1435  0.2499
16750TIP3    H171665   5.603   5.657   0.420 -1.4950  0.8469  0.2944
16750TIP3    H271666   5.512   5.598   0.526  0.7969 -1.7484  0.9318
16751TIP3   OH271667   0.068   6.401  13.356  0.1758  0.4125  0.7856
16751TIP3    H171668   0.006   6.459  13.402  0.6031  1.4857  0.0502
16751TIP3    H271669   0.018   6.321  13.340 -0.5389  0.6782  1.5525
16752TIP3   OH271670   5.763   2.653  16.687 -0.2633 -0.0302  0.1712
16752TIP3    H171671   5.679   2.617  16.660 -0.5454  1.8289 -1.7350
16752TIP3    H271672   5.800   2.690  16.606  0.5800  2.6266  1.6526
16753TIP3   OH271673   1.877   3.306   3.239  0.0118 -0.1757  0.5875
16753TIP3    H171674   1.791   3.296   3.197  0.7805  0.3256 -1.2184
16753TIP3    H271675   1.930   3.235   3.201  0.2387 -0.8921  2.1807
16754TIP3   OH271676   0.890   5.395   2.187  0.2118  0.0638 -0.1721
16754TIP3    H171677   0.945   5.336   2.237  1.1683  2.4839  1.8358
16754TIP3    H271678   0.941   5.475   2.179 -1.2868  0.9214 -2.1670
16755TIP3   OH271679   5.074   4.637  14.118 -0.4103  0.4718 -0.0572
16755TIP3    H171680   5.020   4.714  14.102 -1.4746 -0.4160 -0.9069
16755TIP3    H271681   5.160   4.660  14.082 -0.2404  1.8172  1.1054
16756TIP3   OH271682   5.231   1.043  11.570 -0.2193  0.1615  0.4759
16756TIP3    H171683   5.325   1.027  11.577 -0.2910 -0.9831 -0.6899
16756TIP3    H271684   5.219   1.071  11.479 -1.0801 -0.3624  0.4163
16757TIP3   OH271685   5.382   3.943  16.804 -0.2590  0.4952  0.0574
16757TIP3    H171686   5.289   3.963  16.788 -0.1441  0.2877 -0.9674
16757TIP3    H271687   5.417   3.923  16.717  0.3730 -1.0618  0.6508
16758TIP3   OH271688   5.598   3.401   6.585  0.0417 -0.1129  0.1673
16758TIP3    H171689   5.555   3.362   6.509  0.4728 -0.2844  0.0078
16758TIP3    H271690   5.529   3.410   6.650 -0.2997 -0.1011 -0.1941
16759TIP3   OH271691   5.449   5.618   3.508 -0.0739 -0.3972 -0.0654
16759TIP3    H171692   5.376   5.556   3.512 -0.0117 -0.5140 -0.6534
16759TIP3    H271693   5.488   5.615   3.595  1.2937 -2.8484 -0.6521
16760TIP3   OH271694   0.517   3.619   2.378  0.0534  0.5922 -0.4102
16760TIP3    H171695   0.559   3.538   2.409 -1.4305 -0.3537 -0.7542
16760TIP3    H271696   0.493   3.600   2.287  2.0442  2.4122 -1.4256
16761TIP3   OH271697   4.216   5.494   4.909  0.5331  0.3370 -0.3316
16761TIP3    H171698   4.215   5.588   4.927 -0.9094  0.5549 -1.4215
16761TIP3    H271699   4.125   5.471   4.893  0.8078 -1.3441  0.2580
16762TIP3   OH271700   2.827   1.229  16.899  0.2212  0.3459 -0.3558
16762TIP3    H171701   2.806   1.231  16.806 -0.1130 -2.5695 -0.4530
16762TIP3    H271702   2.908   1.177  16.904 -1.2166 -1.9665  1.0672
16763TIP3   OH271703   4.924   6.452   2.295  0.1779  0.2724 -0.1931
16763TIP3    H171704   5.007   6.444   2.342 -0.5169 -0.2703  0.9745
16763TIP3    H271705   4.885   6.533   2.328  0.1186  0.3972 -0.5596
16764TIP3   OH271706   2.955   6.262  14.859  1.0514 -0.2332 -0.0831
16764TIP3    H171707   2.915   6.285  14.944 -0.1749 -0.3551 -0.6004
16764TIP3    H271708   3.021   6.197  14.881 -1.4556 -2.7907  0.5213
16765TIP3   OH271709   1.180   3.803   0.307 -0.0874  0.4533 -0.4139
16765TIP3    H171710   1.150   3.893   0.317 -1.5655  0.0055 -0.5707
16765TIP3    H271711   1.254   3.795   0.367  0.9232  2.1254 -1.3426
16766TIP3   OH271712   1.841   0.327   5.842  0.2083  0.5162 -0.0928
16766TIP3    H171713   1.816   0.236   5.860 -0.9622  0.7221 -0.5831
16766TIP3    H271714   1.922   0.320   5.793  1.1409 -0.1949  1.4650
16767TIP3   OH271715   0.638   6.586   0.955 -0.2309  0.3279  0.5349
16767TIP3    H171716   0.706   6.596   0.888 -1.2420 -0.1600 -0.6048
16767TIP3    H271717   0.557   6.605   0.909 -0.9807 -0.2752  1.5729
16768TIP3   OH271718   5.929   3.167   4.844  0.0382  0.2075 -0.1897
16768TIP3    H171719   6.001   3.184   4.783  2.0023  0.0620  1.9376
16768TIP3    H271720   5.943   3.230   4.916  0.2423 -2.2087  2.0168
16769TIP3   OH271721   6.740   0.115  15.048 -0.4038 -0.5084  0.6442
16769TIP3    H171722   6.825   0.074  15.061  1.3862  2.7647  0.3740
16769TIP3    H271723   6.693   0.056  14.989  1.8440 -2.2015  0.4346
16770TIP3   OH271724   5.143   1.545  11.159 -0.0440 -0.3642 -0.1460
16770TIP3    H171725   5.220   1.488  11.163  1.7885  1.9681 -0.5514
16770TIP3    H271726   5.160   1.605  11.087 -2.3166  0.1815 -0.3247
16771TIP3   OH271727   6.742   5.093   2.873 -0.1638  0.2368 -0.2121
16771TIP3    H171728   6.731   5.174   2.922  0.7739 -0.5099  1.3516
16771TIP3    H271729   6.676   5.034   2.909 -0.2345  0.0209 -0.6838
16772TIP3   OH271730   0.015   3.297   3.201 -0.0517  0.3149  0.3588
16772TIP3    H171731   0.038   3.257   3.118 -2.7905 -1.6377  0.4218
16772TIP3    H271732   0.064   3.248   3.267 -2.0137 -1.9343  0.2708
16773TIP3   OH271733   1.514   0.361  14.810  0.0425 -0.2705 -0.5077
16773TIP3    H171734   1.470   0.299  14.868 -0.6330 -0.3421 -1.0703
16773TIP3    H271735   1.447   0.382  14.744  0.1314  1.3474 -0.1080
16774TIP3   OH271736   0.224   0.013   0.939 -0.1112 -0.1283 -0.5653
16774TIP3    H171737   0.144  -0.022   0.977  0.7634 -0.2885  1.2219
16774TIP3    H271738   0.280  -0.063   0.927  1.1142  0.3373  1.6466
16775TIP3   OH271739   1.723   6.680   1.781 -0.4730  0.0631 -0.0474
16775TIP3    H171740   1.713   6.699   1.687 -0.0833  0.1198 -0.0799
16775TIP3    H271741   1.760   6.591   1.783  0.2512  0.3590  0.0276
16776TIP3   OH271742   2.031   5.989  11.493  0.1866 -0.4413 -0.4320
16776TIP3    H171743   2.040   6.030  11.407  2.8412 -0.4645 -0.2588
16776TIP3    H271744   1.983   6.053  11.546 -2.6413 -0.9542 -2.1813
16777TIP3   OH271745   6.732   1.826   0.420 -0.2111  0.3459  0.5225
16777TIP3    H171746   6.678   1.885   0.474 -1.0532 -0.8964  1.0768
16777TIP3    H271747   6.819   1.865   0.422 -1.0810  2.5106 -0.5357
16778TIP3   OH271748   1.760   1.488  17.142  0.2460 -0.7074 -0.2692
16778TIP3    H171749   1.783   1.506  17.233  0.0674  0.0002 -0.3610
16778TIP3    H271750   1.803   1.405  17.123 -1.5177 -2.0280  1.1391
16779TIP3   OH271751   3.304   0.266   1.821  0.2421  0.0355  0.2007
16779TIP3    H171752   3.329   0.187   1.773 -1.8821  0.0815 -1.0706
16779TIP3    H271753   3.271   0.326   1.755  1.7799  2.0446  1.1447
16780TIP3   OH271754   5.703   1.101  13.625  0.5310  0.1966  0.4973
16780TIP3    H171755   5.626   1.067  13.579  0.3442  0.8353  0.3347
16780TIP3    H271756   5.743   1.023  13.664  0.1837 -0.2327  0.0174
16781TIP3   OH271757   2.186   3.299  13.296 -0.9098  0.2820  0.0528
16781TIP3    H171758   2.173   3.392  13.316  0.4583  0.5758 -0.3187
16781TIP3    H271759   2.107   3.256  13.330 -0.5386  1.2705  2.3058
16782TIP3   OH271760   1.625   1.609  13.351  0.4563  0.0489  0.1902
16782TIP3    H171761   1.605   1.653  13.433 -1.3055 -0.7151  0.2018
16782TIP3    H271762   1.631   1.516  13.374  0.1425 -0.1482 -0.4965
16783TIP3   OH271763   2.629   3.034  16.256 -0.3364  0.4991 -0.2935
16783TIP3    H171764   2.632   2.961  16.194 -1.1275  0.5228 -0.3730
16783TIP3    H271765   2.536   3.052  16.267 -0.1775  0.9521  0.3746
16784TIP3   OH271766   4.340   5.591   4.063 -0.1085 -0.0896 -0.2849
16784TIP3    H171767   4.411   5.550   4.113 -0.4333 -0.5898 -0.2292
16784TIP3    H271768   4.260   5.565   4.108 -0.4695 -1.2260 -1.5120
16785TIP3   OH271769   5.521   3.023   2.541 -0.1499  0.1993  0.2189
16785TIP3    H171770   5.576   3.023   2.463 -1.0627  0.7180 -0.4339
16785TIP3    H271771   5.548   2.945   2.589  1.8910  1.0036  0.4526
16786TIP3   OH271772   4.470   4.737  11.600 -0.7450  0.4133 -0.5252
16786TIP3    H171773   4.461   4.833  11.596 -1.2385  0.3993  0.0754
16786TIP3    H271774   4.380   4.705  11.592 -0.3607 -0.1840 -4.3863
16787TIP3   OH271775   1.245   5.684   6.055 -0.2103 -0.2912 -0.1991
16787TIP3    H171776   1.294   5.638   6.123 -0.4859 -2.1199 -1.1996
16787TIP3    H271777   1.155   5.654   6.065 -1.2117  2.7633  1.3916
16788TIP3   OH271778   4.067   4.915  11.099 -0.0674  0.3529  0.4561
16788TIP3    H171779   4.077   4.972  11.022 -0.7593  0.6068  0.5429
16788TIP3    H271780   4.149   4.867  11.104 -0.2635 -0.1721 -0.8549
16789TIP3   OH271781   4.337   6.772   5.083  0.2398 -0.3130  0.4140
16789TIP3    H171782   4.243   6.785   5.099 -0.0221 -0.3612 -0.9616
16789TIP3    H271783   4.365   6.854   5.041  0.6916 -0.5125  0.3245
16790TIP3   OH271784   5.136   0.469   5.166  0.7904  0.3810 -0.1866
16790TIP3    H171785   5.117   0.553   5.208  2.3115  0.6314  0.0269
16790TIP3    H271786   5.071   0.409   5.204  0.8839  1.0353  1.0657
16791TIP3   OH271787   0.139   0.035  15.641  0.4082 -0.1654 -0.4967
16791TIP3    H171788   0.060   0.084  15.619 -0.0021  0.5133  2.1553
16791TIP3    H271789   0.192   0.096  15.692  1.2233 -1.5612  0.4090
16792TIP3   OH271790   5.591   0.445  14.401  0.3373  0.2911  0.0982
16792TIP3    H171791   5.643   0.505  14.455 -1.4338  1.2438  0.8251
16792TIP3    H271792   5.570   0.372  14.460 -0.8668  0.9129  0.4627
16793TIP3   OH271793   0.907   6.519  15.765  0.1662  0.3175 -0.4737
16793TIP3    H171794   0.898   6.550  15.855 -0.8506  2.9308 -1.4039
16793TIP3    H271795   0.823   6.537  15.724  0.5461 -0.9941 -1.9512
16794TIP3   OH271796   6.617   6.750  11.127  0.1370 -0.4079  0.2260
16794TIP3    H171797   6.558   6.756  11.052 -1.7350 -2.8774  1.3517
16794TIP3    H271798   6.678   6.680  11.104 -0.3164 -1.0355  0.8726
16795TIP3   OH271799   2.944   3.464  12.185  0.2001  0.5009  0.3537
16795TIP3    H171800   2.961   3.372  12.164  0.4538  0.7448 -0.5353
16795TIP3    H271801   2.989   3.513  12.116 -1.2797  1.2466 -0.1263
16796TIP3   OH271802   3.246   4.414  15.706  0.9722 -0.1431 -0.8910
16796TIP3    H171803   3.216   4.408  15.797  1.6973 -0.4533 -0.6647
16796TIP3    H271804   3.341   4.423  15.713  1.4414 -3.3026 -1.6299
16797TIP3   OH271805   4.997   3.977   0.408  0.0747  0.3839  0.1170
16797TIP3    H171806   5.064   4.040   0.435  0.4687 -0.6054  1.5815
16797TIP3    H271807   5.000   3.909   0.476  0.1173 -1.5562 -1.7193
16798TIP3   OH271808   0.954   5.274   2.488 -0.0904  0.5820  0.2061
16798TIP3    H171809   1.036   5.246   2.448  0.9480  0.0957  2.5437
16798TIP3    H271810   0.918   5.195   2.528 -2.3316  0.5350 -1.6945
16799TIP3   OH271811   6.246   3.522  12.326 -0.4674  0.3707 -0.0314
16799TIP3    H171812   6.228   3.428  12.325  1.5661 -0.1140  1.6962
16799TIP3    H271813   6.326   3.531  12.273 -0.4591  1.0669  0.0947
16800TIP3   OH271814   0.063   1.789   4.526  0.4795 -0.0558  0.5141
16800TIP3    H171815   0.072   1.719   4.461  0.1836  0.9962 -0.6993
16800TIP3    H271816   0.094   1.750   4.608 -1.1081 -2.0947  0.2233
16801TIP3   OH271817   6.080   1.800  14.158  0.7537 -0.0735 -0.2401
16801TIP3    H171818   6.073   1.892  14.134 -0.1168 -0.5095 -1.7933
16801TIP3    H271819   6.171   1.777  14.142  0.1968 -0.4137 -3.7021
16802TIP3   OH271820   1.568   4.062   3.913  0.1566  0.4895 -0.1927
16802TIP3    H171821   1.655   4.052   3.950  0.4714  0.5624 -0.8952
16802TIP3    H271822   1.509   4.021   3.976  0.7769 -0.2384 -0.0812
16803TIP3   OH271823   4.632   3.280  15.098  0.0882 -0.2902 -0.6674
16803TIP3    H171824   4.718   3.250  15.068  0.6161 -2.1813  2.2621
16803TIP3    H271825   4.577   3.202  15.091 -0.1961 -0.3304  1.3683
16804TIP3   OH271826   3.231   0.376   4.694 -0.1202 -0.2374  0.6188
16804TIP3    H171827   3.138   0.363   4.673 -0.0283  0.5415 -0.3514
16804TIP3    H271828   3.268   0.288   4.690 -0.3073 -0.2766 -1.7120
16805TIP3   OH271829   3.707   1.160   1.847  0.3309 -0.0953  0.0127
16805TIP3    H171830   3.693   1.237   1.902 -1.3651 -1.1064  1.1213
16805TIP3    H271831   3.793   1.127   1.872 -0.6480 -0.8998  2.6727
16806TIP3   OH271832   1.818   2.731   0.242 -0.3691  0.0136  0.1846
16806TIP3    H171833   1.885   2.746   0.308 -0.8292 -1.4948  1.0213
16806TIP3    H271834   1.747   2.790   0.266 -0.2889 -0.0824  0.6553
16807TIP3   OH271835   1.131   0.986   1.865  0.2207 -0.4162 -0.2766
16807TIP3    H171836   1.223   0.977   1.842  0.6751  0.1396  1.1850
16807TIP3    H271837   1.127   0.959   1.957 -1.1493 -0.7830 -0.4141
16808TIP3   OH271838   0.096   1.112  12.484  0.0731 -0.4086 -0.9153
16808TIP3    H171839   0.102   1.130  12.390 -0.5365  1.0614 -0.6900
16808TIP3    H271840   0.006   1.132  12.507  0.6751  1.0198  0.3305
16809TIP3   OH271841   2.772   0.456   2.261  0.1165 -0.1546  0.3612
16809TIP3    H171842   2.710   0.519   2.297  1.7747  0.0122  3.3260
16809TIP3    H271843   2.855   0.477   2.305  2.0449 -1.0930 -2.5090
16810TIP3   OH271844   0.638   1.963   5.586 -0.0486 -0.7055  0.4149
16810TIP3    H171845   0.596   2.046   5.564 -1.7403 -1.5411  0.2839
16810TIP3    H271846   0.655   1.922   5.501 -1.2318 -1.4063  0.4900
16811TIP3   OH271847   6.691   2.722   3.002  0.0127  1.1061 -0.1309
16811TIP3    H171848   6.653   2.692   2.920 -1.1693  1.3835  0.2969
16811TIP3    H271849   6.710   2.643   3.052  1.6121  0.8819 -1.0104
16812TIP3   OH271850   3.794   0.078   1.802  0.2313  0.3173 -0.4866
16812TIP3    H171851   3.777   0.111   1.714  1.2104  0.0753 -0.7751
16812TIP3    H271852   3.712   0.035   1.827  0.3603 -0.7501 -1.7982
16813TIP3   OH271853   1.060   4.009   3.562 -0.4032  0.0828 -0.1916
16813TIP3    H171854   1.068   4.034   3.470 -1.4833 -1.7849 -0.8601
16813TIP3    H271855   1.139   4.043   3.604  1.7135 -1.6979 -2.4667
16814TIP3   OH271856   3.321   6.179   0.699  0.1540  0.2197  0.0272
16814TIP3    H171857   3.245   6.160   0.644  1.6022 -3.6220 -0.9979
16814TIP3    H271858   3.342   6.096   0.741  2.8199  1.5136  1.5409
16815TIP3   OH271859   2.432   3.384  14.282  0.0557 -0.0359 -0.1311
16815TIP3    H171860   2.351   3.410  14.238  0.3682 -0.9738 -1.3038
16815TIP3    H271861   2.500   3.437  14.241  0.0881  0.5458  0.6534
16816TIP3   OH271862   1.415   3.495   2.742  0.1184  0.6076  0.2546
16816TIP3    H171863   1.464   3.566   2.700  0.3015 -0.3783 -1.2702
16816TIP3    H271864   1.416   3.424   2.678  0.2960 -0.9399  1.8992
16817TIP3   OH271865   3.700   3.731   4.969 -0.0415 -0.1595  0.2254
16817TIP3    H171866   3.685   3.669   4.897 -1.3655 -0.2586  0.5639
16817TIP3    H271867   3.791   3.759   4.957  0.0072 -0.7539 -1.0349
16818TIP3   OH271868   1.587   3.765  16.669  0.1019  0.1982  0.1667
16818TIP3    H171869   1.502   3.722  16.665  0.2671 -0.1561  0.4093
16818TIP3    H271870   1.633   3.722  16.741  0.6031  0.1711 -0.1637
16819TIP3   OH271871   4.285   6.061   0.310 -0.2045  0.7691  0.0429
16819TIP3    H171872   4.277   6.034   0.401 -0.9515  0.7860 -0.0051
16819TIP3    H271873   4.377   6.050   0.289 -0.4374 -1.8085  0.0145
16820TIP3   OH271874   4.378   5.800   3.541 -0.3778  0.2059  0.1874
16820TIP3    H171875   4.363   5.839   3.627  0.4440 -1.0105  0.9063
16820TIP3    H271876   4.308   5.835   3.486 -0.7210  1.2537  1.2584
16821TIP3   OH271877   5.266   6.578   3.157 -0.3396  0.0398 -0.4262
16821TIP3    H171878   5.262   6.517   3.231 -0.3689  1.3221  0.6734
16821TIP3    H271879   5.329   6.645   3.185  0.1485  0.2032 -1.8532
16822TIP3   OH271880   0.894   4.297  11.685 -0.0272 -0.3252 -0.8052
16822TIP3    H171881   0.876   4.276  11.593  1.4005  0.0788 -1.1934
16822TIP3    H271882   0.887   4.392  11.689 -1.0075 -0.4021 -0.2640
16823TIP3   OH271883   6.321   5.993   2.967 -0.0426 -0.2995 -0.1346
16823TIP3    H171884   6.339   5.980   2.874 -1.2112  0.2903 -0.4574
16823TIP3    H271885   6.372   6.070   2.991 -1.1356  0.6442 -0.7480
16824TIP3   OH271886   6.317   3.603  16.639 -0.4924  0.8133 -0.2117
16824TIP3    H171887   6.280   3.523  16.601  1.6687  0.4042 -1.6464
16824TIP3    H271888   6.373   3.572  16.710 -0.5537  1.1360 -0.0219
16825TIP3   OH271889   2.389   2.796   1.016  0.4910  0.6475 -0.2709
16825TIP3    H171890   2.395   2.776   0.923  0.0229 -1.7953  0.1432
16825TIP3    H271891   2.456   2.863   1.031  0.0750  1.6272 -2.4518
16826TIP3   OH271892   5.101   0.483  10.953 -0.2750  0.1940  0.1721
16826TIP3    H171893   5.076   0.537  10.878 -0.8154 -1.4306 -0.8555
16826TIP3    H271894   5.030   0.495  11.016  0.8252  2.6333  1.0820
16827TIP3   OH271895   3.130   5.864  14.034 -0.2336 -0.1289 -0.5282
16827TIP3    H171896   3.062   5.908  13.983 -0.8389  1.8342  1.7885
16827TIP3    H271897   3.103   5.772  14.036 -0.5821 -0.1293 -2.9871
16828TIP3   OH271898   0.479   4.415   3.559  0.0462  0.1475  0.7438
16828TIP3    H171899   0.511   4.456   3.478  1.3790 -0.8730  0.7202
16828TIP3    H271900   0.553   4.361   3.590 -1.7204 -2.5317  0.5895
16829TIP3   OH271901   3.203   6.457  14.719 -0.4332  0.5913  0.4163
16829TIP3    H171902   3.187   6.465  14.625 -0.6385  2.6279  0.5872
16829TIP3    H271903   3.246   6.371  14.729  0.2324  0.6427 -1.6157
16830TIP3   OH271904   1.409   0.993   2.679 -0.1449  0.4577 -0.3085
16830TIP3    H171905   1.352   1.036   2.744 -1.9242 -1.5954 -0.3886
16830TIP3    H271906   1.459   0.928   2.730 -1.0163 -0.6557 -0.8265
16831TIP3   OH271907   1.067   1.134  11.064 -0.1454 -0.7537 -0.7714
16831TIP3    H171908   1.047   1.081  11.141  1.9417 -0.4682  0.0324
16831TIP3    H271909   1.106   1.072  11.002  3.8162 -0.1031  0.7743
16832TIP3   OH271910   0.503   2.450   3.704  0.4929  0.5371 -0.4294
16832TIP3    H171911   0.499   2.427   3.797  3.4542  1.6766  0.0799
16832TIP3    H271912   0.466   2.538   3.700 -0.0730  0.3064 -0.4462
16833TIP3   OH271913   3.292   3.873   5.266  0.2445  0.8530 -0.2079
16833TIP3    H171914   3.242   3.922   5.201  0.4103  0.9408 -0.2684
16833TIP3    H271915   3.321   3.794   5.221 -1.5445 -0.2031  0.3827
16834TIP3   OH271916   2.987   5.797   3.548  0.0432  0.6336  0.4348
16834TIP3    H171917   3.060   5.860   3.547  0.2279  0.4189  0.4143
16834TIP3    H271918   3.026   5.716   3.580 -0.1959  0.5279  0.4539
16835TIP3   OH271919   5.644   2.788   2.427 -0.8778 -0.1596  0.0412
16835TIP3    H171920   5.640   2.692   2.428 -0.5567 -0.2003 -1.0670
16835TIP3    H271921   5.736   2.808   2.443 -0.9759 -0.0330  0.4401
16836TIP3   OH271922   0.028   3.280  12.705 -0.3112 -0.3600  0.0752
16836TIP3    H171923   0.106   3.322  12.669  0.4609 -1.8710 -0.1148
16836TIP3    H271924   0.058   3.192  12.730 -1.5006 -0.3332  1.7755
16837TIP3   OH271925   1.330   0.122   2.019 -0.1912 -0.6394 -0.1630
16837TIP3    H171926   1.312   0.055   2.085  0.2388 -0.8049 -0.2116
16837TIP3    H271927   1.354   0.199   2.069 -0.8808 -0.4533 -0.0999
16838TIP3   OH271928   2.187   5.913   5.847  0.7802 -0.5635  0.4925
16838TIP3    H171929   2.180   5.994   5.797  1.6339 -0.0873  1.1237
16838TIP3    H271930   2.101   5.902   5.887  1.2347  1.1256  2.0340
16839TIP3   OH271931   1.135   3.895  12.426 -0.7172  0.2663 -0.0642
16839TIP3    H171932   1.195   3.862  12.359 -1.5109 -0.3217 -0.5049
16839TIP3    H271933   1.175   3.975  12.457  0.1831  0.0008 -0.5150
16840TIP3   OH271934   3.099   5.566   3.606  0.1449  0.0781  0.0047
16840TIP3    H171935   3.039   5.519   3.548  0.1473 -0.1837  0.2139
16840TIP3    H271936   3.184   5.527   3.588  0.5232  1.4376 -1.3622
16841TIP3   OH271937   6.328   4.189   3.955  0.1909 -0.4363  0.1470
16841TIP3    H171938   6.423   4.199   3.962  0.3541 -0.3288 -1.7704
16841TIP3    H271939   6.312   4.098   3.978  0.6067 -0.2052  1.4701
16842TIP3   OH271940   5.060   2.384  16.197  0.3186  0.5043  0.3929
16842TIP3    H171941   5.150   2.353  16.205  0.1296  0.1405  1.2077
16842TIP3    H271942   5.016   2.352  16.276 -0.0680  2.2673  0.9427
16843TIP3   OH271943   0.724   4.676   3.110  0.1936  0.2138 -0.3922
16843TIP3    H171944   0.682   4.760   3.091  0.1826  0.1620 -0.6006
16843TIP3    H271945   0.767   4.689   3.194  0.1691  0.4206 -0.4121
16844TIP3   OH271946   1.891   5.690   2.834  0.2224 -0.2922 -0.3104
16844TIP3    H171947   1.806   5.719   2.802  0.6214 -0.7063 -1.8289
16844TIP3    H271948   1.882   5.595   2.847 -1.0382  0.1999  4.5077
16845TIP3   OH271949   5.639   4.681  16.179 -0.0029  0.5313  0.0885
16845TIP3    H171950   5.573   4.622  16.215  0.7704  0.9616  2.3875
16845TIP3    H271951   5.589   4.747  16.130 -0.9667 -1.1588 -1.3311
16846TIP3   OH271952   2.408   2.813   5.867 -0.1040 -0.0165  0.2865
16846TIP3    H171953   2.383   2.769   5.948  2.5659 -1.0355  0.6532
16846TIP3    H271954   2.423   2.904   5.893  0.2926 -0.2389  0.8726
16847TIP3   OH271955   5.076   6.169   2.204 -0.1141 -0.0400  0.0297
16847TIP3    H171956   5.063   6.263   2.222 -2.4398 -0.2476 -0.3627
16847TIP3    H271957   5.085   6.164   2.109 -1.2354 -0.3301 -0.0671
16848TIP3   OH271958   2.861   3.316   1.084 -0.7711  0.2569 -0.4081
16848TIP3    H171959   2.847   3.373   1.160 -2.1177 -0.8055  0.1727
16848TIP3    H271960   2.795   3.343   1.021 -0.8060 -0.0463 -0.5022
16849TIP3   OH271961   5.195   0.343   0.192  0.9809  0.4600  0.7233
16849TIP3    H171962   5.183   0.339   0.098 -1.2780 -0.0316  0.9965
16849TIP3    H271963   5.226   0.256   0.216 -1.4511 -0.4508  0.7692
16850TIP3   OH271964   4.202   2.859  13.944 -0.2996 -0.2393 -0.0734
16850TIP3    H171965   4.220   2.844  14.037 -0.3193  1.6531  0.2726
16850TIP3    H271966   4.119   2.814  13.928 -1.7537  1.6838  1.5478
16851TIP3   OH271967   0.031   2.804   4.706 -0.2878 -0.1682  0.4199
16851TIP3    H171968   0.086   2.821   4.629 -0.3247 -2.2430 -0.1091
16851TIP3    H271969   0.094   2.796   4.778  0.0409 -1.4777  0.0048
16852TIP3   OH271970   1.297   2.236   0.542  0.1812 -0.2369  0.5412
16852TIP3    H171971   1.236   2.308   0.561 -0.3317 -0.3725 -0.5071
16852TIP3    H271972   1.297   2.230   0.446 -0.2823 -2.0466  0.6197
16853TIP3   OH271973   0.948   3.630  12.906  0.1903  0.2929  0.2441
16853TIP3    H171974   0.873   3.678  12.941 -1.1359 -1.9420  0.6671
16853TIP3    H271975   1.021   3.690  12.916 -1.6293  2.9370 -0.9905
16854TIP3   OH271976   4.414   6.021   4.771  0.1839 -0.2082  0.1228
16854TIP3    H171977   4.438   6.023   4.678  0.6048 -2.5650  0.0995
16854TIP3    H271978   4.445   6.104   4.806 -0.8891  1.1637 -2.0253
16855TIP3   OH271979   5.608   6.423  13.136 -0.0328  0.2698 -0.1037
16855TIP3    H171980   5.602   6.392  13.045  1.7625 -0.0564 -0.1533
16855TIP3    H271981   5.672   6.494  13.132 -0.9058  1.1208  0.7197
16856TIP3   OH271982   0.937   2.332  15.052 -0.9212 -0.0998 -0.0500
16856TIP3    H171983   0.973   2.251  15.017  1.5308 -0.2353  2.4217
16856TIP3    H271984   0.889   2.305  15.131 -1.3667  0.7028 -0.0362
16857TIP3   OH271985   0.662   2.992   3.296 -0.3461 -0.0353 -0.5469
16857TIP3    H171986   0.655   2.903   3.261 -0.8042 -0.6415  1.0135
16857TIP3    H271987   0.587   3.039   3.258 -1.4428 -0.9672  0.3974
16858TIP3   OH271988   0.290   1.178  14.231 -0.3444 -0.5014 -0.0829
16858TIP3    H171989   0.198   1.198  14.216 -0.1821 -0.2577 -0.8310
16858TIP3    H271990   0.337   1.239  14.175  0.2575 -0.8752  0.0047
16859TIP3   OH271991   2.445   4.817   0.173 -0.2520  0.2000  0.1859
16859TIP3    H171992   2.404   4.833   0.258  0.5225  0.6468  0.4820
16859TIP3    H271993   2.470   4.725   0.176 -0.5742  0.1148  0.2931
16860TIP3   OH271994   0.421   3.595   5.862 -0.2547 -0.0992  0.2864
16860TIP3    H171995   0.420   3.504   5.831 -0.2906 -0.0195  0.0583
16860TIP3    H271996   0.513   3.614   5.878 -0.3064 -0.3964  0.9734
16861TIP3   OH271997   6.728   3.782  16.964 -0.1239  0.2659 -0.3822
16861TIP3    H171998   6.639   3.760  16.992 -0.5729  2.6654  0.2722
16861TIP3    H271999   6.762   3.700  16.928 -1.8535 -1.2476  1.1927
16862TIP3   OH272000   1.575   5.087   3.444 -0.1199  0.4270  0.2172
16862TIP3    H172001   1.546   5.122   3.360  1.9612  1.2750 -0.2083
16862TIP3    H272002   1.538   5.146   3.509  0.7070  1.5858 -0.3233
16863TIP3   OH272003   6.580   6.186  14.090  0.3400  0.5209 -0.1777
16863TIP3    H172004   6.529   6.264  14.069 -1.0125 -0.5876 -1.2119
16863TIP3    H272005   6.617   6.157  14.006 -1.3949 -1.4174 -0.3634
16864TIP3   OH272006   4.526   3.427  12.940  0.2973  0.2134 -0.0033
16864TIP3    H172007   4.534   3.349  12.886  0.3578  1.7235 -2.3354
16864TIP3    H272008   4.457   3.478  12.899 -0.6404  0.8711  2.2069
16865TIP3   OH272009   2.058   3.053  11.305 -0.8290  0.0110  0.7287
16865TIP3    H172010   1.997   2.997  11.353 -1.4324 -1.1037 -1.2282
16865TIP3    H272011   2.036   3.038  11.213  1.0161  1.2035  0.0519
16866TIP3   OH272012   0.883   0.189   2.386 -0.4152 -0.3515  0.9989
16866TIP3    H172013   0.903   0.156   2.298  1.2736  0.0303  1.2085
16866TIP3    H272014   0.806   0.140   2.413 -0.7693 -0.7119 -0.5671
16867TIP3   OH272015   1.268   3.049  15.829  0.1486 -0.2794  0.2276
16867TIP3    H172016   1.236   3.001  15.753  5.3706  1.4432 -3.6411
16867TIP3    H272017   1.258   3.141  15.805  1.4042  0.3425  1.8957
16868TIP3   OH272018   1.321   4.563   5.450  0.6980 -0.3101 -0.1650
16868TIP3    H172019   1.225   4.554   5.455  0.7900 -0.4659  2.4756
16868TIP3    H272020   1.353   4.474   5.440  0.6112 -0.4790  0.9200
16869TIP3   OH272021   2.903   1.253   5.940  0.1136 -0.0752  0.1547
16869TIP3    H172022   2.902   1.331   5.884 -1.5055 -0.1975 -0.0176
16869TIP3    H272023   2.993   1.251   5.975  0.6924  0.8866 -1.1676
16870TIP3   OH272024   0.254   2.563  14.198 -0.1854  0.1778  0.4078
16870TIP3    H172025   0.263   2.658  14.187  0.7455 -0.0305 -0.7927
16870TIP3    H272026   0.185   2.553  14.264  0.8939  1.7027  1.8457
16871TIP3   OH272027   5.747   2.893   5.953  0.1650 -0.1751  0.3321
16871TIP3    H172028   5.752   2.949   6.031  3.1915 -1.9051  1.5528
16871TIP3    H272029   5.783   2.947   5.882  2.1088 -0.1330  1.2824
16872TIP3   OH272030   0.327   5.896  14.710  0.5680  0.3884 -0.3327
16872TIP3    H172031   0.393   5.849  14.762  2.1657  0.6417 -2.0494
16872TIP3    H272032   0.273   5.827  14.672  1.1503  0.0632 -0.5839
16873TIP3   OH272033   5.847   5.077  15.197  0.2978  0.0866 -0.3116
16873TIP3    H172034   5.761   5.108  15.226 -0.1658 -0.4507 -1.0541
16873TIP3    H272035   5.907   5.101  15.267 -0.2419  1.5854 -0.3387
16874TIP3   OH272036   2.504   2.259   4.321 -0.3777 -0.6197  0.2964
16874TIP3    H172037   2.476   2.301   4.402  0.7892  2.1580 -0.6144
16874TIP3    H272038   2.597   2.241   4.335 -0.5276 -1.6237  0.1093
16875TIP3   OH272039   3.967   6.465  14.302  0.2474  0.0442  0.3339
16875TIP3    H172040   4.062   6.460  14.312  0.1679 -0.2588  1.0455
16875TIP3    H272041   3.947   6.400  14.235  0.7849  1.9228 -1.7351
16876TIP3   OH272042   4.095   3.318  14.754 -0.3166 -0.3960  0.6129
16876TIP3    H172043   4.128   3.263  14.684 -1.5912 -2.5241  1.5920
16876TIP3    H272044   4.000   3.316  14.745 -0.4398  2.7170 -0.0291
16877TIP3   OH272045   6.095   1.548   3.311  0.3846  0.3089 -0.0878
16877TIP3    H172046   6.092   1.604   3.234  2.2040  1.5652  0.6833
16877TIP3    H272047   6.098   1.609   3.385  2.0807 -0.7906  0.8044
16878TIP3   OH272048   4.213   6.170   1.566 -0.2583 -0.5916 -0.0380
16878TIP3    H172049   4.303   6.138   1.574 -0.3336 -0.5304  1.3163
16878TIP3    H272050   4.219   6.264   1.585 -0.8703 -0.9704  2.3484
16879TIP3   OH272051   0.822   2.787   3.022  0.4579  0.0193  0.6593
16879TIP3    H172052   0.766   2.740   3.084  0.2222  1.5299  1.6378
16879TIP3    H272053   0.911   2.777   3.058  0.4688 -0.0412  0.6169
16880TIP3   OH272054   6.690   5.820   5.654  0.2031 -0.0083  0.4054
16880TIP3    H172055   6.704   5.833   5.748 -0.4745 -2.2551  0.8740
16880TIP3    H272056   6.633   5.893   5.629 -0.3058  0.1675  1.9326
16881TIP3   OH272057   1.657   0.128   3.769 -0.0071 -0.2975  0.0087
16881TIP3    H172058   1.621   0.042   3.789  4.7912 -2.4167  0.9055
16881TIP3    H272059   1.691   0.121   3.680  1.0836  0.3914  0.3473
16882TIP3   OH272060   6.130   4.794   3.351 -0.3495  0.3257  0.1473
16882TIP3    H172061   6.198   4.731   3.327  0.5744  1.3689 -0.1115
16882TIP3    H272062   6.175   4.855   3.410 -1.5418  0.0675  1.3543
16883TIP3   OH272063   4.917   5.144  17.221 -0.4175  0.4040  0.4730
16883TIP3    H172064   4.927   5.169  17.313 -1.0081  0.7971  0.4339
16883TIP3    H272065   4.975   5.204  17.174 -0.7291  0.7429  0.5169
16884TIP3   OH272066   2.676   5.616  11.368 -0.6742 -0.1016  0.1097
16884TIP3    H172067   2.628   5.581  11.443  1.1585 -1.6513  0.6285
16884TIP3    H272068   2.766   5.626  11.399 -0.1217  0.3832 -1.5323
16885TIP3   OH272069   6.357   5.415  13.238  0.6313 -0.4959  0.3544
16885TIP3    H172070   6.359   5.452  13.326  2.4207  0.1163  0.0987
16885TIP3    H272071   6.342   5.322  13.252  2.1005 -0.6154  1.4198
16886TIP3   OH272072   3.529   6.529   3.270  0.1686  0.3116 -0.4384
16886TIP3    H172073   3.540   6.465   3.200  1.6909 -0.8233  0.7613
16886TIP3    H272074   3.472   6.485   3.333 -1.2515  1.3521 -0.9343
16887TIP3   OH272075   3.181   3.924   1.779  0.1472  0.4612  0.2640
16887TIP3    H172076   3.087   3.925   1.759  0.4053 -0.4152 -1.1170
16887TIP3    H272077   3.218   3.995   1.726  0.0453  2.1474  2.3012
16888TIP3   OH272078   1.334   4.358  16.139  0.0736  0.2152  0.3437
16888TIP3    H172079   1.354   4.268  16.164  0.6074 -0.3576 -1.8531
16888TIP3    H272080   1.258   4.382  16.191  0.4301 -1.1943  1.5686
16889TIP3   OH272081   0.766   2.012   2.103  0.7569  0.5099 -0.1580
16889TIP3    H172082   0.825   1.939   2.121 -0.9833 -0.9830 -0.3089
16889TIP3    H272083   0.723   1.990   2.021 -0.4331  1.2676  0.2271
16890TIP3   OH272084   1.661   6.197  15.861 -0.2877  0.5079  0.1265
16890TIP3    H172085   1.583   6.244  15.833  0.3175  0.4930 -1.7166
16890TIP3    H272086   1.690   6.150  15.783  2.6736  2.0674  0.1356
16891TIP3   OH272087   3.654   6.036   0.014  0.0836 -0.7419 -0.0595
16891TIP3    H172088   3.705   6.111   0.045 -1.2756  1.0939 -1.9750
16891TIP3    H272089   3.566   6.051   0.049  0.1499 -2.3853  0.9084
16892TIP3   OH272090   0.082   3.549  16.853  1.1237  0.2148 -0.0497
16892TIP3    H172091   0.067   3.459  16.880 -2.4529  1.2914  2.1983
16892TIP3    H272092   0.042   3.556  16.766 -1.1622  0.2185  0.9549
16893TIP3   OH272093   0.963   6.660   6.061  0.4887  0.4337  0.0352
16893TIP3    H172094   0.870   6.643   6.044  0.2095  2.0453 -0.1552
16893TIP3    H272095   0.999   6.573   6.081 -0.9977 -0.2565 -0.1069
16894TIP3   OH272096   1.448   0.230   5.534  0.4871  0.0491 -0.6746
16894TIP3    H172097   1.531   0.275   5.553  0.9129 -1.2870  0.8666
16894TIP3    H272098   1.475   0.149   5.492 -0.0033 -0.5323  0.1083
16895TIP3   OH272099   0.757   2.279  16.870  0.5485  0.0635  0.0681
16895TIP3    H172100   0.710   2.355  16.835  1.6639  0.4128 -0.7174
16895TIP3    H272101   0.741   2.284  16.965 -0.7196  0.3403 -0.1368
16896TIP3   OH272102   5.333   0.265  13.455 -0.2311 -0.1322  0.1614
16896TIP3    H172103   5.248   0.228  13.430 -0.2900  0.5810 -0.7397
16896TIP3    H272104   5.356   0.218  13.535 -0.4419 -1.9213 -0.7539
16897TIP3   OH272105   5.613   0.503   5.038  0.5516 -0.3003  0.2513
16897TIP3    H172106   5.563   0.512   4.956  2.1666 -0.0484 -0.7474
16897TIP3    H272107   5.597   0.585   5.084 -1.5157 -1.0079  0.9037
16898TIP3   OH272108   6.735   0.564   4.351 -0.5005 -0.0744  0.3159
16898TIP3    H172109   6.702   0.651   4.328  0.1670  0.3314  0.8488
16898TIP3    H272110   6.743   0.519   4.267 -1.3082  0.2051  0.0787
16899TIP3   OH272111   2.044   1.423  15.368 -0.8329  0.0673  0.2878
16899TIP3    H172112   2.117   1.362  15.357 -1.9936 -1.5072  0.9495
16899TIP3    H272113   2.081   1.509  15.348  0.7844 -0.8726 -0.9497
16900TIP3   OH272114   3.597   3.041   4.862  0.4661  0.2610  0.7038
16900TIP3    H172115   3.626   2.950   4.858  1.2016  0.5310 -1.9520
16900TIP3    H272116   3.654   3.082   4.927  1.7366 -0.6704  0.2123
16901TIP3   OH272117   4.525   3.364   5.456  0.1910  0.0222 -0.0109
16901TIP3    H172118   4.530   3.457   5.478  0.8302  0.0035 -0.0657
16901TIP3    H272119   4.577   3.321   5.523  0.5734 -0.2159 -0.4544
16902TIP3   OH272120   6.252   4.336   0.537  0.1162 -0.7481  0.2332
16902TIP3    H172121   6.169   4.325   0.491  0.9778 -0.5471 -1.4965
16902TIP3    H272122   6.231   4.390   0.613 -1.0777  0.9072 -1.1753
16903TIP3   OH272123   5.182   4.389   0.892 -0.0331  0.6621  0.5528
16903TIP3    H172124   5.231   4.369   0.812  0.6359  0.5960  0.9716
16903TIP3    H272125   5.112   4.448   0.863 -0.2629  0.0367 -0.2098
16904TIP3   OH272126   6.169   0.135  13.762  0.0610 -0.2706 -0.2236
16904TIP3    H172127   6.216   0.054  13.783  0.3019  0.0268  0.4238
16904TIP3    H272128   6.079   0.107  13.744  0.1093 -0.6715  0.1324
16905TIP3   OH272129   0.588   0.880   1.244  0.3967  0.0239 -0.0199
16905TIP3    H172130   0.660   0.871   1.182  2.6804  0.1723  2.4234
16905TIP3    H272131   0.535   0.801   1.231  0.5487  0.2520 -2.3627
16906TIP3   OH272132   1.906   2.196  13.028 -0.2805  0.3758 -0.0498
16906TIP3    H172133   1.860   2.219  13.109  1.4759  1.9505  0.5820
16906TIP3    H272134   1.850   2.229  12.958 -0.4148  1.7528  0.6716
16907TIP3   OH272135   3.102   0.511   1.353 -0.1554  0.6581 -0.0202
16907TIP3    H172136   3.119   0.422   1.385 -1.2103  0.0123 -1.1560
16907TIP3    H272137   3.091   0.501   1.258 -3.6696  1.4052  0.1765
16908TIP3   OH272138   1.699   1.760  11.206 -0.0795  0.2304 -0.0725
16908TIP3    H172139   1.753   1.734  11.131  2.2348  0.7605  1.3119
16908TIP3    H272140   1.659   1.679  11.236  0.1966 -0.2459 -0.9614
16909TIP3   OH272141   2.541   2.493  13.664  0.3355  0.1640  0.3371
16909TIP3    H172142   2.449   2.469  13.672 -0.1964  2.0221  0.2801
16909TIP3    H272143   2.589   2.415  13.690 -1.2581 -0.2429  2.2570
16910TIP3   OH272144   3.588   1.440   1.621  0.2970  0.4128 -0.3605
16910TIP3    H172145   3.585   1.382   1.697  0.1588  1.7718  0.7154
16910TIP3    H272146   3.670   1.488   1.631  0.4919  0.3048 -1.3265
16911TIP3   OH272147   1.035   1.522   5.156 -0.7593 -0.2317  0.3586
16911TIP3    H172148   0.995   1.531   5.069  0.9771 -0.4742 -0.5148
16911TIP3    H272149   1.121   1.484   5.139  0.3518  1.3472  2.0059
16912TIP3   OH272150   0.139   5.244   1.831 -0.0836  0.7602  0.2213
16912TIP3    H172151   0.070   5.226   1.895  1.1873 -2.5295  0.8680
16912TIP3    H272152   0.179   5.326   1.860 -1.0502  0.5692  2.2556
16913TIP3   OH272153   0.452   6.568  11.927 -0.3754 -0.0425 -0.0718
16913TIP3    H172154   0.414   6.585  11.840 -1.3192  0.4632  0.4271
16913TIP3    H272155   0.511   6.641  11.942  0.2578 -0.4462 -0.5362
16914TIP3   OH272156   3.790   6.154  13.263  0.5172 -0.0938 -0.1731
16914TIP3    H172157   3.883   6.177  13.253 -0.1572  2.5703 -1.3829
16914TIP3    H272158   3.749   6.236  13.292 -1.2157 -1.7272  2.3312
16915TIP3   OH272159   2.695   0.731   0.157  0.8612 -0.2481  0.1772
16915TIP3    H172160   2.709   0.754   0.249  0.1282 -0.8507  0.4486
16915TIP3    H272161   2.697   0.815   0.111  1.2287  0.0594  0.7379
16916TIP3   OH272162   3.264   4.035   5.979  0.5641 -0.4664  0.1570
16916TIP3    H172163   3.204   3.982   5.925 -0.1882  0.2393  0.2782
16916TIP3    H272164   3.326   3.972   6.015  0.3950 -1.1037 -0.6364
16917TIP3   OH272165   6.482   3.992  11.344  0.1617 -0.0212 -0.1494
16917TIP3    H172166   6.471   3.898  11.357 -2.0022  0.2705  0.3848
16917TIP3    H272167   6.443   4.009  11.259 -0.1211  0.4954  0.0814
16918TIP3   OH272168   2.588   3.443  16.705  0.0548 -0.1124 -0.0901
16918TIP3    H172169   2.637   3.364  16.681 -0.4590 -0.9858  1.6198
16918TIP3    H272170   2.530   3.416  16.776  1.2637  2.2604  1.9449
16919TIP3   OH272171   3.162   4.718   3.754  0.3238  0.5663 -0.5340
16919TIP3    H172172   3.221   4.693   3.682  1.8717 -1.4300  1.3058
16919TIP3    H272173   3.220   4.760   3.818 -0.5829  0.2514  0.5182
16920TIP3   OH272174   6.629   1.908  16.959 -0.1173 -0.4074  0.7398
16920TIP3    H172175   6.710   1.952  16.934  0.1692 -0.9683  0.6529
16920TIP3    H272176   6.560   1.959  16.917  0.3074 -0.9150 -0.6588
16921TIP3   OH272177   1.447   4.554  14.738  0.2705 -0.5947  0.3276
16921TIP3    H172178   1.536   4.525  14.759 -0.1383 -1.2780  1.1862
16921TIP3    H272179   1.412   4.587  14.821 -0.0006  0.4478 -0.1842
16922TIP3   OH272180   3.977   6.091  12.103  0.0986  0.1881  0.1444
16922TIP3    H172181   4.044   6.148  12.065 -0.4951  1.0589  0.3851
16922TIP3    H272182   3.894   6.128  12.072 -0.2848 -0.7767 -0.0084
16923TIP3   OH272183   0.388   2.667   4.237 -0.1352  0.0034 -0.1814
16923TIP3    H172184   0.422   2.706   4.317  0.4198 -1.1366  0.1525
16923TIP3    H272185   0.379   2.574   4.256  1.4034 -0.5631 -1.8758
16924TIP3   OH272186   5.257   0.421   0.540 -0.6282  0.1964  0.8775
16924TIP3    H172187   5.310   0.497   0.515 -1.0783  0.0232 -0.7454
16924TIP3    H272188   5.321   0.350   0.547 -0.1506  0.7454  2.7679
16925TIP3   OH272189   5.143   2.357  14.796  0.2725  0.5418 -0.0422
16925TIP3    H172190   5.233   2.333  14.774  0.9260  3.7045 -1.3575
16925TIP3    H272191   5.108   2.398  14.717 -1.5134  1.4772  1.1494
16926TIP3   OH272192   5.240   3.363   5.880 -0.1312 -0.0408  0.4322
16926TIP3    H172193   5.197   3.435   5.925 -2.1261 -0.6106 -0.4310
16926TIP3    H272194   5.194   3.356   5.796  0.8600 -1.4884 -0.0374
16927TIP3   OH272195   4.941   0.917   4.711  0.2138 -1.3753 -0.5331
16927TIP3    H172196   4.848   0.916   4.732  0.0677 -2.0204 -1.1554
16927TIP3    H272197   4.978   0.986   4.765 -0.6961 -0.8450 -0.5802
16928TIP3   OH272198   0.993   5.245  12.254  0.3017  0.4708 -0.2635
16928TIP3    H172199   0.978   5.204  12.340 -1.1374  2.3178  0.4258
16928TIP3    H272200   0.907   5.243  12.211  0.3398  2.1121 -0.4720
16929TIP3   OH272201   1.326   3.119  14.338  0.1184 -0.4059 -0.0381
16929TIP3    H172202   1.327   3.200  14.288  1.0340 -0.9644 -0.9426
16929TIP3    H272203   1.341   3.050  14.274 -2.0761 -1.4668  0.4663
16930TIP3   OH272204   6.008   0.571  13.202 -0.0155 -0.4108  0.7814
16930TIP3    H172205   6.066   0.646  13.191  0.2245 -0.6153  0.6290
16930TIP3    H272206   6.053   0.499  13.156 -0.4460 -0.5387  0.5586
16931TIP3   OH272207   2.038   3.053   0.665 -0.8048 -0.3583  0.1431
16931TIP3    H172208   2.001   3.141   0.660 -0.7649 -0.3037  0.7259
16931TIP3    H272209   1.974   3.003   0.714 -1.1989 -0.8665 -0.8617
16932TIP3   OH272210   1.544   4.242   1.470  0.0062 -0.0109 -0.0881
16932TIP3    H172211   1.537   4.277   1.559 -1.1311  0.4869 -0.3607
16932TIP3    H272212   1.476   4.175   1.465  0.9915 -1.0403 -0.1562
16933TIP3   OH272213   4.521   3.290  15.962  0.2557 -0.0098 -0.0941
16933TIP3    H172214   4.601   3.262  15.918  1.0430  0.5053  0.9754
16933TIP3    H272215   4.481   3.353  15.901 -0.0640 -1.2705 -1.2285
16934TIP3   OH272216   2.511   5.553   0.931 -0.3433  0.1355  0.0695
16934TIP3    H172217   2.568   5.545   1.007  0.4772  3.8086  0.0285
16934TIP3    H272218   2.433   5.598   0.964 -0.3669  0.9644 -1.0646
16935TIP3   OH272219   0.829   3.073  15.844 -0.3418 -0.7784 -0.7017
16935TIP3    H172220   0.880   3.046  15.767 -2.2037 -2.4458 -1.4306
16935TIP3    H272221   0.848   3.006  15.910  1.4264  0.7656  0.4655
16936TIP3   OH272222   4.463   6.446   6.663 -0.1239 -0.1039  0.7451
16936TIP3    H172223   4.547   6.405   6.683  0.5311  1.1653  0.7237
16936TIP3    H272224   4.398   6.379   6.680  1.0356 -2.1068 -1.9531
16937TIP3   OH272225   5.987   5.549  14.758 -0.0813  0.5858 -0.0403
16937TIP3    H172226   5.926   5.521  14.689  1.8783 -0.8157 -1.2954
16937TIP3    H272227   6.067   5.500  14.741  0.1689 -0.7893  4.0155
16938TIP3   OH272228   1.903   2.993   3.118  1.1240 -0.4328  0.3681
16938TIP3    H172229   1.893   2.936   3.195  0.9109 -0.3786  0.3816
16938TIP3    H272230   1.813   3.006   3.087  1.0669  0.7571  0.9880
16939TIP3   OH272231   1.167   5.792  17.010 -0.0188 -0.2521 -0.0165
16939TIP3    H172232   1.141   5.701  17.021  2.4292 -1.0359 -0.0115
16939TIP3    H272233   1.096   5.832  16.961 -1.2226 -2.1283  0.1097
16940TIP3   OH272234   6.028   5.461  12.453 -0.1037  0.4719 -0.1535
16940TIP3    H172235   6.038   5.369  12.476 -1.5659  0.9882  3.0504
16940TIP3    H272236   6.040   5.508  12.535 -0.8409  3.0420 -1.4191
16941TIP3   OH272237   3.145   3.666   6.791  0.4740 -0.3576  0.2050
16941TIP3    H172238   3.115   3.756   6.804  0.8371 -0.5497  2.8404
16941TIP3    H272239   3.092   3.613   6.851  1.2207 -1.7128 -0.2776
16942TIP3   OH272240   2.844   5.954  16.260  0.2680 -0.5535  0.0885
16942TIP3    H172241   2.915   5.933  16.198  1.5673  0.4187  1.1793
16942TIP3    H272242   2.867   5.905  16.339 -0.1530 -0.0520  0.5265
16943TIP3   OH272243   2.800   6.683  15.589 -0.3239  0.0450  0.3725
16943TIP3    H172244   2.780   6.735  15.512  0.9425  0.0688  0.0319
16943TIP3    H272245   2.716   6.671  15.633 -0.8169  1.3618 -0.1685
16944TIP3   OH272246   2.307   5.738  15.223 -0.1772 -0.1841 -0.4488
16944TIP3    H172247   2.387   5.722  15.174 -0.9957 -1.9647 -1.3289
16944TIP3    H272248   2.272   5.819  15.187  0.3224 -0.3454 -1.3272
16945TIP3   OH272249   1.779   2.917   4.302 -0.3148 -0.8626  0.2980
16945TIP3    H172250   1.872   2.910   4.283 -0.8653 -1.6459 -2.5730
16945TIP3    H272251   1.755   2.832   4.339  0.0626 -0.6958  0.9413
16946TIP3   OH272252   4.184   0.093   6.048  0.3323  0.4505 -0.3940
16946TIP3    H172253   4.228   0.101   6.132  0.1754  0.2972 -0.2975
16946TIP3    H272254   4.161   0.183   6.024  2.8795  0.8679 -1.6222
16947TIP3   OH272255   4.103   3.676  11.111 -0.3514 -0.4877  0.1854
16947TIP3    H172256   4.028   3.636  11.157 -0.4580  0.0221  0.4582
16947TIP3    H272257   4.088   3.770  11.118 -0.6391 -0.3893 -1.3454
16948TIP3   OH272258   6.171   5.747   4.390  0.0645 -0.1803 -0.1328
16948TIP3    H172259   6.190   5.689   4.316  0.9423 -0.8141  0.5680
16948TIP3    H272260   6.255   5.790   4.408 -0.0725 -0.2238  0.6475
16949TIP3   OH272261   4.217   6.449  15.330 -0.0605  0.1516 -0.5371
16949TIP3    H172262   4.127   6.465  15.360  0.0254 -0.2604 -0.0464
16949TIP3    H272263   4.215   6.468  15.236 -0.7613 -0.2765 -0.6116
16950TIP3   OH272264   3.205   4.327  11.584 -0.0404  0.4436  0.2602
16950TIP3    H172265   3.248   4.299  11.665 -1.9641 -2.4528  0.4039
16950TIP3    H272266   3.112   4.323  11.603 -0.5337  0.4992 -1.8439
16951TIP3   OH272267   6.519   1.350   2.838  0.5709  0.4495  0.8606
16951TIP3    H172268   6.558   1.266   2.815 -0.0898  0.3484  0.0702
16951TIP3    H272269   6.583   1.415   2.810 -1.0048  0.4835 -3.4203
16952TIP3   OH272270   5.570   5.691  12.750  0.0444  0.2100  0.0301
16952TIP3    H172271   5.479   5.666  12.766  0.4496  0.0918  2.6393
16952TIP3    H272272   5.609   5.615  12.707 -0.5694 -0.6268  0.9132
16953TIP3   OH272273   1.274   3.347  10.770 -0.1698 -0.5973  0.0077
16953TIP3    H172274   1.271   3.257  10.739  3.1761 -1.1809  0.9546
16953TIP3    H272275   1.275   3.400  10.691 -0.4569 -1.4896 -0.6093
16954TIP3   OH272276   3.375   0.798  13.055 -0.6987  0.3166 -0.4108
16954TIP3    H172277   3.364   0.762  12.967 -0.4057 -0.4920 -0.1248
16954TIP3    H272278   3.412   0.886  13.041  0.1487 -0.1314 -1.0762
16955TIP3   OH272279   4.754   6.294   4.260  0.7812 -0.4651 -0.3707
16955TIP3    H172280   4.785   6.359   4.197  1.2413 -0.9189 -0.6223
16955TIP3    H272281   4.729   6.219   4.207 -2.6959  0.5321 -0.3914
16956TIP3   OH272282   1.316   6.602   3.390  0.5071  0.3179 -0.5555
16956TIP3    H172283   1.327   6.523   3.443  0.9629 -0.1055 -1.2784
16956TIP3    H272284   1.241   6.647   3.430  1.2809  0.3886  0.9171
16957TIP3   OH272285   4.905   6.205  15.912  0.2135 -0.4552  0.8625
16957TIP3    H172286   4.824   6.250  15.889  0.0714 -1.8595 -1.7772
16957TIP3    H272287   4.964   6.276  15.939 -1.0415  0.9079  0.2277
16958TIP3   OH272288   0.050   2.545  14.382 -0.3063  0.8797 -1.1636
16958TIP3    H172289   0.023   2.518  14.470  0.8100  2.3959 -0.3122
16958TIP3    H272290   0.045   2.641  14.384  0.0612  0.9565 -2.6577
16959TIP3   OH272291   5.427   0.822  16.904 -0.1249 -0.1125  0.1821
16959TIP3    H172292   5.343   0.846  16.944  0.3196  0.8287  0.5747
16959TIP3    H272293   5.405   0.750  16.845 -1.0483 -0.5231  0.9929
16960TIP3   OH272294   2.197   2.476  16.080 -0.4869 -0.1540 -0.4433
16960TIP3    H172295   2.156   2.429  16.153 -0.6457  1.0323  0.2580
16960TIP3    H272296   2.125   2.489  16.018 -0.5590 -0.3906 -0.4126
16961TIP3   OH272297   4.534   4.631   0.053  0.8162  0.0888 -0.1318
16961TIP3    H172298   4.501   4.717   0.080  2.4070  0.8864 -0.6072
16961TIP3    H272299   4.534   4.579   0.133  0.7611  0.8375  0.3657
16962TIP3   OH272300   3.383   2.827   0.545 -0.7021  0.6668  0.1626
16962TIP3    H172301   3.457   2.887   0.557  0.7891 -0.9062 -0.6925
16962TIP3    H272302   3.324   2.873   0.485  0.5696  1.1607 -0.7523
16963TIP3   OH272303   1.540   2.401  14.981  0.1669  0.3632 -0.1971
16963TIP3    H172304   1.523   2.475  15.040 -0.1805  0.4405 -0.3904
16963TIP3    H272305   1.564   2.443  14.898 -0.8422  0.2702 -0.5459
16964TIP3   OH272306   5.710   3.030   2.066  0.9146  0.7565 -0.5903
16964TIP3    H172307   5.789   3.076   2.095  0.0083  1.8052  0.2975
16964TIP3    H272308   5.739   2.978   1.991  1.9227  2.9985 -1.8422
16965TIP3   OH272309   6.485   6.550  11.386 -0.3850  0.7620  0.6985
16965TIP3    H172310   6.532   6.480  11.340  1.4094  0.8602  2.2366
16965TIP3    H272311   6.404   6.562  11.336 -0.0636 -1.3756 -0.4667
16966TIP3   OH272312   2.689   0.060  11.289  0.0270 -0.1325 -0.5183
16966TIP3    H172313   2.603   0.078  11.326 -0.3141  1.1498 -1.8340
16966TIP3    H272314   2.745   0.043  11.365 -0.9409  1.0022  0.4986
16967TIP3   OH272315   6.426   1.629   1.277  0.4543  0.2739 -0.3874
16967TIP3    H172316   6.494   1.589   1.224  1.2588  0.9679  0.0957
16967TIP3    H272317   6.381   1.556   1.319  0.3966 -0.2281 -1.2972
16968TIP3   OH272318   4.435   0.225   1.051 -0.2223  0.4468 -0.0898
16968TIP3    H172319   4.456   0.309   1.011 -1.5544  0.7220 -0.2553
16968TIP3    H272320   4.341   0.215   1.038  0.0361 -1.4820 -0.8595
16969TIP3   OH272321   0.274   5.293  16.653  0.3048 -0.9519 -0.0710
16969TIP3    H172322   0.284   5.212  16.703 -0.1020 -0.3297  1.0400
16969TIP3    H272323   0.279   5.363  16.718 -0.0643 -0.1042 -0.9202
16970TIP3   OH272324   0.637   3.022   5.316 -1.0344 -0.5028  0.0158
16970TIP3    H172325   0.649   3.039   5.410 -2.2481 -1.7059  0.4362
16970TIP3    H272326   0.721   2.987   5.287 -0.1859  1.2330  0.3012
16971TIP3   OH272327   3.624   4.467  12.454  0.2223 -0.4303  0.4906
16971TIP3    H172328   3.530   4.477  12.442  0.3049 -0.5610 -0.3400
16971TIP3    H272329   3.661   4.549  12.421  0.2974  0.4095  2.5499
16972TIP3   OH272330   5.369   0.801   2.605  0.1052 -0.1589 -0.2878
16972TIP3    H172331   5.439   0.752   2.562 -0.1549 -0.7255 -0.0760
16972TIP3    H272332   5.334   0.740   2.671 -1.4977 -0.3920 -1.3011
16973TIP3   OH272333   3.719   3.347  11.754 -0.1238 -0.2505  0.5269
16973TIP3    H172334   3.795   3.306  11.797 -0.4104 -1.2569  0.1055
16973TIP3    H272335   3.736   3.336  11.661 -0.6619 -0.2500  0.4292
16974TIP3   OH272336   6.765   3.400  15.845  0.1436  0.3281  0.0042
16974TIP3    H172337   6.699   3.426  15.910 -0.6464 -0.6403 -0.3886
16974TIP3    H272338   6.752   3.460  15.772 -1.1919 -0.6446 -0.6017
16975TIP3   OH272339   4.455   3.312   2.840 -0.2930  0.5103  0.1784
16975TIP3    H172340   4.422   3.372   2.907  1.9913  0.8928  1.0514
16975TIP3    H272341   4.516   3.255   2.886  3.4065  2.4320 -1.8665
16976TIP3   OH272342   4.731   2.394   1.400  0.3022  0.3844  0.3339
16976TIP3    H172343   4.715   2.318   1.456 -1.0982  0.0938 -0.4127
16976TIP3    H272344   4.698   2.469   1.451 -1.6843  0.0334 -0.3274
16977TIP3   OH272345   1.936   3.220  13.398  0.1933  0.1540  0.5880
16977TIP3    H172346   1.880   3.268  13.337 -1.6515 -1.4209  0.9664
16977TIP3    H272347   1.903   3.243  13.484 -0.5337 -1.5043  0.7850
16978TIP3   OH272348   0.904   3.425   3.003  0.2109  0.4322 -0.3978
16978TIP3    H172349   0.861   3.386   2.927 -0.0514  0.1473 -0.1064
16978TIP3    H272350   0.990   3.450   2.971  0.3400 -0.2694 -0.6259
16979TIP3   OH272351   5.419   0.651   0.521  0.1882  0.2991 -0.7722
16979TIP3    H172352   5.502   0.605   0.514 -0.0379  0.1013 -2.7055
16979TIP3    H272353   5.419   0.688   0.609  2.2160  0.1290 -0.6658
16980TIP3   OH272354   3.990   5.734  13.395  0.1084 -0.1391 -0.3934
16980TIP3    H172355   3.961   5.650  13.432 -1.0194  0.4898  0.2280
16980TIP3    H272356   3.910   5.787  13.392  0.6422  0.6248 -1.5874
16981TIP3   OH272357   2.894   4.756   0.970 -0.4875  0.1453 -0.1600
16981TIP3    H172358   2.869   4.744   0.879 -1.0185 -1.0788  0.1270
16981TIP3    H272359   2.965   4.820   0.967  0.8809 -1.3345 -1.6462
16982TIP3   OH272360   1.809   2.590   0.866 -0.1672 -0.6204 -0.6272
16982TIP3    H172361   1.796   2.670   0.918  2.7991 -0.1430 -0.4630
16982TIP3    H272362   1.772   2.520   0.920 -1.2438  0.4079  0.0193
16983TIP3   OH272363   4.415   5.696  13.010 -0.3767  0.0191  0.0691
16983TIP3    H172364   4.370   5.779  12.993 -0.8853 -0.2718 -0.0297
16983TIP3    H272365   4.429   5.696  13.104 -0.3939  0.2078  0.0732
16984TIP3   OH272366   0.435   6.106   1.328 -0.0359 -0.2117  0.4861
16984TIP3    H172367   0.419   6.013   1.348 -1.7219 -0.4568 -1.6438
16984TIP3    H272368   0.348   6.146   1.331  0.4553  0.9611 -0.2465
16985TIP3   OH272369   6.104   2.903  14.391  0.2178  0.1890  0.0772
16985TIP3    H172370   6.190   2.935  14.365 -0.5648  0.4345 -2.5056
16985TIP3    H272371   6.115   2.808  14.398  0.9090  0.3115  0.6625
16986TIP3   OH272372   4.040   0.244  10.626  0.4710  0.3833  0.2800
16986TIP3    H172373   4.076   0.325  10.661 -0.2039  0.7646  0.1182
16986TIP3    H272374   4.004   0.268  10.541 -0.7717  0.1760  0.7295
16987TIP3   OH272375   4.269   0.030   6.320  0.0402 -0.0193 -0.4107
16987TIP3    H172376   4.314  -0.009   6.395  0.1689  0.3005 -0.3170
16987TIP3    H272377   4.178   0.039   6.348  0.4666  2.0250  0.5197
16988TIP3   OH272378   4.535   2.969   0.178 -0.0866  0.2470 -0.5280
16988TIP3    H172379   4.537   2.929   0.265  1.2499 -0.1959 -0.7323
16988TIP3    H272380   4.498   3.056   0.192  2.3209  1.1400  0.9337
16989TIP3   OH272381   6.611   6.561   2.057  0.5274  0.6587  0.7412
16989TIP3    H172382   6.566   6.591   1.978  0.4809  1.4190  1.0471
16989TIP3    H272383   6.702   6.549   2.030  0.3960  0.3544  0.4321
16990TIP3   OH272384   0.063   5.949   5.166  0.7022 -0.2300  0.4367
16990TIP3    H172385   0.090   5.872   5.116 -2.7245 -1.6676  0.5225
16990TIP3    H272386   0.113   6.021   5.127  2.8406 -2.1965 -0.7377
16991TIP3   OH272387   2.272   2.913  16.271 -0.6338 -0.6210 -0.0098
16991TIP3    H172388   2.356   2.886  16.234 -0.3772  0.2627 -0.1083
16991TIP3    H272389   2.243   2.985  16.214 -0.4185  0.5129  1.2527
16992TIP3   OH272390   3.267   1.281   2.461  0.0444 -0.3098 -0.4266
16992TIP3    H172391   3.183   1.253   2.424  0.7445 -0.7747 -1.7291
16992TIP3    H272392   3.333   1.231   2.413  1.0439 -0.6378  1.2069
16993TIP3   OH272393   3.047   1.918  15.478  0.2362  0.3520  0.6251
16993TIP3    H172394   3.096   1.889  15.555 -0.5700 -0.1991  0.9519
16993TIP3    H272395   2.977   1.973  15.514 -0.9816 -1.0237  0.4439
16994TIP3   OH272396   2.688   6.415   2.340 -0.1642  0.3780  0.3362
16994TIP3    H172397   2.758   6.467   2.381  0.2179  1.8710 -2.0224
16994TIP3    H272398   2.726   6.328   2.331 -0.2821 -0.0353  3.0611
16995TIP3   OH272399   1.325   6.680  10.602 -0.2342 -0.4647 -0.4498
16995TIP3    H172400   1.419   6.663  10.611 -0.5641 -1.6892  1.0370
16995TIP3    H272401   1.284   6.614  10.657 -1.9746  0.2004 -0.9117
16996TIP3   OH272402   4.875   1.618  17.230  0.4615  0.4690  0.0742
16996TIP3    H172403   4.838   1.549  17.175  1.5312 -0.0200 -0.0739
16996TIP3    H272404   4.862   1.587  17.320  1.1870 -0.0851  0.0008
16997TIP3   OH272405   2.905   6.342  16.973 -0.6075 -0.5420 -0.1980
16997TIP3    H172406   2.846   6.354  16.898  0.5228 -1.9057 -1.3427
16997TIP3    H272407   2.877   6.260  17.013 -0.8569 -0.0919  0.5889
16998TIP3   OH272408   4.189   3.005  13.670  0.1748  0.0023  0.8429
16998TIP3    H172409   4.097   2.978  13.666  0.1453  0.0765  1.0099
16998TIP3    H272410   4.229   2.944  13.732  0.4656 -0.6756  0.0013
16999TIP3   OH272411   4.711   6.438   4.966  0.4864  0.4037 -0.1011
16999TIP3    H172412   4.751   6.466   4.883  2.5516  1.9889  1.2935
16999TIP3    H272413   4.727   6.344   4.970  0.1883  0.2689 -1.5577
17000TIP3   OH272414   0.985   3.829   2.912  0.0592 -0.3685  0.5994
17000TIP3    H172415   0.990   3.919   2.879 -0.5680 -0.6480 -0.2981
17000TIP3    H272416   0.959   3.777   2.836 -1.0781 -1.0888  1.4564
17001TIP3   OH272417   4.236   6.325   4.676  0.1061 -0.0404  0.1005
17001TIP3    H172418   4.214   6.259   4.610 -0.3577 -0.4273  0.6324
17001TIP3    H272419   4.312   6.289   4.722 -0.0572 -0.1375  0.2948
17002TIP3   OH272420   1.748   3.269  13.193  0.0387  0.0147 -0.1495
17002TIP3    H172421   1.656   3.254  13.217 -0.3200 -0.3013 -1.6213
17002TIP3    H272422   1.776   3.187  13.154  0.8038  0.2701 -0.1499
17003TIP3   OH272423   2.088   1.575  12.236 -0.4423 -0.3217  0.4532
17003TIP3    H172424   2.037   1.494  12.234 -1.2825  0.2077 -0.3418
17003TIP3    H272425   2.065   1.620  12.155 -0.1846  0.8385  1.0038
17004TIP3   OH272426   6.499   5.609   0.126  0.0527  0.3070  0.2822
17004TIP3    H172427   6.513   5.595   0.219  0.3166  2.8379  0.6784
17004TIP3    H272428   6.405   5.596   0.113  0.1331 -0.8055  0.7176
17005TIP3   OH272429   4.619   1.068   0.896 -0.0516  0.0303  0.0204
17005TIP3    H172430   4.549   1.108   0.948  1.8244  0.8976  1.9937
17005TIP3    H272431   4.597   0.974   0.897 -2.5743  0.4934 -1.6936
17006TIP3   OH272432   5.102   1.620  15.172  0.3026  0.3487  0.2867
17006TIP3    H172433   5.014   1.612  15.135  0.4868  0.8857 -0.2839
17006TIP3    H272434   5.151   1.548  15.131  0.6410  1.2451 -0.9539
17007TIP3   OH272435   6.218   4.843   5.886  0.2750 -0.1957  0.0411
17007TIP3    H172436   6.205   4.913   5.822 -1.3611 -2.3066 -2.1073
17007TIP3    H272437   6.249   4.888   5.965 -2.7144  3.2108 -0.4836
17008TIP3   OH272438   0.570   5.570  15.382 -0.4879 -0.9951 -0.0622
17008TIP3    H172439   0.487   5.615  15.372  0.5853  1.6425  1.6752
17008TIP3    H272440   0.615   5.584  15.298 -0.6885  0.1094 -0.0027
17009TIP3   OH272441   6.723   2.843   1.069 -0.2252  0.1418  0.0500
17009TIP3    H172442   6.762   2.907   1.009 -0.0508  1.9023  1.9020
17009TIP3    H272443   6.798   2.800   1.111 -0.2560  1.1159  1.1656
17010TIP3   OH272444   2.252   4.345  12.143  0.9153  0.0397  0.8524
17010TIP3    H172445   2.331   4.390  12.171  1.5580 -0.3267 -0.3204
17010TIP3    H272446   2.282   4.279  12.081 -0.0271 -1.8560  2.3254
17011TIP3   OH272447   3.632   4.133   0.341  0.1854  0.6535  0.3604
17011TIP3    H172448   3.635   4.207   0.401 -0.0553 -0.9066  2.3959
17011TIP3    H272449   3.704   4.076   0.369  0.9315  0.4824 -1.7259
17012TIP3   OH272450   0.053   3.479  14.815 -0.4767 -0.4641 -0.0777
17012TIP3    H172451   0.137   3.449  14.850 -0.3006  0.6043  0.4223
17012TIP3    H272452   0.076   3.525  14.734 -0.7036 -1.2285 -0.5871
17013TIP3   OH272453   1.581   1.982  12.723  0.5578 -0.4208 -0.1092
17013TIP3    H172454   1.539   2.036  12.791  1.4552  1.5336 -1.0276
17013TIP3    H272455   1.660   1.948  12.765 -0.8972 -2.6147  1.0452
17014TIP3   OH272456   1.137   0.092  13.877  0.1194  0.1581 -0.2536
17014TIP3    H172457   1.087   0.019  13.843 -0.0537  0.1220  0.0687
17014TIP3    H272458   1.189   0.123  13.803 -1.0043  0.7399 -0.8385
17015TIP3   OH272459   5.210   3.588   1.471  0.0517 -0.3425  0.1266
17015TIP3    H172460   5.255   3.644   1.535 -0.0130 -0.3849  0.2102
17015TIP3    H272461   5.214   3.637   1.389 -2.0457  0.9067  0.6900
17016TIP3   OH272462   3.829   2.335   2.367 -0.2550 -0.2964 -0.1745
17016TIP3    H172463   3.742   2.318   2.403 -0.2791  0.6746  0.2488
17016TIP3    H272464   3.814   2.346   2.273 -0.7875  1.0773  0.0502
17017TIP3   OH272465   1.944   5.464   1.387  0.2898 -0.4066 -0.0336
17017TIP3    H172466   1.923   5.452   1.479 -0.0198 -0.2713 -0.0871
17017TIP3    H272467   1.891   5.399   1.341 -0.3453  0.2152 -0.2025
17018TIP3   OH272468   5.723   2.655   4.567 -0.2920  0.3393 -0.2015
17018TIP3    H172469   5.696   2.586   4.506 -0.3663 -0.7265  0.9882
17018TIP3    H272470   5.729   2.611   4.651  0.4803  1.6261  0.4467
17019TIP3   OH272471   3.339   4.211   2.231 -0.4874  0.0591  1.2279
17019TIP3    H172472   3.364   4.290   2.183  0.6499  0.3907  2.2967
17019TIP3    H272473   3.281   4.164   2.172  2.1589 -0.4228 -1.2077
17020TIP3   OH272474   1.040   4.276   3.584  0.3481 -0.8277  0.0326
17020TIP3    H172475   0.990   4.198   3.562  0.8598 -1.0988 -0.1883
17020TIP3    H272476   0.989   4.348   3.548  1.0033 -1.2267 -1.8113
17021TIP3   OH272477   6.155   1.866  15.697 -0.6139 -0.1726 -0.4216
17021TIP3    H172478   6.132   1.774  15.710 -1.5863  0.2919  1.5197
17021TIP3    H272479   6.211   1.867  15.619 -0.5961 -2.3901 -0.4750
17022TIP3   OH272480   0.011   2.680  13.844  0.0235 -0.1773 -0.0034
17022TIP3    H172481  -0.011   2.709  13.756 -0.0806 -3.7536 -1.3306
17022TIP3    H272482  -0.074   2.677  13.890  0.2454  3.1007  0.8428
17023TIP3   OH272483   4.131   0.191   4.984  0.4884 -0.6035  0.4374
17023TIP3    H172484   4.057   0.141   5.019  1.3877 -2.5998 -0.3779
17023TIP3    H272485   4.144   0.156   4.896  3.2467 -1.2993  1.0311
17024TIP3   OH272486   0.809   5.993   0.087 -0.1497 -0.0858 -0.6316
17024TIP3    H172487   0.728   5.989   0.138  0.8388 -2.3940  0.9301
17024TIP3    H272488   0.801   6.073   0.035 -2.6577  0.6522  0.7340
17025TIP3   OH272489   0.663   1.892   1.890  0.0817 -0.2681 -0.5123
17025TIP3    H172490   0.604   1.820   1.915  1.1310 -0.9439  0.1072
17025TIP3    H272491   0.606   1.955   1.845 -0.8142 -1.6171 -1.3519
17026TIP3   OH272492   2.980   3.278   3.894 -0.1630  0.7840  0.2617
17026TIP3    H172493   2.988   3.223   3.816  1.3471  1.4299 -0.0720
17026TIP3    H272494   3.057   3.258   3.946  0.3534  2.4349  0.2058
17027TIP3   OH272495   2.737   0.473   3.983  0.4831 -0.0948 -0.2240
17027TIP3    H172496   2.692   0.429   3.910 -0.5711  1.0524 -0.3024
17027TIP3    H272497   2.704   0.562   3.981  0.8220  0.0964  1.3577
17028TIP3   OH272498   6.268   0.323  15.589 -0.2119 -0.5313  0.0927
17028TIP3    H172499   6.291   0.327  15.682 -0.5317  1.2414  0.1314
17028TIP3    H272500   6.334   0.378  15.546 -1.4672  0.6484 -0.4037
17029TIP3   OH272501   1.769   5.264  14.160 -0.0974 -0.2958  0.1733
17029TIP3    H172502   1.747   5.171  14.171 -0.7052 -0.1054  0.5978
17029TIP3    H272503   1.737   5.285  14.073  1.2525 -0.8185 -0.4814
17030TIP3   OH272504   5.149   0.086  13.216 -0.5826 -0.4517 -0.0253
17030TIP3    H172505   5.133   0.017  13.152  0.5857 -1.1454  0.3895
17030TIP3    H272506   5.167   0.038  13.298  0.9093  0.3118  0.1139
17031TIP3   OH272507   0.084   3.454   4.105  0.2076  0.2222  0.1762
17031TIP3    H172508   0.127   3.436   4.189 -0.8328  1.9281  1.1370
17031TIP3    H272509   0.126   3.534   4.074 -1.2113  1.0879  0.4101
17032TIP3   OH272510   5.782   3.832   6.114 -0.1293 -0.3879 -0.7604
17032TIP3    H172511   5.811   3.767   6.178 -0.3241  0.6405  0.4318
17032TIP3    H272512   5.688   3.842   6.130 -0.5017 -1.2176 -2.2714
17033TIP3   OH272513   1.204   1.118  13.255  0.4301 -0.2130  0.4834
17033TIP3    H172514   1.257   1.052  13.210 -1.8930 -2.1899  0.4558
17033TIP3    H272515   1.212   1.196  13.199  1.3288 -1.1909 -0.8200
17034TIP3   OH272516   2.373   0.472  13.817  0.1585  0.3348  0.1541
17034TIP3    H172517   2.327   0.539  13.766 -0.5942  0.6844  1.2548
17034TIP3    H272518   2.332   0.475  13.904  1.1515 -0.4986  0.6791
17035TIP3   OH272519   4.876   3.550   4.124  0.0753  0.1465  0.2875
17035TIP3    H172520   4.804   3.490   4.143  0.8075 -0.7190  0.4002
17035TIP3    H272521   4.922   3.510   4.050 -0.4419  1.4763 -0.8141
17036TIP3   OH272522   3.151   4.680   3.052 -0.1929 -0.0629  0.1808
17036TIP3    H172523   3.077   4.624   3.073 -0.2599 -0.6904 -1.5610
17036TIP3    H272524   3.136   4.708   2.961  1.7419 -0.3178 -0.2722
17037TIP3   OH272525   0.267   4.051   5.787 -0.0047  0.3412 -0.4969
17037TIP3    H172526   0.322   3.983   5.749 -0.3893  0.1408 -0.7004
17037TIP3    H272527   0.328   4.114   5.825  0.4403  1.0621 -2.2982
17038TIP3   OH272528   4.936   0.422  16.928  0.4728 -0.1320  0.2887
17038TIP3    H172529   4.895   0.487  16.871  2.7480  2.1353  1.0561
17038TIP3    H272530   4.986   0.366  16.869 -1.4018 -1.2285 -0.3675
17039TIP3   OH272531   5.541   6.104  16.298  0.2193  0.0115  0.3456
17039TIP3    H172532   5.492   6.161  16.239  0.2497 -0.7973 -0.4743
17039TIP3    H272533   5.495   6.020  16.295  1.8750 -0.9169 -0.7967
17040TIP3   OH272534   5.121   0.282   2.793 -0.4213  0.1593  0.4126
17040TIP3    H172535   5.163   0.252   2.873 -0.2132 -1.0267 -0.1144
17040TIP3    H272536   5.045   0.224   2.782  0.3930 -0.7023 -1.0078
17041TIP3   OH272537   3.030   0.756  14.661  0.1050 -0.1630  0.1544
17041TIP3    H172538   3.126   0.758  14.661  0.1766 -2.0982 -0.1334
17041TIP3    H272539   3.007   0.679  14.713 -1.1352 -1.9963 -2.8245
17042TIP3   OH272540   0.102   2.122  15.496  0.0385  0.3168 -1.1961
17042TIP3    H172541   0.196   2.103  15.488 -0.0321 -1.6780  1.4077
17042TIP3    H272542   0.059   2.044  15.460 -0.4335 -0.8392  1.5980
17043TIP3   OH272543   4.701   0.498  13.375  0.1377  0.0881  0.2189
17043TIP3    H172544   4.650   0.420  13.395 -0.2646  0.8102  2.2826
17043TIP3    H272545   4.775   0.495  13.435  2.1691 -0.4981 -2.1519
17044TIP3   OH272546   1.461   5.810   1.285 -0.3325 -0.1804  0.1137
17044TIP3    H172547   1.540   5.794   1.336 -0.5250 -1.3642  0.0492
17044TIP3    H272548   1.466   5.749   1.212 -1.9602 -1.2426  0.8406
17045TIP3   OH272549   1.968   1.144  15.151 -0.0074 -0.7108  0.4972
17045TIP3    H172550   1.963   1.051  15.130 -1.7268 -0.6410  0.4180
17045TIP3    H272551   2.055   1.156  15.189 -0.0132 -2.4903  1.1546
17046TIP3   OH272552   4.484   5.463   1.763  0.8553 -0.4845  0.2127
17046TIP3    H172553   4.392   5.472   1.741  0.9030  0.6298  0.4115
17046TIP3    H272554   4.484   5.421   1.849  0.4984  0.1656  0.5420
17047TIP3   OH272555   4.654   3.374   0.855 -0.3007  0.1928 -0.2958
17047TIP3    H172556   4.564   3.376   0.887 -0.0105 -1.4179  0.7650
17047TIP3    H272557   4.653   3.311   0.783 -0.1486  0.6952 -0.7438
17048TIP3   OH272558   1.508   2.347   5.767  0.0905  0.0839  0.1858
17048TIP3    H172559   1.583   2.330   5.824  0.7383  0.8212 -0.4229
17048TIP3    H272560   1.543   2.404   5.698 -1.6768  3.1273  1.5895
17049TIP3   OH272561   5.190   0.336   2.031 -0.2365  0.1498  0.2911
17049TIP3    H172562   5.256   0.279   2.071  0.8399  1.4474  0.4217
17049TIP3    H272563   5.138   0.277   1.976  1.6443 -0.7936 -0.5762
17050TIP3   OH272564   4.700   2.721   3.706 -0.5917  0.0895 -0.0536
17050TIP3    H172565   4.658   2.641   3.672  1.7274 -0.5963 -1.5604
17050TIP3    H272566   4.627   2.773   3.741 -2.4419 -1.7523 -0.9086
17051TIP3   OH272567   5.503   4.397   2.099  0.7150 -0.7476 -0.1203
17051TIP3    H172568   5.491   4.480   2.052  0.3496 -0.5005  0.4098
17051TIP3    H272569   5.415   4.365   2.115  0.8594 -1.3416 -0.4959
17052TIP3   OH272570   6.003   0.603  12.131 -0.1831  0.1574 -0.8111
17052TIP3    H172571   5.941   0.627  12.199 -0.0279  0.4490 -0.7692
17052TIP3    H272572   6.024   0.685  12.087  0.5817  0.1570 -0.4734
17053TIP3   OH272573   0.010   3.247  16.823  0.0396  0.2209 -0.3588
17053TIP3    H172574   0.016   3.233  16.917  0.0051  0.5507 -0.3086
17053TIP3    H272575   0.071   3.183  16.786  0.0600  0.0983 -0.1136
17054TIP3   OH272576   4.099   2.821  12.628 -0.1622 -0.0946 -0.1483
17054TIP3    H172577   4.165   2.824  12.698  0.3316  0.0631 -0.6157
17054TIP3    H272578   4.133   2.879  12.561 -1.4438  1.0629  0.1676
17055TIP3   OH272579   1.003   0.140   4.447 -0.3023 -0.3146 -0.0262
17055TIP3    H172580   1.096   0.160   4.454 -0.7792  1.7434  1.3940
17055TIP3    H272581   0.997   0.046   4.464  1.5073 -0.4914 -0.1742
17056TIP3   OH272582   6.549   5.282   0.453 -0.0566 -0.4370  0.1160
17056TIP3    H172583   6.595   5.201   0.432  0.7461 -0.5012  1.9358
17056TIP3    H272584   6.549   5.331   0.371  0.7080 -1.6730 -0.6573
17057TIP3   OH272585   5.030   4.197  12.430  0.0938 -0.2008 -0.3134
17057TIP3    H172586   4.982   4.137  12.486  2.6463 -0.0799  2.2530
17057TIP3    H272587   4.998   4.179  12.341 -2.8293 -1.6949  0.9284
17058TIP3   OH272588   1.576   5.581   0.355 -0.0094 -0.1029  0.1002
17058TIP3    H172589   1.527   5.659   0.382  1.6040  1.0537 -0.1820
17058TIP3    H272590   1.585   5.530   0.435 -1.3149 -0.1632  0.2375
17059TIP3   OH272591   5.680   2.704   0.569  0.1016 -0.3373  0.6882
17059TIP3    H172592   5.608   2.660   0.524  2.1751 -1.4841 -1.7461
17059TIP3    H272593   5.735   2.633   0.603  0.9400  0.4543  1.0321
17060TIP3   OH272594   6.026   4.249   2.090  0.1237 -0.2002 -0.0607
17060TIP3    H172595   6.060   4.322   2.039  1.5943 -0.3964  0.5759
17060TIP3    H272596   5.959   4.288   2.146  2.4353  1.2441  1.9490
17061TIP3   OH272597   1.977   2.259   2.730 -0.4927 -0.3638  0.3100
17061TIP3    H172598   1.915   2.187   2.723 -0.5062 -0.3188 -0.0608
17061TIP3    H272599   2.003   2.278   2.640 -1.4639  0.9371  0.2690
17062TIP3   OH272600   6.318   4.215  16.794  0.1196 -0.0929 -0.0860
17062TIP3    H172601   6.258   4.211  16.869  0.3631 -0.0052  0.1167
17062TIP3    H272602   6.341   4.307  16.788 -2.7413  0.6231 -2.5468
17063TIP3   OH272603   3.032   0.455  14.576  0.0738 -0.1380  0.2201
17063TIP3    H172604   3.072   0.380  14.531 -0.0812  0.7286 -1.4402
17063TIP3    H272605   2.991   0.417  14.654  1.2582 -1.5433  0.2064
17064TIP3   OH272606   4.873   2.020   4.802  0.4802 -0.1321 -0.5971
17064TIP3    H172607   4.787   1.999   4.767  1.4035 -0.8676 -2.5578
17064TIP3    H272608   4.923   1.938   4.796  0.8334 -0.2239  2.2207
17065TIP3   OH272609   6.552   3.500   4.583 -0.1606  0.1633  0.6204
17065TIP3    H172610   6.635   3.538   4.610 -0.2321  1.6417 -1.0642
17065TIP3    H272611   6.510   3.472   4.664  1.1641  1.0787  1.6527
17066TIP3   OH272612   5.715   2.973  11.342  0.2872 -0.3766 -0.3514
17066TIP3    H172613   5.670   2.892  11.319  2.4777 -1.6194 -0.4961
17066TIP3    H272614   5.679   2.996  11.428 -2.8947  0.5192 -1.7640
17067TIP3   OH272615   3.189   3.758  13.439  0.2574  0.1002  0.1022
17067TIP3    H172616   3.170   3.762  13.533 -0.9779 -0.0121 -0.1251
17067TIP3    H272617   3.183   3.664  13.418 -0.8128  0.2493 -0.3317
17068TIP3   OH272618   6.622   2.835  13.322  0.2601 -0.3067 -0.0113
17068TIP3    H172619   6.560   2.762  13.325 -0.7375  0.4611 -1.3993
17068TIP3    H272620   6.650   2.839  13.231 -0.2157  1.4594 -0.1018
17069TIP3   OH272621   2.351   1.866   3.534  0.1006 -0.2153  0.0702
17069TIP3    H172622   2.315   1.841   3.619  0.1882 -1.8186 -0.3224
17069TIP3    H272623   2.431   1.915   3.555 -1.8151  2.7638  0.9354
17070TIP3   OH272624   5.257   6.620  15.995 -0.1669  0.1536 -0.4514
17070TIP3    H172625   5.307   6.680  16.050 -1.2529 -0.6892  1.5537
17070TIP3    H272626   5.216   6.677  15.930  0.4659  1.3089  0.1112
17071TIP3   OH272627   5.047   4.439  14.979  0.1115 -0.1336 -0.6454
17071TIP3    H172628   5.009   4.352  14.961 -0.9000  0.4811 -1.6316
17071TIP3    H272629   5.089   4.429  15.065 -1.6528 -1.0863  0.1692
17072TIP3   OH272630   0.614   1.255   5.645 -0.3990  0.7110 -0.8020
17072TIP3    H172631   0.670   1.292   5.714 -1.0621 -1.9024  1.3226
17072TIP3    H272632   0.525   1.270   5.676 -0.6981 -1.1126 -0.6147
17073TIP3   OH272633   6.688   3.226   3.532  0.7750 -0.1623  0.2128
17073TIP3    H172634   6.616   3.242   3.593  1.5258  0.2797  0.9984
17073TIP3    H272635   6.645   3.200   3.450 -0.2330 -1.3587  1.0853
17074TIP3   OH272636   5.773   0.780   2.409 -0.4142  0.5029 -0.6180
17074TIP3    H172637   5.678   0.767   2.408 -0.3397 -0.1709 -2.0513
17074TIP3    H272638   5.808   0.705   2.458 -0.6260  0.8857  0.1293
17075TIP3   OH272639   2.280   2.113   4.305 -0.3983 -0.1331 -0.2107
17075TIP3    H172640   2.244   2.162   4.231  1.7731  0.4891 -0.9387
17075TIP3    H272641   2.369   2.147   4.315 -0.1056 -1.3093  1.7127
17076TIP3   OH272642   5.630   1.316   4.750  0.1461  0.1770  0.2533
17076TIP3    H172643   5.708   1.355   4.712  0.8243 -1.7855 -0.4484
17076TIP3    H272644   5.662   1.258   4.819 -0.6933 -0.5855  0.0230
17077TIP3   OH272645   4.689   1.654   3.312  0.6504  0.9844  0.0717
17077TIP3    H172646   4.648   1.659   3.225  1.5739  1.6322 -0.3541
17077TIP3    H272647   4.761   1.592   3.300  0.8910  1.2125  0.3168
17078TIP3   OH272648   6.288   2.225   0.247 -0.1476 -0.2320  0.2923
17078TIP3    H172649   6.355   2.210   0.314 -1.5488 -2.3757  1.3450
17078TIP3    H272650   6.321   2.180   0.169  1.7416  2.7208 -0.7790
17079TIP3   OH272651   4.700   1.777  14.032  0.1568  0.2992  0.0754
17079TIP3    H172652   4.633   1.820  14.086 -0.5508 -0.5912 -0.0728
17079TIP3    H272653   4.650   1.721  13.972  1.0378 -0.5736  0.1378
17080TIP3   OH272654   1.019   1.190  16.338 -0.0203 -0.1020  0.4494
17080TIP3    H172655   0.997   1.112  16.390  1.5246 -1.2801 -0.5672
17080TIP3    H272656   1.081   1.238  16.393  0.6820 -0.7256  0.2228
17081TIP3   OH272657   0.102   4.484   1.309  0.4520 -0.6298  0.2169
17081TIP3    H172658   0.060   4.558   1.354 -0.5564 -1.6906  1.1131
17081TIP3    H272659   0.096   4.506   1.216 -2.8473 -0.9993  0.2120
17082TIP3   OH272660   4.473   4.215   2.240  0.5653  0.2182 -0.6565
17082TIP3    H172661   4.539   4.282   2.224  0.9548 -0.4254 -1.9154
17082TIP3    H272662   4.509   4.136   2.200 -0.3761 -0.4790 -0.1770
17083TIP3   OH272663   5.448   6.465  16.314 -0.2248 -0.5223 -0.3960
17083TIP3    H172664   5.362   6.434  16.286  0.2205 -2.4631  0.2208
17083TIP3    H272665   5.456   6.436  16.405  1.5070 -1.4336 -0.7851
17084TIP3   OH272666   0.239   6.293  12.428 -0.0591 -0.7584 -0.2072
17084TIP3    H172667   0.154   6.296  12.384  1.1434  0.5785 -2.6760
17084TIP3    H272668   0.294   6.239  12.372  1.5338  0.9326 -0.3759
17085TIP3   OH272669   0.137   5.842  15.113 -0.3170 -0.6124  0.2389
17085TIP3    H172670   0.181   5.804  15.037 -0.4132 -0.0752 -0.0897
17085TIP3    H272671   0.044   5.821  15.099 -0.4921  0.5206 -0.4189
17086TIP3   OH272672   3.077   3.692   1.204  0.2558  0.1860  0.5656
17086TIP3    H172673   3.160   3.672   1.247 -0.2413  0.3812  1.6539
17086TIP3    H272674   3.063   3.785   1.221 -0.2740  0.1116  0.5593
17087TIP3   OH272675   3.207   2.135   2.075 -0.5282 -0.3674  0.0707
17087TIP3    H172676   3.216   2.199   2.146  1.9150  0.4489 -0.8703
17087TIP3    H272677   3.120   2.097   2.088 -1.1311  1.4818  2.0362
17088TIP3   OH272678   3.647   6.435   5.177 -0.3810  0.7837  0.0377
17088TIP3    H172679   3.585   6.491   5.224 -4.1860 -0.7574 -2.6355
17088TIP3    H272680   3.665   6.363   5.237 -1.3819  1.1586  0.8192
17089TIP3   OH272681   2.655   2.199   1.624 -0.6688  0.3257 -0.1012
17089TIP3    H172682   2.666   2.156   1.539 -0.2739 -1.2054  0.6925
17089TIP3    H272683   2.587   2.265   1.608 -0.5021  0.1668 -1.6317
17090TIP3   OH272684   3.388   0.698  12.334 -0.0681 -0.5161 -0.1958
17090TIP3    H172685   3.322   0.631  12.314  0.2312 -0.7115 -0.5301
17090TIP3    H272686   3.459   0.682  12.272  0.2961 -0.3024  0.1614
17091TIP3   OH272687   6.423   3.036  16.921 -0.8420  0.3263  0.0409
17091TIP3    H172688   6.379   3.079  16.994 -3.8541 -1.2191 -0.7060
17091TIP3    H272689   6.416   2.943  16.940  1.7970 -0.0401 -0.4104
17092TIP3   OH272690   5.149   6.630   5.584  0.0011  0.5235 -0.2150
17092TIP3    H172691   5.116   6.711   5.624 -0.7405 -1.1142  2.7507
17092TIP3    H272692   5.173   6.574   5.658  1.4732 -1.6184 -2.1752
17093TIP3   OH272693   5.038   4.832   1.044 -0.9468  0.1411 -0.1927
17093TIP3    H172694   5.125   4.817   1.006  0.6307  2.4961  2.1193
17093TIP3    H272695   4.989   4.874   0.974  0.2335  0.0427 -1.1208
17094TIP3   OH272696   5.946   2.193   1.503  0.4401 -0.3529  0.2490
17094TIP3    H172697   5.953   2.166   1.411  0.5189  0.9060 -0.1333
17094TIP3    H272698   5.920   2.285   1.499 -1.0272 -0.6753  1.5137
17095TIP3   OH272699   5.052   3.144   5.987 -0.1205  0.6802 -0.2484
17095TIP3    H172700   5.106   3.220   5.965  0.4040  0.8273  1.4137
17095TIP3    H272701   4.985   3.179   6.046 -0.2806 -0.0322  0.0053
17096TIP3   OH272702   3.741   2.791  11.026  0.4448  0.3171  0.1965
17096TIP3    H172703   3.661   2.745  11.051  0.6538 -0.5161 -0.6568
17096TIP3    H272704   3.812   2.736  11.060  0.6765  0.8932  0.6732
17097TIP3   OH272705   1.728   4.030  16.219 -0.2263  0.3599  0.3462
17097TIP3    H172706   1.682   4.061  16.297 -0.6163 -0.9121  0.6485
17097TIP3    H272707   1.724   3.934  16.225  0.9752  0.2308 -0.5041
17098TIP3   OH272708   3.237   2.667   2.092  0.0491  0.4436  0.0814
17098TIP3    H172709   3.151   2.662   2.134 -0.4700 -0.0686 -1.0162
17098TIP3    H272710   3.244   2.758   2.063 -1.0656  0.0076 -1.7122
17099TIP3   OH272711   2.155   1.455   0.109  0.3010 -0.0992 -0.0626
17099TIP3    H172712   2.170   1.545   0.080 -0.4328  0.0324 -0.0500
17099TIP3    H272713   2.164   1.458   0.204 -1.4553  0.3368  0.1259
17100TIP3   OH272714   2.473   1.426  14.924 -0.3608  0.4360  0.1048
17100TIP3    H172715   2.491   1.374  14.846  0.2954  0.1871  0.4126
17100TIP3    H272716   2.381   1.451  14.916 -0.5335 -0.3088 -0.3278
17101TIP3   OH272717   3.646   3.295  12.167  0.0296 -0.1450  0.3793
17101TIP3    H172718   3.604   3.211  12.148  0.9023 -0.5878  0.3456
17101TIP3    H272719   3.635   3.346  12.087 -0.1509 -0.3782  0.2525
17102TIP3   OH272720   3.338   1.693   1.765  0.2601  0.0206 -0.7163
17102TIP3    H172721   3.288   1.774   1.749 -0.8626  0.0280  2.2280
17102TIP3    H272722   3.273   1.632   1.801  1.6366 -1.3015 -0.4072
17103TIP3   OH272723   1.543   0.991   4.664 -0.7353  0.7983 -1.1070
17103TIP3    H172724   1.536   1.063   4.602  0.6680 -0.4578 -2.8267
17103TIP3    H272725   1.531   0.912   4.611 -0.9215 -0.2849  0.4809
17104TIP3   OH272726   2.526   1.026   5.114 -0.3557  0.0504 -0.2382
17104TIP3    H172727   2.518   1.077   5.195 -0.3883 -1.1919  0.5765
17104TIP3    H272728   2.571   1.084   5.053 -0.9009  1.2436  0.4618
17105TIP3   OH272729   2.081   4.459  17.232  0.5509 -0.2611  0.2222
17105TIP3    H172730   2.073   4.555  17.225 -1.5740 -0.3233  0.9273
17105TIP3    H272731   2.155   4.445  17.290  0.8473  0.9753  0.1729
17106TIP3   OH272732   2.913   4.600  14.219 -0.1908  0.6405  0.2098
17106TIP3    H172733   2.884   4.684  14.184 -2.1285 -0.1808 -0.3073
17106TIP3    H272734   2.898   4.607  14.313 -1.2705  0.5887  0.0627
17107TIP3   OH272735   5.186   1.791  15.954 -0.0896 -0.1635  0.3318
17107TIP3    H172736   5.134   1.726  16.002 -0.9337 -0.1306 -0.5137
17107TIP3    H272737   5.124   1.831  15.893  0.7109  0.5759 -0.0155
17108TIP3   OH272738   3.564   0.042   3.525  0.4582  0.4057  0.2776
17108TIP3    H172739   3.563   0.063   3.619  0.9790  1.6392  0.0297
17108TIP3    H272740   3.657   0.038   3.503  0.3534 -1.1499  0.0663
17109TIP3   OH272741   1.040   3.879  14.608  0.2640  0.0244 -0.0226
17109TIP3    H172742   1.007   3.938  14.677  1.3622  0.4234  0.1823
17109TIP3    H272743   1.132   3.904  14.598 -0.0735  0.5498 -2.2414
17110TIP3   OH272744   2.453   5.524   4.731 -0.0291 -0.4082  0.1803
17110TIP3    H172745   2.480   5.585   4.662  2.3837 -1.1433  0.3910
17110TIP3    H272746   2.383   5.472   4.691 -0.9242  1.3009 -0.5813
17111TIP3   OH272747   5.462   3.032  13.960  0.3542  0.2186 -0.6284
17111TIP3    H172748   5.540   3.061  13.913  1.3326  1.5623  1.6450
17111TIP3    H272749   5.412   3.113  13.975  0.7851  0.1337  1.7253
17112TIP3   OH272750   6.320   4.940  14.842  0.5903  0.4665 -0.1391
17112TIP3    H172751   6.277   5.000  14.781 -1.0791 -0.7342 -0.2348
17112TIP3    H272752   6.348   4.866  14.788  1.7987  0.7293  0.1090
17113TIP3   OH272753   2.090   1.388  11.870  0.0059 -0.3780 -0.5118
17113TIP3    H172754   2.172   1.361  11.828  0.7447  2.0792 -0.7901
17113TIP3    H272755   2.027   1.392  11.798  0.5140  0.9221 -0.9125
17114TIP3   OH272756   4.826   0.717  11.671 -0.1136 -0.4299  0.1710
17114TIP3    H172757   4.899   0.666  11.705  2.0770  1.0380 -2.0025
17114TIP3    H272758   4.777   0.743  11.749  2.2070 -0.7432  1.8500
17115TIP3   OH272759   4.791   1.819   3.018 -0.1059 -0.3715 -0.3820
17115TIP3    H172760   4.877   1.779   3.019 -0.5817 -1.4410  0.7564
17115TIP3    H272761   4.730   1.746   3.026 -1.0708  0.4385 -0.0187
17116TIP3   OH272762   1.868   5.003  13.262 -0.7430  0.6386  0.0249
17116TIP3    H172763   1.960   4.980  13.262 -0.9762 -0.5260  1.9507
17116TIP3    H272764   1.837   4.978  13.349 -2.9962  0.5078 -0.7503
17117TIP3   OH272765   6.675   2.466   5.307  0.8071 -0.3130 -0.3294
17117TIP3    H172766   6.695   2.481   5.400  1.5122 -0.5227 -0.4395
17117TIP3    H272767   6.638   2.377   5.305  0.9901 -0.3921 -0.2713
17118TIP3   OH272768   0.070   1.280   3.245 -0.0590  0.2637  0.1020
17118TIP3    H172769   0.024   1.228   3.312 -2.1305  0.4189 -1.0886
17118TIP3    H272770   0.141   1.223   3.216 -1.7094 -1.6181 -0.5245
17119TIP3   OH272771   0.391   2.960  15.316  0.0405  0.1344 -0.5707
17119TIP3    H172772   0.375   2.918  15.232  1.0361 -0.3836 -0.5223
17119TIP3    H272773   0.450   3.033  15.296 -2.3567  2.1281 -0.7843
17120TIP3   OH272774   1.323   0.614   5.284  0.6809 -0.3649 -0.2173
17120TIP3    H172775   1.418   0.627   5.284  0.4770  1.4494  1.0014
17120TIP3    H272776   1.301   0.597   5.376 -0.1939 -0.7668 -0.4886
17121TIP3   OH272777   6.243   3.369  10.408 -0.4727  0.3088 -0.2849
17121TIP3    H172778   6.195   3.441  10.369  0.1908 -0.0344 -1.8080
17121TIP3    H272779   6.334   3.383  10.381  0.2029  0.5383  1.9052
17122TIP3   OH272780   1.648   0.848   3.879  0.7288  0.1728 -0.3217
17122TIP3    H172781   1.727   0.812   3.918  1.9902  1.1150 -1.8834
17122TIP3    H272782   1.627   0.788   3.807  0.0004 -0.0841  0.1010
17123TIP3   OH272783   3.197   5.994   3.603  0.0590  0.4797  0.0317
17123TIP3    H172784   3.232   6.075   3.639  1.1544 -0.2070  0.5539
17123TIP3    H272785   3.183   5.937   3.679 -1.9344  0.6070 -0.1856
17124TIP3   OH272786   2.258   5.324  14.253 -0.0377  0.6712  0.4285
17124TIP3    H172787   2.180   5.371  14.224  0.1683 -0.6477 -2.5847
17124TIP3    H272788   2.327   5.353  14.194  0.9219 -0.8220  0.7658
17125TIP3   OH272789   6.081   4.406   3.282 -0.2201 -0.2038  0.2728
17125TIP3    H172790   6.137   4.336   3.248  1.8295  1.5225 -0.0485
17125TIP3    H272791   6.053   4.455   3.205  2.1073  1.9969  0.6989
17126TIP3   OH272792   5.434   6.551  10.550  0.1526 -0.3832 -0.2621
17126TIP3    H172793   5.365   6.521  10.609 -0.8454 -0.0752 -1.2402
17126TIP3    H272794   5.416   6.508  10.467  1.0094 -0.1189 -0.6042
17127TIP3   OH272795   6.055   5.751   0.892 -0.5804  0.4263  0.6309
17127TIP3    H172796   6.095   5.718   0.973 -0.8121 -0.0729  0.5479
17127TIP3    H272797   5.980   5.803   0.922 -2.3698 -2.0080  0.7195
17128TIP3   OH272798   6.502   5.548  16.248 -0.0933  0.2320  0.0554
17128TIP3    H172799   6.570   5.611  16.276  0.5104 -0.5289  0.3376
17128TIP3    H272800   6.536   5.463  16.275 -0.1162 -0.4075 -1.8255
17129TIP3   OH272801   5.901   3.348  14.987 -0.1808  0.5571  0.5305
17129TIP3    H172802   5.912   3.416  15.053  0.9549 -0.0415  0.9705
17129TIP3    H272803   5.956   3.276  15.016  2.5001  1.2447 -2.3728
17130TIP3   OH272804   0.439   0.231   1.463 -0.0378 -0.2326 -0.0050
17130TIP3    H172805   0.524   0.264   1.432  0.3678  1.5955  2.6997
17130TIP3    H272806   0.375   0.272   1.406  0.8109 -0.2721 -1.0217
17131TIP3   OH272807   1.999   5.145  14.224 -0.4701  0.4270  0.4873
17131TIP3    H172808   1.910   5.180  14.216 -1.3904 -2.0657 -1.6677
17131TIP3    H272809   2.053   5.204  14.172 -1.6681 -0.2436 -1.6524
17132TIP3   OH272810   5.008   1.853  16.454  0.0503 -0.1376  0.0308
17132TIP3    H172811   4.955   1.931  16.470 -1.2313 -1.1756  1.1466
17132TIP3    H272812   5.098   1.885  16.451 -0.4013  1.3285  1.0185
17133TIP3   OH272813   4.150   2.037   4.023 -0.8615  0.1893  0.0209
17133TIP3    H172814   4.241   2.013   4.043 -0.3823 -0.3138 -2.3975
17133TIP3    H272815   4.149   2.133   4.030  0.0647  0.2626 -0.5811
17134TIP3   OH272816   5.775   0.520  14.592  0.3340  0.2738 -0.0908
17134TIP3    H172817   5.788   0.442  14.646 -0.9069  0.7498  0.9595
17134TIP3    H272818   5.827   0.504  14.513  0.1002 -1.6245  0.0872
17135TIP3   OH272819   4.170   6.776  16.369  0.2405 -0.1830 -0.5543
17135TIP3    H172820   4.199   6.855  16.324  0.7233 -1.1310 -2.0137
17135TIP3    H272821   4.251   6.732  16.394 -0.0237 -0.2008  0.2874
17136TIP3   OH272822   5.647   0.814  15.543 -0.2086 -0.1688 -0.1980
17136TIP3    H172823   5.619   0.900  15.574 -0.2435 -0.3539  0.2964
17136TIP3    H272824   5.567   0.761  15.545  0.0011 -0.4685  0.4058
17137TIP3   OH272825   0.057   5.080  15.626  0.8499  0.4212 -0.2458
17137TIP3    H172826   0.003   5.031  15.565  1.2251 -1.1046  0.6035
17137TIP3    H272827   0.053   5.171  15.595 -2.8442  0.5774  0.2394
17138TIP3   OH272828   2.146   4.122  12.306  0.3610  0.4316 -0.0814
17138TIP3    H172829   2.105   4.066  12.240  0.5178 -1.5891  1.4200
17138TIP3    H272830   2.201   4.182  12.256 -1.8920  1.0992 -1.9517
17139TIP3   OH272831   1.602   2.858  17.254 -0.5050  0.4969  0.0560
17139TIP3    H172832   1.591   2.881  17.347  1.6083  1.6246  0.0939
17139TIP3    H272833   1.681   2.905  17.227  0.1102 -1.4405 -1.7775
17140TIP3   OH272834   3.171   1.864  16.590 -0.3179  0.7376  0.0609
17140TIP3    H172835   3.114   1.789  16.576 -0.0670  0.7907 -1.4774
17140TIP3    H272836   3.259   1.826  16.597 -0.3911  0.7536  1.1410
17141TIP3   OH272837   6.330   3.317   4.220  0.5964  0.8336  0.1871
17141TIP3    H172838   6.275   3.312   4.299 -0.6974 -0.9785 -0.7599
17141TIP3    H272839   6.295   3.390   4.170 -1.4312 -0.6770 -0.6923
17142TIP3   OH272840   5.579   4.020   0.365 -0.0935  0.3052 -0.1026
17142TIP3    H172841   5.636   3.950   0.397 -0.2072 -0.1113 -0.7827
17142TIP3    H272842   5.576   4.006   0.270 -0.5924  0.8793 -0.1735
17143TIP3   OH272843   4.699   5.144   4.724  0.3738  0.1116 -0.2544
17143TIP3    H172844   4.633   5.181   4.783 -0.9255 -0.5854 -1.2360
17143TIP3    H272845   4.674   5.176   4.637  1.0409 -0.5682 -0.7092
17144TIP3   OH272846   5.894   4.190   3.178  0.3147 -0.1075 -0.1111
17144TIP3    H172847   5.978   4.188   3.133  0.6841 -3.1922  0.4752
17144TIP3    H272848   5.915   4.174   3.270 -0.9136 -2.1250 -0.1184
17145TIP3   OH272849   0.679   0.618   6.501  0.0761  0.3337 -0.4524
17145TIP3    H172850   0.678   0.704   6.458  0.4181  0.7991  0.4550
17145TIP3    H272851   0.769   0.587   6.491  0.0428  0.2393 -0.4610
17146TIP3   OH272852   2.912   4.017  13.347 -0.0536 -0.1218 -0.3701
17146TIP3    H172853   2.864   3.946  13.303 -0.1123 -0.3998  0.1321
17146TIP3    H272854   2.844   4.081  13.370 -0.1067 -0.2449 -0.1775
17147TIP3   OH272855   0.519   4.969  16.358  0.1372 -0.2081 -0.6010
17147TIP3    H172856   0.580   4.915  16.408  0.2905 -0.6502 -1.2484
17147TIP3    H272857   0.556   5.057  16.362  0.4486 -0.3459 -0.4036
17148TIP3   OH272858   0.834   0.078  15.012  0.5451  0.0949 -0.1021
17148TIP3    H172859   0.807   0.154  15.063  1.8555  0.2014  0.4753
17148TIP3    H272860   0.847   0.009  15.077  1.1954 -0.0723 -0.3981
17149TIP3   OH272861   1.295   2.883  12.858  0.2771 -0.0100  0.3622
17149TIP3    H172862   1.271   2.795  12.887 -0.1387  0.1317  0.4669
17149TIP3    H272863   1.362   2.911  12.920 -0.5729  0.2723  1.1814
17150TIP3   OH272864   0.223   1.477  12.578 -0.9696  0.5244 -0.2314
17150TIP3    H172865   0.298   1.476  12.519 -1.3477 -2.6017 -0.8424
17150TIP3    H272866   0.156   1.525  12.530 -0.2843  0.7523 -0.9834
17151TIP3   OH272867   0.004   3.439   4.960 -0.0019 -0.3828 -0.1697
17151TIP3    H172868  -0.081   3.462   4.922  0.3647 -0.4998 -1.0798
17151TIP3    H272869   0.044   3.380   4.896  0.1835 -1.4654  0.9009
17152TIP3   OH272870   4.058   6.776  12.315  0.1156  0.4276 -0.0218
17152TIP3    H172871   4.013   6.695  12.290  0.4920  0.1528  0.1771
17152TIP3    H272872   4.041   6.785  12.409  0.9782 -0.0089  0.1854
17153TIP3   OH272873   5.094   6.372  12.176 -0.3920 -0.5582  0.5326
17153TIP3    H172874   5.086   6.446  12.236  0.1584  0.3423 -0.4765
17153TIP3    H272875   5.066   6.407  12.092  0.1631 -1.4154 -0.0157
17154TIP3   OH272876   6.624   5.038  14.343  0.8590  0.0597 -0.0039
17154TIP3    H172877   6.633   5.006  14.253  1.3570 -1.5618  0.5944
17154TIP3    H272878   6.713   5.058  14.370  0.5682  1.9368 -0.3260
17155TIP3   OH272879   0.884   6.117   1.175 -0.3633  0.1010  0.1287
17155TIP3    H172880   0.866   6.208   1.198  1.7799  0.9707 -1.3489
17155TIP3    H272881   0.855   6.109   1.084 -1.8735 -1.1505  0.6830
17156TIP3   OH272882   5.398   3.705  15.281 -0.0205  0.1530  0.2453
17156TIP3    H172883   5.320   3.759  15.288  0.2204  0.4813  0.4534
17156TIP3    H272884   5.450   3.748  15.213  0.6403  0.7961  1.1248
17157TIP3   OH272885   1.947   6.367   5.398  0.1468  0.0643 -0.6237
17157TIP3    H172886   1.996   6.305   5.344  0.6750 -1.3432  1.3557
17157TIP3    H272887   1.923   6.317   5.476  0.0886  2.2060  0.8196
17158TIP3   OH272888   1.346   4.662   1.633  0.0318  0.1492  0.5981
17158TIP3    H172889   1.333   4.635   1.543  1.4543 -1.3102  0.7803
17158TIP3    H272890   1.357   4.757   1.629 -0.1255  0.1244 -0.7328
17159TIP3   OH272891   4.048   1.007  16.060  0.0774  0.4687  0.2733
17159TIP3    H172892   4.136   0.983  16.030 -0.1249 -0.5739  0.4842
17159TIP3    H272893   4.051   0.992  16.154 -0.9925 -1.7925 -0.0005
17160TIP3   OH272894   4.729   6.465   2.637  0.7981 -0.4040 -0.1957
17160TIP3    H172895   4.781   6.545   2.644  1.0299 -0.5953  0.3821
17160TIP3    H272896   4.783   6.398   2.678 -0.2319 -0.4470  1.1809
17161TIP3   OH272897   0.671   3.385  13.264  0.2328  0.7689 -0.4763
17161TIP3    H172898   0.705   3.322  13.201  0.6762  0.0498  0.4562
17161TIP3    H272899   0.680   3.470  13.220 -1.1992  0.1417 -2.0942
17162TIP3   OH272900   3.712   6.350  15.445  0.4046 -0.1258 -0.3824
17162TIP3    H172901   3.722   6.438  15.409  2.7058  1.0314  2.6088
17162TIP3    H272902   3.637   6.357  15.504 -2.0281 -1.4331 -3.1170
17163TIP3   OH272903   3.134   2.794  13.820  0.0851  0.2570  0.3781
17163TIP3    H172904   3.113   2.817  13.730  3.7743  0.8704 -0.4909
17163TIP3    H272905   3.136   2.699  13.821  0.1769  0.2480 -0.2386
17164TIP3   OH272906   5.845   0.060   5.583  0.4980  0.0806  0.3555
17164TIP3    H172907   5.925   0.008   5.576  0.6725  0.3765  0.1340
17164TIP3    H272908   5.803   0.029   5.663  1.2089  0.4425  0.8806
17165TIP3   OH272909   1.028   0.249   0.066 -0.2268 -0.1011  0.1689
17165TIP3    H172910   1.078   0.222   0.143  0.9729 -1.3179 -0.9997
17165TIP3    H272911   1.030   0.345   0.070  0.6439 -0.1344  1.1380
17166TIP3   OH272912   2.309   1.325  15.909 -0.2342  0.1952  0.0183
17166TIP3    H172913   2.293   1.240  15.951  0.3186 -0.2202 -0.5835
17166TIP3    H272914   2.399   1.319  15.878 -0.5332  0.6121 -0.9461
17167TIP3   OH272915   5.094   0.911   5.604 -0.4374  0.3333 -0.2658
17167TIP3    H172916   5.112   0.895   5.697 -1.3815  0.1350 -0.1061
17167TIP3    H272917   5.176   0.888   5.560 -0.7630 -2.0379  0.2555
17168TIP3   OH272918   3.689   2.170   1.521 -0.1925 -0.1528  0.3421
17168TIP3    H172919   3.645   2.085   1.526  1.4379 -1.4037 -3.1396
17168TIP3    H272920   3.618   2.234   1.525 -1.6538 -1.7498  1.1381
17169TIP3   OH272921   4.581   1.640   1.152 -0.2773  0.1744  0.3108
17169TIP3    H172922   4.604   1.571   1.090 -1.5852  0.1466 -0.1877
17169TIP3    H272923   4.528   1.596   1.219 -1.4082  0.7259 -0.1923
17170TIP3   OH272924   1.588   2.262  14.060 -0.0599  0.4160 -0.0746
17170TIP3    H172925   1.554   2.218  14.138 -0.1192 -1.0348 -0.8830
17170TIP3    H272926   1.680   2.236  14.057  0.3115  1.6424  0.2820
17171TIP3   OH272927   2.423   1.512  16.487  0.5194 -0.4243  0.2286
17171TIP3    H172928   2.438   1.566  16.565  0.1350 -0.4442  0.3168
17171TIP3    H272929   2.361   1.445  16.517 -0.6003  0.2929 -0.4055
17172TIP3   OH272930   5.972   5.700   0.377  0.7788  0.5590 -0.4213
17172TIP3    H172931   5.906   5.632   0.363  1.8856 -0.1583 -2.6643
17172TIP3    H272932   5.989   5.697   0.471 -0.5113 -0.9959 -0.1805
17173TIP3   OH272933   4.778   6.617   1.153  0.1344  0.8745  0.6482
17173TIP3    H172934   4.725   6.695   1.137  1.2058  2.0381  2.4574
17173TIP3    H272935   4.743   6.551   1.092 -0.4331  2.8857 -1.3393
17174TIP3   OH272936   4.784   2.158  11.566 -0.7610  0.6312  0.3972
17174TIP3    H172937   4.724   2.224  11.601  1.9516  2.8136  1.3264
17174TIP3    H272938   4.806   2.190  11.478 -0.5924  0.1080  0.2463
17175TIP3   OH272939   0.207   5.098  16.343  0.0764 -0.2395  0.7399
17175TIP3    H172940   0.243   5.159  16.278  0.6165  0.8967  2.0496
17175TIP3    H272941   0.282   5.045  16.370  0.2074  0.3172  1.5138
17176TIP3   OH272942   1.461   5.178  15.837  0.5629 -0.3729 -0.8302
17176TIP3    H172943   1.421   5.097  15.806 -0.7579 -0.4902  0.9898
17176TIP3    H272944   1.429   5.187  15.927  3.0853  0.5944  0.0609
17177TIP3   OH272945   2.044   2.355   4.636 -0.3751  0.1680  0.6797
17177TIP3    H172946   1.981   2.395   4.697  0.6105 -0.0847  1.8971
17177TIP3    H272947   2.114   2.419   4.629 -0.2392 -0.0301  0.2021
17178TIP3   OH272948   0.758   2.270  13.009 -0.0650  0.0150  0.3119
17178TIP3    H172949   0.774   2.193  12.954 -0.5784  0.4405 -0.4538
17178TIP3    H272950   0.663   2.279  13.010 -0.0730 -0.0459  1.3831
17179TIP3   OH272951   4.353   2.292  12.936 -0.3786 -0.0735  0.2708
17179TIP3    H172952   4.428   2.238  12.961 -0.7164 -0.3145  0.7881
17179TIP3    H272953   4.323   2.256  12.853  0.4574  0.4195 -0.2530
17180TIP3   OH272954   1.061   4.361  16.509 -0.1927  0.4854  0.2317
17180TIP3    H172955   1.058   4.267  16.526 -1.7937  0.6250  0.9896
17180TIP3    H272956   1.082   4.400  16.593 -0.4903  0.8339  0.1496
17181TIP3   OH272957   5.523   1.613  16.538 -0.6999  0.1827  0.0194
17181TIP3    H172958   5.489   1.563  16.464  0.7364  2.6930 -2.5208
17181TIP3    H272959   5.457   1.680  16.555 -1.1900 -0.5973  1.3337
17182TIP3   OH272960   0.215   6.239   5.517  0.2700 -0.0106 -0.2281
17182TIP3    H172961   0.235   6.333   5.513  0.9138 -0.1763 -1.7974
17182TIP3    H272962   0.138   6.229   5.461 -1.9344  0.0161  2.5869
17183TIP3   OH272963   4.211   2.338  10.713 -0.2084 -0.4101 -0.1812
17183TIP3    H172964   4.159   2.360  10.791  0.2052 -2.0755  0.6069
17183TIP3    H272965   4.266   2.266  10.740  2.2986  1.0306 -1.1245
17184TIP3   OH272966   1.122   3.253  12.386 -0.2362  0.0815 -0.1792
17184TIP3    H172967   1.057   3.323  12.397  0.8885  1.0480  0.7150
17184TIP3    H272968   1.124   3.209  12.471 -0.6026 -0.7395 -0.5934
17185TIP3   OH272969   4.397   2.371  16.036  0.0528 -0.0920 -0.2313
17185TIP3    H172970   4.427   2.374  16.127 -2.1686 -2.1326  0.6690
17185TIP3    H272971   4.417   2.281  16.008 -1.2743 -0.1642 -0.9982
17186TIP3   OH272972   5.816   3.409   3.670  0.3914  0.0134  0.3513
17186TIP3    H172973   5.849   3.497   3.653 -2.0972  1.4360  2.1174
17186TIP3    H272974   5.891   3.360   3.701  1.5267  2.0375  0.9677
17187TIP3   OH272975   1.515   2.572  16.719  0.0931 -0.5174  0.6121
17187TIP3    H172976   1.609   2.555  16.724 -0.2881 -2.6824  1.9847
17187TIP3    H272977   1.476   2.486  16.702 -1.7676 -0.2272  2.8416
17188TIP3   OH272978   0.156   2.049  11.527 -0.2597 -0.2575  0.4014
17188TIP3    H172979   0.241   2.083  11.499 -0.6974  0.1988 -0.3895
17188TIP3    H272980   0.100   2.126  11.532 -0.4890 -0.4753  1.4863
17189TIP3   OH272981   6.445   5.249   6.630  0.3989 -0.3838  0.3233
17189TIP3    H172982   6.412   5.161   6.651 -1.2053 -0.5329 -2.3227
17189TIP3    H272983   6.368   5.306   6.638  0.1928 -0.1123 -2.5312
17190TIP3   OH272984   5.847   4.618   3.703 -0.0025  0.0615 -0.4830
17190TIP3    H172985   5.843   4.523   3.702 -0.5793  0.0814 -0.3105
17190TIP3    H272986   5.911   4.639   3.772  0.1943 -0.1976 -0.5857
17191TIP3   OH272987   2.187   2.455  13.954 -0.1833  0.1655  0.2521
17191TIP3    H172988   2.123   2.507  14.001 -0.8940 -0.3060 -0.1614
17191TIP3    H272989   2.270   2.470  13.999 -0.0372  2.8389 -0.7596
17192TIP3   OH272990   0.671   2.052  12.483 -0.2646 -0.5356 -0.6782
17192TIP3    H172991   0.676   2.147  12.490 -0.3731 -0.5591 -0.2930
17192TIP3    H272992   0.634   2.023  12.566  0.8524 -1.0175 -0.3282
17193TIP3   OH272993   0.081   3.635  14.584  0.5609 -0.2445 -0.2522
17193TIP3    H172994   0.089   3.622  14.490  1.5797  1.5598 -0.4703
17193TIP3    H272995  -0.001   3.683  14.595  1.2273  0.9813 -0.4305
17194TIP3   OH272996   0.318   1.585   3.336  0.3182  0.0252 -0.2560
17194TIP3    H172997   0.263   1.580   3.258  1.1433 -0.0830 -0.8514
17194TIP3    H272998   0.378   1.510   3.328  0.4369  0.0351  0.4652
17195TIP3   OH272999   0.648   5.999  15.369  0.4220 -0.1382  0.9905
17195TIP3    H173000   0.725   5.944  15.357 -1.3940 -2.5807 -0.4771
17195TIP3    H273001   0.620   5.983  15.459  0.0981 -1.4525  0.6759
17196TIP3   OH273002   5.487   2.501  12.493 -0.5583 -0.2219  0.0091
17196TIP3    H173003   5.555   2.522  12.429  0.2045  0.8418  1.1155
17196TIP3    H273004   5.534   2.461  12.566 -1.6302 -3.1229 -0.7517
17197TIP3   OH273005   5.137   1.284  15.578  0.0926  0.3071  0.6494
17197TIP3    H173006   5.192   1.323  15.646 -0.4201  1.0008  0.6775
17197TIP3    H273007   5.095   1.209  15.621  1.1550 -0.3603  0.5682
17198TIP3   OH273008   0.096   4.548   1.003 -0.5604  0.6423  0.2545
17198TIP3    H173009   0.099   4.460   0.964  0.1967 -0.4152  2.5070
17198TIP3    H273010   0.188   4.575   1.007 -0.7775  1.4773 -0.2603
17199TIP3   OH273011   3.715   5.789   1.185  0.6164  0.0261  0.3982
17199TIP3    H173012   3.758   5.873   1.173  0.4995 -0.0466 -0.6435
17199TIP3    H273013   3.693   5.786   1.278 -0.6776  1.7737  0.1980
17200TIP3   OH273014   5.810   3.847  15.394  0.4622 -0.6221 -0.2430
17200TIP3    H173015   5.782   3.796  15.470  0.3672 -0.0001  0.1424
17200TIP3    H273016   5.776   3.799  15.319  0.2670 -1.0572  0.1206
17201TIP3   OH273017   0.126   5.351  11.436  0.0412 -0.6367  0.6537
17201TIP3    H173018   0.047   5.325  11.389 -0.1820 -2.1659  1.7806
17201TIP3    H273019   0.194   5.293  11.402  0.3909 -0.1822  0.5766
17202TIP3   OH273020   3.397   2.195  16.031 -0.4167 -0.4138 -0.1603
17202TIP3    H173021   3.355   2.155  15.955 -0.2069 -1.1396  0.0993
17202TIP3    H273022   3.459   2.130  16.062  0.3121  0.3230 -0.0330
17203TIP3   OH273023   1.480   2.600  11.018  0.0276  0.1732 -0.0492
17203TIP3    H173024   1.475   2.670  10.952  0.1538 -0.4845 -0.7771
17203TIP3    H273025   1.482   2.519  10.966 -1.2090 -0.4268  0.7929
17204TIP3   OH273026   4.788   0.873   4.135 -0.0175  0.6236 -0.0447
17204TIP3    H173027   4.810   0.914   4.218  0.1836  1.7528 -0.6372
17204TIP3    H273028   4.694   0.858   4.139  0.0849  0.1248  0.6137
17205TIP3   OH273029   2.977   0.798  10.868  0.3007  0.0464  0.6925
17205TIP3    H173030   3.038   0.793  10.795  1.8259 -0.5513  1.9433
17205TIP3    H273031   2.954   0.891  10.873 -0.7183 -0.0515 -1.1769
17206TIP3   OH273032   6.370   1.017  15.811 -0.6710  0.0469 -0.0477
17206TIP3    H173033   6.433   1.072  15.859  0.0233 -0.8149  0.0518
17206TIP3    H273034   6.285   1.040  15.850 -0.2594  0.2154  0.7898
17207TIP3   OH273035   1.616   6.352   1.679 -0.5165 -0.4298 -0.3198
17207TIP3    H173036   1.595   6.331   1.770 -4.5356  0.4589 -0.8352
17207TIP3    H273037   1.562   6.292   1.628 -0.0886  0.6088 -2.0705
17208TIP3   OH273038   3.847   1.122  13.845 -0.1622 -0.3851 -0.3583
17208TIP3    H173039   3.842   1.028  13.860  0.6599 -0.4491 -0.4074
17208TIP3    H273040   3.852   1.132  13.750  2.2221 -0.4852 -0.3258
17209TIP3   OH273041   5.885   2.155   3.103 -0.0090 -0.6216  0.5615
17209TIP3    H173042   5.844   2.082   3.056 -0.3184 -0.0978  0.0065
17209TIP3    H273043   5.961   2.178   3.048 -0.4246  0.0524  0.2651
17210TIP3   OH273044   6.121   4.871   5.566  0.2403 -0.0077  0.6286
17210TIP3    H173045   6.188   4.936   5.546  0.7840 -1.0659 -1.2421
17210TIP3    H273046   6.071   4.862   5.485  0.4863 -2.2327  0.6683
17211TIP3   OH273047   6.465   2.752   5.018  0.2286 -0.2882  0.6635
17211TIP3    H173048   6.467   2.776   4.925  1.9806 -0.9412  0.4962
17211TIP3    H273049   6.556   2.733   5.039 -0.2983 -1.1624  2.2630
17212TIP3   OH273050   5.479   0.381   2.345  0.1970 -0.2185 -0.2212
17212TIP3    H173051   5.512   0.386   2.255 -2.3176  0.1312 -1.2108
17212TIP3    H273052   5.478   0.287   2.364 -1.4869 -0.5113 -1.5163
17213TIP3   OH273053   2.522   6.679  16.805  0.2642 -0.3789  0.4507
17213TIP3    H173054   2.525   6.767  16.843  0.7950  1.1250 -2.7435
17213TIP3    H273055   2.429   6.664  16.788  0.3649  0.8126 -1.4445
17214TIP3   OH273056   0.153   5.277   1.297  0.2691 -0.2357  0.0234
17214TIP3    H173057   0.078   5.333   1.275  0.6354  0.2408 -0.0399
17214TIP3    H273058   0.133   5.242   1.384 -1.3268 -2.3475 -1.1006
17215TIP3   OH273059   0.956   0.860   3.314  0.2129  0.2749 -0.0401
17215TIP3    H173060   1.039   0.815   3.323 -0.2844 -0.5557  0.5273
17215TIP3    H273061   0.931   0.883   3.404 -0.8890 -0.8584 -0.0225
17216TIP3   OH273062   4.034   5.860  13.092 -0.0040 -0.2894 -0.6077
17216TIP3    H173063   4.120   5.826  13.118  0.5453 -0.5891 -2.6555
17216TIP3    H273064   4.052   5.950  13.065 -0.4155 -0.2234 -0.6647
17217TIP3   OH273065   2.059   2.927   5.910 -0.4392 -0.5708 -0.5859
17217TIP3    H173066   2.136   2.872   5.894 -1.4980 -2.8896  1.5675
17217TIP3    H273067   2.092   3.000   5.963  0.3834 -1.2613 -0.1120
17218TIP3   OH273068   3.669   5.242   2.348 -0.1489 -0.4633 -0.8463
17218TIP3    H173069   3.667   5.162   2.400 -0.2552  0.1082  0.0459
17218TIP3    H273070   3.761   5.267   2.344 -0.0177 -1.0284 -1.7771
17219TIP3   OH273071   5.951   4.678   4.338 -0.0234  0.8716 -0.1877
17219TIP3    H173072   5.966   4.710   4.249 -1.0019  0.5702 -0.4745
17219TIP3    H273073   6.037   4.646   4.367 -0.1594 -1.4082 -1.9984
17220TIP3   OH273074   4.852   1.573  11.127 -0.3430 -0.0846  0.0057
17220TIP3    H173075   4.850   1.571  11.223 -2.0711 -0.2958  0.0085
17220TIP3    H273076   4.945   1.574  11.104  0.1478  2.3568  1.7347
17221TIP3   OH273077   0.526   0.590  17.098  0.3152  0.9352 -0.8415
17221TIP3    H173078   0.450   0.532  17.097 -0.5141  1.8646  1.2240
17221TIP3    H273079   0.595   0.539  17.140  0.2469  0.7270 -0.9855
17222TIP3   OH273080   5.372   6.438   5.430  0.0672  0.5563 -0.2364
17222TIP3    H173081   5.320   6.495   5.374  1.1818  2.2436  0.3433
17222TIP3    H273082   5.410   6.374   5.371 -0.1580  1.2365 -1.1351
17223TIP3   OH273083   0.173   0.368   1.564  0.0571 -0.4684  0.6933
17223TIP3    H173084   0.080   0.368   1.539  0.6757 -2.5940 -2.0387
17223TIP3    H273085   0.186   0.285   1.609  0.7545 -0.4263  0.5720
17224TIP3   OH273086   5.869   0.982  13.838  0.1046 -0.3824  0.5188
17224TIP3    H173087   5.930   0.910  13.819 -0.9857 -1.1524 -0.1613
17224TIP3    H273088   5.783   0.947  13.816 -0.1958  2.3173 -3.5066
17225TIP3   OH273089   3.503   5.757  14.745  0.2554  0.0725 -0.1377
17225TIP3    H173090   3.485   5.782  14.836  0.5245 -0.3044  0.0238
17225TIP3    H273091   3.545   5.834  14.707  1.0024 -0.0854  0.3300
17226TIP3   OH273092   0.667   2.916  15.122 -0.2925 -0.0596 -0.1041
17226TIP3    H173093   0.741   2.912  15.062  0.2041 -3.6612  0.5730
17226TIP3    H273094   0.699   2.968  15.196  0.5843  0.6667 -0.9549
17227TIP3   OH273095   2.500   3.929   3.303  0.4769  0.3089 -0.0787
17227TIP3    H173096   2.457   4.011   3.326  0.1329  0.0555  0.1859
17227TIP3    H273097   2.432   3.862   3.314  0.7753 -0.0188 -0.2194
17228TIP3   OH273098   3.667   5.905  12.292 -0.5237 -0.0881 -0.0336
17228TIP3    H173099   3.685   5.838  12.358  1.7881 -0.1610 -0.6465
17228TIP3    H273100   3.637   5.980  12.343 -0.2156 -0.6178  0.9687
17229TIP3   OH273101   1.799   5.187  16.792  0.1304  0.0461 -0.0828
17229TIP3    H173102   1.894   5.195  16.786 -0.0114  0.9933 -1.6781
17229TIP3    H273103   1.781   5.184  16.886  1.7429 -0.4666  0.2383
17230TIP3   OH273104   3.807   3.879   2.820  0.6438  0.7209 -0.6044
17230TIP3    H173105   3.855   3.961   2.814  2.5987 -0.4100 -1.3427
17230TIP3    H273106   3.811   3.841   2.732 -2.4260  0.9344 -0.9581
17231TIP3   OH273107   2.961   4.800   2.171  0.1038  0.4296 -0.0484
17231TIP3    H173108   2.876   4.801   2.215  0.0609 -0.6316 -0.0782
17231TIP3    H273109   3.018   4.850   2.229 -0.7544  2.0710 -0.5346
17232TIP3   OH273110   6.666   0.402   3.057  0.1106 -0.1804 -0.0974
17232TIP3    H173111   6.678   0.415   2.963 -1.5659 -0.2382 -0.3580
17232TIP3    H273112   6.702   0.316   3.075  1.2284  0.1901 -0.5073
17233TIP3   OH273113   2.104   2.089  12.764  0.3648  0.4576 -0.1891
17233TIP3    H173114   2.020   2.093  12.718 -1.0445  1.3595  2.2845
17233TIP3    H273115   2.153   2.165  12.732  0.4047 -0.2165 -1.8346
17234TIP3   OH273116   6.194   4.412  17.058  0.2091  0.0924  0.1480
17234TIP3    H173117   6.117   4.362  17.031  0.6029 -0.9440  0.8596
17234TIP3    H273118   6.228   4.450  16.977 -1.1095  0.6759 -0.1546
17235TIP3   OH273119   5.174   5.425  14.608  0.6256 -0.3842 -0.0297
17235TIP3    H173120   5.241   5.443  14.674 -0.4900  0.0816  1.0320
17235TIP3    H273121   5.139   5.512  14.586  1.8567 -0.3814 -2.2549
17236TIP3   OH273122   0.837   3.039  15.305 -0.2140  0.1146 -0.9186
17236TIP3    H173123   0.861   2.946  15.312 -1.8358 -0.2568  0.1892
17236TIP3    H273124   0.861   3.076  15.390  0.4735  0.7542 -1.3717
17237TIP3   OH273125   1.774   2.113  15.757 -0.1989  0.1161  0.7463
17237TIP3    H173126   1.702   2.167  15.790  1.3603  1.1753  2.6396
17237TIP3    H273127   1.853   2.164  15.776  1.1393 -1.4930 -0.2334
17238TIP3   OH273128   5.453   0.237  11.419  0.4684  0.1416  0.0238
17238TIP3    H173129   5.458   0.154  11.372  1.7252  0.4919 -0.4895
17238TIP3    H273130   5.542   0.253  11.451  0.1783  1.1353  0.3870
17239TIP3   OH273131   6.737   0.935  16.917 -0.0801  0.2566  0.5777
17239TIP3    H173132   6.706   0.853  16.956 -1.2751 -0.4949 -1.7652
17239TIP3    H273133   6.833   0.928  16.920 -0.1603 -1.0798  0.7202
17240TIP3   OH273134   0.380   0.421  11.363 -0.0041  0.0984 -0.1401
17240TIP3    H173135   0.345   0.453  11.446 -0.1315  0.5430 -0.3632
17240TIP3    H273136   0.308   0.372  11.324  0.6641 -1.9063  0.9305
17241TIP3   OH273137   2.007   4.132  16.176 -0.2720 -0.3572 -0.2440
17241TIP3    H173138   2.004   4.207  16.236 -0.7130  0.2787 -1.0225
17241TIP3    H273139   1.921   4.091  16.185 -0.8096  0.4642 -1.2878
17242TIP3   OH273140   2.213   1.143  15.018 -0.0031 -0.6070  0.3642
17242TIP3    H173141   2.306   1.137  15.040  0.5547  2.6306 -0.5453
17242TIP3    H273142   2.177   1.058  15.041  3.3336 -2.2857 -0.0300
17243TIP3   OH273143   0.153   4.817   2.194 -0.6545  0.0230  0.3824
17243TIP3    H173144   0.197   4.781   2.117 -2.5739  0.5744 -1.0281
17243TIP3    H273145   0.219   4.809   2.264  1.4456  0.2362 -1.4458
17244TIP3   OH273146   5.849   0.899  12.598  0.1438 -0.1340  0.0193
17244TIP3    H173147   5.791   0.823  12.607 -0.5516  0.5170  1.3827
17244TIP3    H273148   5.791   0.971  12.574  0.5075  0.3481  0.5673
17245TIP3   OH273149   5.578   4.481   3.473 -0.3899  0.3002 -0.5136
17245TIP3    H173150   5.652   4.459   3.416  0.1540  0.9299 -0.0743
17245TIP3    H273151   5.619   4.525   3.548 -1.4418  4.1658 -1.9708
17246TIP3   OH273152   2.109   1.185   1.471  0.3581 -0.0865 -0.4121
17246TIP3    H173153   2.188   1.216   1.427 -0.2835  1.8430 -0.2928
17246TIP3    H273154   2.057   1.144   1.402  1.7971 -2.2332 -0.3293
17247TIP3   OH273155   0.947   2.621  15.794  0.6988  0.5459  0.3060
17247TIP3    H173156   0.907   2.549  15.745  1.2168 -0.0494  0.7346
17247TIP3    H273157   0.967   2.583  15.879  0.1133  1.4727  0.8765
17248TIP3   OH273158   4.507   2.664   2.386 -0.2572 -0.7716 -0.4227
17248TIP3    H173159   4.486   2.662   2.292 -0.0193  1.9126 -0.6365
17248TIP3    H273160   4.422   2.657   2.430 -0.5382 -0.5053 -0.9100
17249TIP3   OH273161   3.427   6.111  16.979 -0.1085  0.0185  0.1975
17249TIP3    H173162   3.497   6.177  16.978  1.3466 -1.3505  2.4671
17249TIP3    H273163   3.358   6.149  17.033 -1.0856  1.2394 -1.7823
17250TIP3   OH273164   5.108   3.448   3.287 -0.0904  0.2732 -0.5388
17250TIP3    H173165   5.082   3.356   3.279  0.8543  0.1018 -2.0510
17250TIP3    H273166   5.203   3.446   3.276  0.5280  1.0392  3.2367
17251TIP3   OH273167   4.959   3.033   2.303  0.0520  0.1725 -0.5552
17251TIP3    H173168   5.002   2.987   2.374  0.2751  2.3626  0.8205
17251TIP3    H273169   4.869   3.002   2.305 -0.1503  0.7647  1.2725
17252TIP3   OH273170   4.989   5.003   1.860  0.3744 -0.2298 -0.4825
17252TIP3    H173171   5.045   5.011   1.783  0.7651 -2.6730 -0.5220
17252TIP3    H273172   5.026   5.066   1.923  1.3355  0.2880 -1.5316
17253TIP3   OH273173   4.946   0.067   3.945 -0.0180 -0.9127 -0.2285
17253TIP3    H173174   4.979   0.015   4.018  0.4682  0.8578  0.8759
17253TIP3    H273175   5.021   0.079   3.887 -0.0261 -1.0687 -0.2719
17254TIP3   OH273176   5.235   0.615  15.994  0.1203  0.0804  0.6068
17254TIP3    H173177   5.166   0.565  16.038  1.0428 -1.7113  0.1232
17254TIP3    H273178   5.190   0.656  15.920 -1.2268  2.2938  2.4942
17255TIP3   OH273179   6.527   6.748  14.412 -0.2360 -0.8057 -0.5959
17255TIP3    H173180   6.571   6.806  14.475 -1.7526 -0.7755  0.4768
17255TIP3    H273181   6.579   6.668  14.414  0.3720 -0.4107 -0.1394
17256TIP3   OH273182   3.016   5.603  16.185 -0.8097 -0.4264  0.3974
17256TIP3    H173183   3.039   5.690  16.218  0.5817 -1.4824  2.4571
17256TIP3    H273184   3.055   5.600  16.098 -0.3369  0.7925  0.5360
17257TIP3   OH273185   1.648   4.405   3.955 -0.2093 -0.4230  0.4123
17257TIP3    H173186   1.685   4.351   3.885  0.5617 -0.1188  0.5818
17257TIP3    H273187   1.661   4.495   3.925 -0.4165 -0.3040  0.6758
17258TIP3   OH273188   3.320   0.313   3.776  0.1838 -0.1168 -0.3369
17258TIP3    H173189   3.302   0.383   3.713  2.0134  0.9214  0.2122
17258TIP3    H273190   3.311   0.232   3.725  1.4243  0.6857 -1.9292
17259TIP3   OH273191   0.248   1.774   4.735 -0.0780 -0.0981  0.0024
17259TIP3    H173192   0.251   1.845   4.800  1.2971  0.1529 -0.3179
17259TIP3    H273193   0.286   1.699   4.781  1.2806  0.1888 -0.6295
17260TIP3   OH273194   1.387   0.038   6.442  0.2286 -0.1110 -0.1476
17260TIP3    H173195   1.436   0.114   6.473  1.7781 -1.2663  0.3473
17260TIP3    H273196   1.356   0.063   6.355  1.2308  0.8628 -0.2451
17261TIP3   OH273197   3.283   0.114   4.682  0.1272 -0.2579  0.4278
17261TIP3    H173198   3.350   0.125   4.750 -0.0852  0.3033  0.5478
17261TIP3    H273199   3.214   0.064   4.726  0.8426 -1.6336  0.0447
17262TIP3   OH273200   0.520   4.327  11.602 -0.1633  0.4835 -0.4174
17262TIP3    H173201   0.579   4.391  11.642  2.1071 -1.3631 -0.5694
17262TIP3    H273202   0.474   4.288  11.677 -1.3822  2.0339 -0.3074
17263TIP3   OH273203   0.443   1.014   4.288 -0.4481  0.9514  0.3150
17263TIP3    H173204   0.419   1.066   4.211 -2.6254  2.0242  1.6480
17263TIP3    H273205   0.381   1.041   4.356 -1.3846 -3.0074  1.2559
17264TIP3   OH273206   3.127   0.528   2.627  0.1811 -0.2760  0.6609
17264TIP3    H173207   3.215   0.549   2.596 -0.2627  0.9887  0.1722
17264TIP3    H273208   3.111   0.439   2.596  0.2916  0.4288 -1.6220
17265TIP3   OH273209   1.311   1.971  16.861  0.0833  0.0988  0.0230
17265TIP3    H173210   1.269   2.034  16.803 -2.6182 -0.7070  0.9072
17265TIP3    H273211   1.349   2.024  16.931  1.8334  0.9574 -1.5153
17266TIP3   OH273212   0.822   2.397  11.046 -0.4111  0.1699  0.2230
17266TIP3    H173213   0.876   2.395  10.967 -0.7507 -0.2453 -0.0059
17266TIP3    H273214   0.831   2.310  11.084 -2.0882 -0.4401 -0.6426
17267TIP3   OH273215   2.732   2.082   1.853  0.0579  0.4908 -0.0617
17267TIP3    H173216   2.720   2.122   1.766 -0.4046  0.3108 -0.0865
17267TIP3    H273217   2.672   2.130   1.910 -0.0672  0.2249  0.0338
17268TIP3   OH273218   4.734   1.701   3.727  0.2826 -0.2364 -0.6517
17268TIP3    H173219   4.664   1.706   3.662 -0.0938 -1.0659 -0.3266
17268TIP3    H273220   4.801   1.645   3.688  0.6821  0.3826 -0.8749
17269TIP3   OH273221   3.478   4.082   5.728 -0.3516 -0.5751 -0.1388
17269TIP3    H173222   3.429   4.153   5.769  0.6369  0.7671 -1.1769
17269TIP3    H273223   3.450   4.083   5.637  1.2053 -0.0704 -0.6508
17270TIP3   OH273224   5.370   3.503   2.619  0.0525 -0.1225 -0.1178
17270TIP3    H173225   5.279   3.473   2.621  0.0783 -0.2086 -0.2430
17270TIP3    H273226   5.408   3.460   2.543  0.3777 -0.5929  0.3057
17271TIP3   OH273227   2.191   5.486  12.027  0.4222  0.8957 -0.0952
17271TIP3    H173228   2.136   5.560  12.002  0.4617  1.1593  0.5659
17271TIP3    H273229   2.273   5.525  12.056 -0.0294  0.7257  1.5557
17272TIP3   OH273230   5.112   2.888  14.821 -0.0103 -0.8010 -0.5828
17272TIP3    H173231   5.042   2.885  14.887  0.5548 -2.9399 -0.0084
17272TIP3    H273232   5.169   2.815  14.843  1.3818 -0.2684 -2.1980
17273TIP3   OH273233   1.015   4.384  15.891  0.0478 -0.5013 -0.2864
17273TIP3    H173234   0.994   4.316  15.828 -1.2187  1.1000 -1.7001
17273TIP3    H273235   1.028   4.463  15.838  3.2095  0.0824  1.1041
17274TIP3   OH273236   0.208   3.835   4.354 -0.1762  0.0815 -0.1502
17274TIP3    H173237   0.235   3.846   4.445  1.4293  2.2474 -0.8046
17274TIP3    H273238   0.253   3.756   4.325  0.5295  0.2273  0.5290
17275TIP3   OH273239   1.050   5.124   1.258 -0.2853 -0.6830  0.1798
17275TIP3    H173240   1.042   5.068   1.180  3.5150 -0.5133 -0.5093
17275TIP3    H273241   1.067   5.211   1.223 -0.0057 -0.3090  1.2254
17276TIP3   OH273242   5.808   4.270   0.162  0.2799 -0.4671  0.5678
17276TIP3    H173243   5.878   4.321   0.122  2.2295 -2.6881  0.9269
17276TIP3    H273244   5.828   4.272   0.256  0.2697 -1.6451  0.6106
17277TIP3   OH273245   3.274   4.306   6.562 -0.0072 -0.5259 -0.2624
17277TIP3    H173246   3.244   4.349   6.482  0.9152  2.3913  0.8313
17277TIP3    H273247   3.208   4.326   6.628  1.5855  1.4433  0.8595
17278TIP3   OH273248   6.573   1.482   5.058 -1.4592 -0.3345  0.4724
17278TIP3    H173249   6.603   1.570   5.078 -1.8538 -0.1389  0.2222
17278TIP3    H273250   6.587   1.472   4.964 -0.7307 -0.8105  0.6242
17279TIP3   OH273251   1.451   4.719   4.745 -0.8213  0.0053  0.1229
17279TIP3    H173252   1.462   4.641   4.799  1.1309  0.5772  0.6441
17279TIP3    H273253   1.480   4.691   4.657  1.8526  0.5651  0.7276
17280TIP3   OH273254   1.458   2.972  16.940 -0.1768 -0.1343 -0.0179
17280TIP3    H173255   1.479   3.065  16.947 -0.4332  0.0292 -1.1315
17280TIP3    H273256   1.541   2.927  16.955 -0.5826  0.0715  3.5801
17281TIP3   OH273257   6.689   3.193   2.135  0.2031  0.2392  0.1375
17281TIP3    H173258   6.717   3.270   2.086 -0.5059 -0.8875 -2.1349
17281TIP3    H273259   6.769   3.144   2.153  0.4745  0.7137  0.2274
17282TIP3   OH273260   5.154   6.330  12.555 -0.1093  0.5331 -0.3305
17282TIP3    H173261   5.217   6.327  12.483  0.1668  1.4950 -0.1506
17282TIP3    H273262   5.190   6.271  12.621  0.6340  1.0895 -0.2201
17283TIP3   OH273263   3.131   1.102   4.907  0.0319 -0.4360  0.4358
17283TIP3    H173264   3.060   1.039   4.905  0.1681 -0.5935 -1.3000
17283TIP3    H273265   3.204   1.058   4.863  0.1560  0.8447 -0.7338
17284TIP3   OH273266   2.148   5.940  12.938  0.0665  0.2269  0.7159
17284TIP3    H173267   2.230   5.942  12.987  0.4482  0.7503  0.0574
17284TIP3    H273268   2.106   6.023  12.958  1.1965  1.4001 -1.4637
17285TIP3   OH273269   4.220   3.546   2.288 -0.4479  0.2068 -0.0907
17285TIP3    H173270   4.210   3.458   2.250 -1.4335 -0.1867  1.0277
17285TIP3    H273271   4.146   3.596   2.254 -1.1961 -0.0773  1.0560
17286TIP3   OH273272   0.461   0.720   3.562 -0.1448  0.3453 -0.7843
17286TIP3    H173273   0.531   0.667   3.600 -0.7251 -0.6669 -1.0904
17286TIP3    H273274   0.439   0.783   3.631  2.7608  2.4198 -1.5374
17287TIP3   OH273275   1.219   2.179  12.196 -0.0201 -0.1540  0.2978
17287TIP3    H173276   1.238   2.085  12.190 -1.0626 -0.3111 -1.1934
17287TIP3    H273277   1.265   2.218  12.121  0.0611  0.4595  0.6613
17288TIP3   OH273278   0.223   3.466   4.375 -0.2077  0.1476  0.4253
17288TIP3    H173279   0.280   3.542   4.368  0.9846 -0.7628 -0.1741
17288TIP3    H273280   0.227   3.441   4.468 -0.8546  0.9797  0.6863
17289TIP3   OH273281   5.568   4.444   0.579  0.0369 -0.0717 -0.0113
17289TIP3    H173282   5.557   4.463   0.485  0.0650 -0.4376 -0.0904
17289TIP3    H273283   5.653   4.482   0.601  0.4936 -0.8740 -0.3735
17290TIP3   OH273284   3.761   0.431  13.157 -0.5262  0.1960 -0.1808
17290TIP3    H173285   3.749   0.451  13.064 -0.2360 -1.6953 -0.6546
17290TIP3    H273286   3.756   0.336  13.163  1.2369  0.1344  1.4815
17291TIP3   OH273287   0.898   1.174   4.038 -0.2946 -0.2100  0.7216
17291TIP3    H173288   0.808   1.188   4.067 -1.2603  2.0432 -2.7425
17291TIP3    H273289   0.894   1.091   3.989 -0.4448 -0.1960  0.7088
17292TIP3   OH273290   3.082   3.401  12.398  0.1150 -0.5490 -0.6855
17292TIP3    H173291   3.141   3.476  12.390 -0.6330  0.4525  2.1930
17292TIP3    H273292   3.007   3.423  12.342  0.3274  0.3864 -0.6189
17293TIP3   OH273293   1.992   3.553  14.833 -0.4744 -0.2311  0.1746
17293TIP3    H173294   1.992   3.462  14.861  3.3211 -0.2774  0.5063
17293TIP3    H273295   1.943   3.599  14.900  0.4076 -1.6338  1.8601
17294TIP3   OH273296   0.953   0.173  14.775 -0.1610 -0.4720  0.1139
17294TIP3    H173297   0.969   0.267  14.783  2.5232 -0.7241 -1.3570
17294TIP3    H273298   0.921   0.147  14.861 -0.5935  1.6943  0.6756
17295TIP3   OH273299   2.707   0.851  15.779  0.8115 -0.1079 -0.6515
17295TIP3    H173300   2.747   0.938  15.779 -0.5307  0.5474  0.4613
17295TIP3    H273301   2.643   0.854  15.850  0.2286 -1.7799 -1.0596
17296TIP3   OH273302   0.729   4.769   3.800  0.2843  0.1497 -0.7328
17296TIP3    H173303   0.645   4.805   3.770 -0.2619 -1.2797 -0.9780
17296TIP3    H273304   0.734   4.683   3.760  1.1427 -0.4169  0.5369
17297TIP3   OH273305   3.089   5.471   0.979  0.1327  0.1973 -0.4125
17297TIP3    H173306   3.034   5.397   1.005 -0.5732  0.6519 -0.5930
17297TIP3    H273307   3.056   5.498   0.894  0.9160  0.2126 -0.7190
17298TIP3   OH273308   4.033   4.692   4.091 -0.4469 -0.5802  0.2377
17298TIP3    H173309   3.953   4.734   4.124 -1.1745  0.2066 -2.2914
17298TIP3    H273310   4.014   4.599   4.093 -1.6233 -0.3831 -0.7169
17299TIP3   OH273311   2.863   1.748   0.404  0.2947 -0.2618 -0.6131
17299TIP3    H173312   2.820   1.736   0.320  1.8854  0.2183 -1.5467
17299TIP3    H273313   2.792   1.745   0.468 -0.7908 -2.0334 -1.8256
17300TIP3   OH273314   6.291   1.045   2.155 -0.0727  0.8211  0.5208
17300TIP3    H173315   6.332   1.104   2.218 -0.9216  0.8110  1.1055
17300TIP3    H273316   6.307   0.958   2.189  1.8342  0.6320 -0.7385
17301TIP3   OH273317   2.551   1.158  10.939  0.1279  0.3123 -0.0699
17301TIP3    H173318   2.641   1.186  10.922 -0.7031  2.8900 -0.7684
17301TIP3    H273319   2.502   1.187  10.862 -1.7006  1.2790  1.3672
17302TIP3   OH273320   4.442   3.876  16.444  0.1911 -0.2299 -0.0073
17302TIP3    H173321   4.522   3.839  16.480  0.5969 -1.7665 -2.2462
17302TIP3    H273322   4.416   3.814  16.376 -2.4694  0.6438  0.1090
17303TIP3   OH273323   3.012   4.195   5.502  0.8116 -0.8900  0.1057
17303TIP3    H173324   2.994   4.141   5.425 -2.0280  0.5168 -0.3271
17303TIP3    H273325   2.945   4.170   5.565  2.5731 -1.4110  1.8893
17304TIP3   OH273326   1.276   3.437  16.739 -0.0317  0.2638 -0.2308
17304TIP3    H173327   1.351   3.383  16.715  0.3343  1.1687 -1.1868
17304TIP3    H273328   1.203   3.376  16.745  0.6592 -0.5440  0.1579
17305TIP3   OH273329   2.214   5.316   1.686  0.5449 -0.4694 -0.0105
17305TIP3    H173330   2.265   5.241   1.715  1.8957 -0.0623 -1.1885
17305TIP3    H273331   2.211   5.307   1.591  3.0428  2.2826 -0.4910
17306TIP3   OH273332   1.245   3.874   5.506  0.3840  0.3350  0.1220
17306TIP3    H173333   1.160   3.864   5.464  0.4006 -2.0679  0.4926
17306TIP3    H273334   1.309   3.870   5.435  0.2245  2.4573 -0.1900
17307TIP3   OH273335   1.520   0.365   2.654  0.3121  0.1062 -0.3980
17307TIP3    H173336   1.488   0.294   2.599  0.7196  0.0230 -0.5275
17307TIP3    H273337   1.575   0.418   2.596  0.5172  0.1751 -0.1434
17308TIP3   OH273338   4.361   4.422   5.466 -1.1729  0.0466  0.2935
17308TIP3    H173339   4.367   4.378   5.381  1.8054 -0.7486  0.7959
17308TIP3    H273340   4.443   4.400   5.510 -2.1929  1.2461  3.0100
17309TIP3   OH273341   5.474   5.676   5.039 -0.3639 -0.4334 -0.2113
17309TIP3    H173342   5.404   5.619   5.071  0.7345 -1.7200 -0.0254
17309TIP3    H273343   5.550   5.619   5.031  0.1002  0.4102 -2.6419
17310TIP3   OH273344   0.224   4.489   5.381 -0.0972 -0.2344 -0.3231
17310TIP3    H173345   0.280   4.502   5.457  1.4761 -0.3493 -1.4010
17310TIP3    H273346   0.160   4.560   5.385 -0.4910 -0.6602  1.4674
17311TIP3   OH273347   1.389   5.083   1.385  0.1889  0.3798  0.2637
17311TIP3    H173348   1.329   5.127   1.445  0.1376  0.3830  0.2092
17311TIP3    H273349   1.431   5.016   1.439 -2.3689 -1.9912 -0.4690
17312TIP3   OH273350   0.415   5.106   2.018 -0.0144  0.1620  0.7826
17312TIP3    H173351   0.389   5.178   2.076 -1.2434  0.9376 -0.6374
17312TIP3    H273352   0.412   5.145   1.930  0.7653 -1.2427  0.1130
17313TIP3   OH273353   2.142   0.721   3.982 -0.3503  0.1180  0.0705
17313TIP3    H173354   2.133   0.626   3.975  0.9399 -0.0973  0.9487
17313TIP3    H273355   2.195   0.745   3.906 -0.0540  0.0377  0.2530
17314TIP3   OH273356   6.073   5.997   3.329  0.4132  0.2150 -0.2745
17314TIP3    H173357   6.122   6.053   3.389 -0.1519 -0.9795  1.3565
17314TIP3    H273358   6.114   5.911   3.337 -1.6568 -0.7396  0.8763
17315TIP3   OH273359   6.205   6.564   0.040  0.1682  0.1932  0.0239
17315TIP3    H173360   6.166   6.563   0.127 -2.4656  1.2576 -1.0423
17315TIP3    H273361   6.248   6.479   0.031 -1.9244 -1.0658  1.3281
17316TIP3   OH273362   4.416   6.643   5.295  0.2582 -0.1205 -0.8229
17316TIP3    H173363   4.387   6.689   5.216  0.2530 -1.5125 -1.6534
17316TIP3    H273364   4.461   6.711   5.346  0.6353  0.7124 -2.2001
17317TIP3   OH273365   6.604   2.895  11.087 -0.0587  0.2624  0.0574
17317TIP3    H173366   6.584   2.894  10.994 -1.1280 -0.2981  0.2789
17317TIP3    H273367   6.699   2.888  11.092 -0.1390 -3.1594 -0.9556
17318TIP3   OH273368   3.412   2.455   0.141  0.1247  0.2021  0.0374
17318TIP3    H173369   3.343   2.388   0.144 -0.3259  0.5720 -1.4308
17318TIP3    H273370   3.494   2.405   0.137 -0.1047 -0.2433  0.6777
17319TIP3   OH273371   3.629   5.914   3.893  0.1719  0.1406 -0.0123
17319TIP3    H173372   3.554   5.901   3.835 -0.7283  0.7675  0.9729
17319TIP3    H273373   3.680   5.834   3.884 -0.6120 -0.3032 -0.6942
17320TIP3   OH273374   0.686   4.616  16.373 -0.1046  0.3952  0.7306
17320TIP3    H173375   0.728   4.530  16.369 -1.7801 -0.4431 -0.0147
17320TIP3    H273376   0.699   4.653  16.285 -0.3292  0.4260  0.7099
17321TIP3   OH273377   5.424   6.150  12.800  0.2954 -0.3387  0.0527
17321TIP3    H173378   5.491   6.083  12.805 -0.3315 -0.9518  0.3528
17321TIP3    H273379   5.341   6.102  12.792 -0.1000  0.3969 -0.5572
17322TIP3   OH273380   5.705   4.202  16.596 -0.3388 -0.0085  0.0376
17322TIP3    H173381   5.627   4.239  16.638  0.4383  0.7074  0.9048
17322TIP3    H273382   5.675   4.175  16.510 -1.6942 -0.3300  0.5754
17323TIP3   OH273383   6.124   5.360   2.409  0.1183  0.0782 -0.0868
17323TIP3    H173384   6.129   5.450   2.375 -0.1870 -0.1779 -0.8344
17323TIP3    H273385   6.168   5.307   2.342  0.1496 -0.3520  0.2689
17324TIP3   OH273386   4.107   6.580  11.138 -0.3265  0.1240  0.3736
17324TIP3    H173387   4.071   6.524  11.069 -0.9021  0.2920  0.5303
17324TIP3    H273388   4.081   6.537  11.219  0.2082  0.0151  0.4855
17325TIP3   OH273389   1.731   2.332  12.088  0.1047 -0.4845  0.3149
17325TIP3    H173390   1.638   2.308  12.094 -0.1696  0.3527 -0.4297
17325TIP3    H273391   1.731   2.425  12.066  1.0672 -1.0210 -2.2611
17326TIP3   OH273392   6.610   6.344  14.968  0.0443 -0.1109  0.0592
17326TIP3    H173393   6.617   6.328  14.873  0.2985  1.3403 -0.1848
17326TIP3    H273394   6.529   6.394  14.978  1.8534  3.0376  0.1011
17327TIP3   OH273395   5.606   4.738  14.525  0.5360 -0.3874  1.0935
17327TIP3    H173396   5.524   4.713  14.568  1.7843 -3.5286  1.8994
17327TIP3    H273397   5.595   4.707  14.435  1.1067 -1.5277  1.4071
17328TIP3   OH273398   2.493   1.933   4.538  0.1266  0.1158  0.5456
17328TIP3    H173399   2.398   1.942   4.531  0.2712  1.2809 -0.2843
17328TIP3    H273400   2.519   2.004   4.597  0.5245  0.1409  0.3451
17329TIP3   OH273401   4.565   4.396  16.013  0.0537  0.7889 -0.4515
17329TIP3    H173402   4.592   4.323  16.068 -0.6778 -0.0031 -1.1193
17329TIP3    H273403   4.648   4.433  15.981  0.4409 -1.1979 -1.9534
17330TIP3   OH273404   6.742   3.179   5.575  0.3429  0.3233  0.4394
17330TIP3    H173405   6.678   3.234   5.621 -0.7353 -0.0958 -0.5279
17330TIP3    H273406   6.804   3.241   5.537 -0.4985  0.8480 -0.0965
17331TIP3   OH273407   6.303   4.146  13.719 -0.1185 -0.3332  0.0651
17331TIP3    H173408   6.348   4.116  13.798  0.3312 -0.3747 -0.2008
17331TIP3    H273409   6.291   4.067  13.666  2.0582  0.0594 -1.1312
17332TIP3   OH273410   1.706   0.705  11.745  0.3868 -0.1901 -0.1859
17332TIP3    H173411   1.615   0.691  11.716  0.8951 -1.3639 -1.3221
17332TIP3    H273412   1.757   0.645  11.692  1.9252  0.8932  0.0061
17333TIP3   OH273413   3.666   0.761  12.162  0.1551  0.6113  0.1482
17333TIP3    H173414   3.647   0.855  12.167 -0.0004  0.5320  1.3788
17333TIP3    H273415   3.634   0.734  12.076  1.4779  1.9605 -0.8008
17334TIP3   OH273416   1.864   2.780   1.071  0.4111 -0.9084  0.3207
17334TIP3    H173417   1.955   2.804   1.085  0.4234 -0.9238  0.2653
17334TIP3    H273418   1.846   2.713   1.138  0.4511 -0.9329  0.3066
17335TIP3   OH273419   2.326   0.032  14.331  0.2211 -0.1565 -0.4403
17335TIP3    H173420   2.349   0.125  14.324 -0.5032  0.0076 -0.6983
17335TIP3    H273421   2.302   0.020  14.423  0.6943 -0.1813 -0.3174
17336TIP3   OH273422   1.551   2.132   2.178  0.1537  0.2098  0.4362
17336TIP3    H173423   1.502   2.179   2.110  0.5749 -0.7107 -0.5483
17336TIP3    H273424   1.506   2.153   2.259 -0.6851  0.9440 -0.1894
17337TIP3   OH273425   1.445   5.728   3.417 -0.0331 -0.3750  0.0425
17337TIP3    H173426   1.433   5.710   3.510 -0.1128  0.6698  0.2390
17337TIP3    H273427   1.426   5.821   3.407  3.1668  0.3294 -0.4690
17338TIP3   OH273428   4.156   2.991  14.247 -0.1381 -0.0280 -0.0272
17338TIP3    H173429   4.110   3.028  14.322 -1.9786  1.1879 -1.6533
17338TIP3    H273430   4.238   3.041  14.242  0.5023 -0.8050  1.6821
17339TIP3   OH273431   5.928   0.151   1.240  0.4428  0.4958  0.3852
17339TIP3    H173432   5.990   0.214   1.277  0.5656  1.4965 -1.4061
17339TIP3    H273433   5.849   0.162   1.293 -0.1288  3.4377 -0.8576
17340TIP3   OH273434   2.143   5.543   4.204 -0.0789  0.0584  0.8776
17340TIP3    H173435   2.216   5.497   4.246 -0.2286 -0.0578  1.0139
17340TIP3    H273436   2.156   5.635   4.226  0.9230  0.2631 -0.4322
17341TIP3   OH273437   6.096   5.859  15.140 -0.1738  0.1042 -0.0702
17341TIP3    H173438   6.005   5.849  15.110 -1.0709  1.0272  2.1384
17341TIP3    H273439   6.100   5.947  15.177  2.7640  1.7144 -3.4917
17342TIP3   OH273440   6.157   3.819  14.992  0.4092  0.3490  0.6944
17342TIP3    H173441   6.115   3.906  14.993  0.6360  0.5156 -1.1446
17342TIP3    H273442   6.111   3.772  14.923  2.1935 -0.0097 -0.2913
17343TIP3   OH273443   2.225   1.902  14.635 -0.0863  0.0367 -0.6067
17343TIP3    H173444   2.188   1.831  14.687 -0.6983 -0.3475 -1.5451
17343TIP3    H273445   2.314   1.874  14.616  0.0217  0.0140 -0.0993
17344TIP3   OH273446   2.205   1.654  11.702 -0.0894  0.1659  0.1603
17344TIP3    H173447   2.263   1.605  11.761  0.9127 -1.1286 -1.8090
17344TIP3    H273448   2.175   1.589  11.639  0.3760  1.8440 -1.8799
17345TIP3   OH273449   3.957   1.189  14.077 -0.0946  0.0369 -0.0450
17345TIP3    H173450   3.952   1.181  13.982  2.0695 -4.2277 -0.0491
17345TIP3    H273451   3.879   1.144  14.110 -0.0283  0.0862  0.1868
17346TIP3   OH273452   5.026   5.421   5.152  0.2475 -0.4253 -0.1523
17346TIP3    H173453   5.018   5.397   5.245  0.3552 -1.0390 -0.2988
17346TIP3    H273454   4.979   5.504   5.145  1.0099  0.0939  0.6318
17347TIP3   OH273455   5.792   5.300  14.893 -0.4552  0.2176  0.5132
17347TIP3    H173456   5.754   5.345  14.819 -2.2495  0.7419  1.6875
17347TIP3    H273457   5.791   5.207  14.869 -0.3009  0.4495 -0.3942
17348TIP3   OH273458   6.705   3.186  11.545 -0.6231  0.2602  0.2923
17348TIP3    H173459   6.712   3.198  11.450  0.9947 -1.7263  0.0961
17348TIP3    H273460   6.645   3.113  11.555 -0.0078 -0.1904  0.7366
17349TIP3   OH273461   5.751   6.054   0.318 -0.3103 -0.1099 -0.1227
17349TIP3    H173462   5.845   6.052   0.301 -0.0951  0.1508  0.9253
17349TIP3    H273463   5.713   5.998   0.251  0.8532 -2.3737  0.9704
17350TIP3   OH273464   6.193   4.597  14.771 -0.3252  0.0881 -0.0838
17350TIP3    H173465   6.198   4.561  14.859  1.7568 -0.6082 -0.4254
17350TIP3    H273466   6.143   4.677  14.780 -1.2268 -0.6195  1.4979
17351TIP3   OH273467   1.695   3.813   2.078 -0.0809  0.0860 -0.1380
17351TIP3    H173468   1.691   3.843   2.168 -0.4486  0.1096 -0.1603
17351TIP3    H273469   1.720   3.890   2.028  0.1837  0.0582 -0.0512
17352TIP3   OH273470   6.344   3.314  11.520 -0.0782 -0.1537  0.4208
17352TIP3    H173471   6.406   3.351  11.582 -0.1838  0.5155  0.1265
17352TIP3    H273472   6.365   3.355  11.436 -2.7603  2.3796  0.8300
17353TIP3   OH273473   5.451   0.245  12.931  0.0838  0.0946 -0.5725
17353TIP3    H173474   5.446   0.275  13.022 -1.7004  0.1339 -0.6579
17353TIP3    H273475   5.471   0.152  12.938 -0.7205 -0.0558 -0.1053
17354TIP3   OH273476   0.271   2.827   5.205  0.3945 -0.5252  0.2265
17354TIP3    H173477   0.306   2.738   5.201  0.1683 -0.6073  0.0706
17354TIP3    H273478   0.284   2.854   5.296  1.0385 -0.4831  0.1277
17355TIP3   OH273479   1.463   5.393  14.891  0.0886 -0.7276 -0.4773
17355TIP3    H173480   1.425   5.469  14.847 -1.1661 -1.8142 -1.3568
17355TIP3    H273481   1.523   5.430  14.956 -2.5248  1.1189  1.0789
17356TIP3   OH273482   2.398   0.823   2.388  0.4464 -0.1198  0.2888
17356TIP3    H173483   2.439   0.769   2.320  0.4444 -0.1036  0.2749
17356TIP3    H273484   2.472   0.858   2.437  0.4382 -0.5476  0.6157
17357TIP3   OH273485   6.214   1.214  13.929  0.0511 -0.4390 -0.4061
17357TIP3    H173486   6.218   1.303  13.965 -1.3902 -0.3234 -0.4803
17357TIP3    H273487   6.136   1.176  13.969  0.7412 -1.7319 -0.2628
17358TIP3   OH273488   5.662   5.695  16.416  0.1901 -0.3238  0.4754
17358TIP3    H173489   5.587   5.663  16.466 -0.4257  1.7692  0.9864
17358TIP3    H273490   5.717   5.740  16.480  2.1455 -2.1259  0.1849
17359TIP3   OH273491   5.541   0.741   3.880 -0.6840 -0.7153  0.1576
17359TIP3    H173492   5.596   0.809   3.919  0.4028 -1.6729  0.3342
17359TIP3    H273493   5.458   0.748   3.928 -0.5661  0.4184  0.2290
17360TIP3   OH273494   1.331   4.877  11.386 -0.4634  0.4631  0.4274
17360TIP3    H173495   1.316   4.795  11.338 -0.2912  0.9769 -0.5431
17360TIP3    H273496   1.418   4.906  11.356  0.1884  0.1911  1.9781
17361TIP3   OH273497   2.890   4.088  14.904  0.1266 -0.1699 -0.0344
17361TIP3    H173498   2.889   4.054  14.993 -1.9446  2.1941  0.9670
17361TIP3    H273499   2.926   4.176  14.913  0.6914 -0.1932 -1.7163
17362TIP3   OH273500   0.361   2.616   1.357 -0.4184 -0.8602  0.0842
17362TIP3    H173501   0.396   2.635   1.270  1.8811 -0.1611  1.0971
17362TIP3    H273502   0.406   2.536   1.384  1.0981  0.4589  1.7137
17363TIP3   OH273503   3.780   0.993  14.249  0.7540 -0.3625 -0.2729
17363TIP3    H173504   3.808   0.904  14.268  0.8804 -0.2469  0.0850
17363TIP3    H273505   3.726   0.985  14.170 -0.2497 -0.9110  0.4594
17364TIP3   OH273506   1.848   5.777   0.378  0.3125  0.6121 -0.4178
17364TIP3    H173507   1.923   5.836   0.389 -1.1780  3.2642 -3.0511
17364TIP3    H273508   1.775   5.823   0.418 -0.2638 -1.2853  0.8350
17365TIP3   OH273509   4.858   0.162   3.177 -0.0622  0.1153 -0.1679
17365TIP3    H173510   4.915   0.228   3.137 -0.7367  1.1628  0.5533
17365TIP3    H273511   4.863   0.180   3.271 -0.2230 -0.9063  0.0527
17366TIP3   OH273512   6.550   4.893   6.511 -0.3395 -0.5440 -0.5011
17366TIP3    H173513   6.614   4.903   6.440 -0.0152 -1.8926 -0.4286
17366TIP3    H273514   6.599   4.852   6.582 -1.3900 -2.2391 -0.6796
17367TIP3   OH273515   0.352   1.680  13.881  0.2631 -0.2601  0.5239
17367TIP3    H173516   0.406   1.698  13.804 -2.8662  2.3935 -1.2992
17367TIP3    H273517   0.270   1.727  13.865 -1.7990 -2.1690  4.0959
17368TIP3   OH273518   4.879   3.867   2.767 -0.0528  0.2086  0.2017
17368TIP3    H173519   4.954   3.825   2.725 -0.3214 -0.5697  0.4778
17368TIP3    H273520   4.880   3.834   2.857 -1.5463 -0.9665 -0.1628
17369TIP3   OH273521   4.452   5.407   3.860 -0.1962 -0.5060  0.0014
17369TIP3    H173522   4.415   5.475   3.916 -0.0596 -0.1541 -0.3354
17369TIP3    H273523   4.516   5.362   3.916 -0.6866 -0.7283  0.3989
17370TIP3   OH273524   2.165   4.272  15.455  0.3118  0.6063  0.2815
17370TIP3    H173525   2.203   4.301  15.538 -0.1162 -3.1177  1.9797
17370TIP3    H273526   2.071   4.287  15.466  0.3227  0.7729  0.1520
17371TIP3   OH273527   4.856   4.421  11.217 -0.0058  0.7588  0.0849
17371TIP3    H173528   4.847   4.442  11.310 -1.4031  1.8715 -0.2577
17371TIP3    H273529   4.766   4.407  11.187  0.5064 -0.6938 -0.8772
17372TIP3   OH273530   4.686   0.584  13.100  0.2719  0.0345 -0.1250
17372TIP3    H173531   4.680   0.580  13.195  0.0704  0.4803 -0.1146
17372TIP3    H273532   4.712   0.496  13.073  0.9336  0.0702  0.3820
17373TIP3   OH273533   1.246   6.272   4.353  0.6142 -0.3676  0.3354
17373TIP3    H173534   1.253   6.189   4.306 -1.4665 -1.5141  1.8721
17373TIP3    H273535   1.278   6.337   4.291  0.2858 -2.0619 -1.7431
17374TIP3   OH273536   0.676   4.025   0.702  0.5688 -0.0939  0.1124
17374TIP3    H173537   0.743   3.982   0.650 -0.2255 -0.3097 -0.7416
17374TIP3    H273538   0.600   3.968   0.697 -0.0232  0.6654  0.1995
17375TIP3   OH273539   1.857   3.042   6.141 -0.0910  0.3861 -0.2796
17375TIP3    H173540   1.897   2.955   6.129 -1.7926 -0.5253  0.2623
17375TIP3    H273541   1.831   3.068   6.052  1.1402  0.7433 -0.5584
17376TIP3   OH273542   5.701   2.484  15.452 -0.0093  0.1220 -0.1242
17376TIP3    H173543   5.701   2.413  15.388 -1.6590  0.3581 -0.4172
17376TIP3    H273544   5.764   2.548  15.418  1.4907 -1.1451  0.1364
17377TIP3   OH273545   4.623   2.850  13.534 -0.5173 -0.0208  0.6947
17377TIP3    H173546   4.547   2.836  13.591 -0.8071 -1.7794 -0.0565
17377TIP3    H273547   4.677   2.914  13.581 -1.4591 -0.3030  2.2326
17378TIP3   OH273548   2.169   3.703  14.235  0.2176 -0.7439 -0.1703
17378TIP3    H173549   2.259   3.690  14.266  0.2610 -1.0287 -0.4080
17378TIP3    H273550   2.162   3.796  14.218  0.2841 -0.6244  0.4203
17379TIP3   OH273551   2.452   0.221  12.341  0.0799  0.2848 -0.0122
17379TIP3    H173552   2.484   0.309  12.364 -0.5215  0.0405  1.9057
17379TIP3    H273553   2.389   0.237  12.270 -0.1577  1.4278  0.4277
17380TIP3   OH273554   1.698   6.142   2.864  0.2234  0.0512 -0.4276
17380TIP3    H173555   1.733   6.055   2.883  0.6273  0.0859 -0.9829
17380TIP3    H273556   1.684   6.181   2.950  0.1428 -0.5193 -0.1755
17381TIP3   OH273557   1.685   0.686   5.794  0.3058 -0.3211 -0.5761
17381TIP3    H173558   1.617   0.627   5.761 -0.6451 -0.7084  1.8497
17381TIP3    H273559   1.637   0.747   5.851  1.9104 -0.2790  0.7856
17382TIP3   OH273560   6.737   3.202   4.131 -0.0579  0.1059 -0.4212
17382TIP3    H173561   6.771   3.292   4.141 -0.5749  0.3245 -0.6086
17382TIP3    H273562   6.647   3.206   4.164  0.3037 -0.6336  0.7124
17383TIP3   OH273563   0.366   6.094  12.284  0.0103 -0.2829  0.2019
17383TIP3    H173564   0.362   6.024  12.349 -0.6389  0.6969  1.2640
17383TIP3    H273565   0.298   6.072  12.220 -0.3171 -0.5348  0.6320
17384TIP3   OH273566   3.400   6.421   5.981 -0.1192 -0.2648 -0.1651
17384TIP3    H173567   3.479   6.476   5.977 -1.1817  1.4508  1.0587
17384TIP3    H273568   3.354   6.451   6.059 -1.5427 -1.8808 -0.3300
17385TIP3   OH273569   3.382   3.163  14.606 -0.3592  0.3152  0.0527
17385TIP3    H173570   3.305   3.140  14.658  0.5243 -0.9420  0.8684
17385TIP3    H273571   3.359   3.139  14.517 -0.3421 -1.6348  0.5347
17386TIP3   OH273572   5.426   0.121   2.489 -0.4789 -0.1589 -0.1143
17386TIP3    H173573   5.342   0.076   2.483  0.1986 -1.5648  0.4693
17386TIP3    H273574   5.471   0.079   2.562  0.5002  0.9826 -0.0155
17387TIP3   OH273575   5.497   6.728  12.930  0.6023  0.5380 -0.1343
17387TIP3    H173576   5.416   6.750  12.884  1.1050  1.1730 -0.7420
17387TIP3    H273577   5.559   6.707  12.860  1.0190  0.2620  0.3166
17388TIP3   OH273578   3.215   1.204   1.562 -0.0132  0.3341  0.2530
17388TIP3    H173579   3.263   1.278   1.526 -0.2785  0.4559  0.1443
17388TIP3    H273580   3.282   1.140   1.585  0.1071 -0.3570 -1.7995
17389TIP3   OH273581   5.966   2.971   4.260  0.2472 -0.5864  0.3569
17389TIP3    H173582   5.978   2.898   4.200 -1.8786 -1.2929  0.7402
17389TIP3    H273583   5.948   3.046   4.204  0.1110 -0.8540  0.0410
17390TIP3   OH273584   3.456   2.207   3.736 -0.7522  0.4331 -0.1514
17390TIP3    H173585   3.478   2.123   3.776 -1.1776  0.4089  0.0328
17390TIP3    H273586   3.539   2.238   3.698  0.0071  1.0719  1.8799
17391TIP3   OH273587   4.467   1.371  14.221 -0.0121  0.2249  0.4066
17391TIP3    H173588   4.447   1.387  14.313  0.2855  2.5405  0.1133
17391TIP3    H273589   4.431   1.284  14.204 -0.8403  0.1079  2.4716
17392TIP3   OH273590   5.529   4.883  15.971 -0.6187 -0.5163  0.5271
17392TIP3    H173591   5.571   4.879  15.885 -0.6419 -0.7618  0.5262
17392TIP3    H273592   5.533   4.975  15.995  0.1151 -0.5667  0.6209
17393TIP3   OH273593   5.611   0.046   0.141  0.4911 -0.6632  0.0595
17393TIP3    H173594   5.687   0.022   0.087  0.6452 -0.4422  0.1790
17393TIP3    H273595   5.585  -0.036   0.183 -1.6299 -1.6206 -2.8210
17394TIP3   OH273596   3.941   1.369   1.585  0.3969  0.0847  0.0608
17394TIP3    H173597   3.986   1.362   1.670  1.2804  0.8030 -0.3342
17394TIP3    H273598   3.882   1.444   1.596 -0.3592 -0.5514  0.4165
17395TIP3   OH273599   2.723   1.668  11.990  0.1354 -0.1312 -0.5809
17395TIP3    H173600   2.748   1.670  11.898 -1.4720 -1.5557 -1.1070
17395TIP3    H273601   2.705   1.576  12.008 -0.0889  0.1945  1.0182
17396TIP3   OH273602   2.163   2.584   0.201 -0.1758  0.1387  0.5207
17396TIP3    H173603   2.173   2.554   0.291 -0.5099 -0.9333  0.2088
17396TIP3    H273604   2.097   2.526   0.163 -1.0214  1.4125 -0.0428
17397TIP3   OH273605   5.252   4.243   1.918 -0.0340 -0.3392  0.1184
17397TIP3    H173606   5.220   4.154   1.903 -0.5218 -0.1883  0.2686
17397TIP3    H273607   5.228   4.262   2.009  0.0260 -0.0335  0.0698
17398TIP3   OH273608   5.699   0.676   5.305  0.1692  0.2780  0.6523
17398TIP3    H173609   5.759   0.742   5.271  0.3194  0.2650  0.8905
17398TIP3    H273610   5.630   0.670   5.238 -0.1413  1.0810  0.8844
17399TIP3   OH273611   4.297   4.555   4.667 -0.0333  0.7282  0.2818
17399TIP3    H173612   4.295   4.576   4.573 -0.0869 -0.7552 -0.0711
17399TIP3    H273613   4.257   4.632   4.709 -2.5051  0.3493 -1.1413
17400TIP3   OH273614   6.477   5.559   5.085 -0.0137  0.4025  0.0819
17400TIP3    H173615   6.534   5.595   5.153 -0.2490  0.4744  0.2443
17400TIP3    H273616   6.398   5.533   5.132  0.6770 -1.6177  0.1956
17401TIP3   OH273617   1.495   3.258  16.682  0.3104  0.0902 -0.1073
17401TIP3    H173618   1.485   3.170  16.645 -1.2190  0.5633 -0.9133
17401TIP3    H273619   1.587   3.280  16.667 -0.2612  0.4025 -4.0906
17402TIP3   OH273620   4.904   6.327  15.573 -0.3859  0.5018  0.4641
17402TIP3    H173621   4.921   6.259  15.508 -0.5259  0.7302  0.1892
17402TIP3    H273622   4.842   6.386  15.530  1.4213  2.0403 -0.1344
17403TIP3   OH273623   5.119   2.499  12.562 -0.3460  0.2692 -0.0247
17403TIP3    H173624   5.175   2.570  12.592 -0.4802 -0.1109  1.1621
17403TIP3    H273625   5.050   2.543  12.512  0.0595  0.8858 -0.0517
17404TIP3   OH273626   4.567   5.995  15.598 -0.2975  0.0193 -0.7566
17404TIP3    H173627   4.480   5.958  15.611  0.4076 -1.1090  1.0479
17404TIP3    H273628   4.554   6.090  15.599 -1.4886 -0.1393 -0.5486
17405TIP3   OH273629   0.760   0.998   0.824 -0.1973 -0.7032 -0.2260
17405TIP3    H173630   0.701   0.937   0.780  0.6763 -0.3749 -1.9340
17405TIP3    H273631   0.847   0.972   0.795  0.2970  0.4254  0.1931
17406TIP3   OH273632   4.623   5.979   3.141  0.2398 -0.3873  0.4255
17406TIP3    H173633   4.623   5.935   3.227  0.1468 -0.8620  0.1889
17406TIP3    H273634   4.541   5.952   3.101  0.3055 -0.2018  0.1669
17407TIP3   OH273635   4.125   0.394  11.159 -0.5163 -0.1382  0.6617
17407TIP3    H173636   4.063   0.365  11.226 -0.6112 -0.5643  0.3898
17407TIP3    H273637   4.135   0.488  11.175 -0.3428 -0.2830  1.4276
17408TIP3   OH273638   6.232   5.648   4.146  0.6114 -0.1106  0.4066
17408TIP3    H173639   6.217   5.585   4.076 -0.5993 -0.5761  1.0531
17408TIP3    H273640   6.240   5.733   4.102  0.0916 -0.4270 -0.3081
17409TIP3   OH273641   4.017   2.277   1.770  0.2138  0.1559  0.0454
17409TIP3    H173642   3.990   2.368   1.770 -0.3989 -0.0008  1.1921
17409TIP3    H273643   3.943   2.230   1.810  0.8193 -0.7345  0.1568
17410TIP3   OH273644   3.046   2.372   5.696 -0.1893 -0.8379 -0.8238
17410TIP3    H173645   3.039   2.314   5.620 -1.4481 -3.9974  1.4960
17410TIP3    H273646   3.043   2.313   5.771  3.2858  1.8750  1.7510
17411TIP3   OH273647   1.004   5.877   5.432 -0.5258  0.1611  0.9843
17411TIP3    H173648   1.052   5.873   5.515  2.1699  0.6248 -0.4372
17411TIP3    H273649   1.018   5.967   5.401  0.0236 -0.4900 -0.7731
17412TIP3   OH273650   2.133   5.914   5.215 -0.0251  0.2469 -0.0125
17412TIP3    H173651   2.174   5.863   5.285  1.4653  0.2061 -0.8724
17412TIP3    H273652   2.058   5.861   5.188  1.0843 -1.1909 -0.4142
17413TIP3   OH273653   0.652   1.354  14.330  0.2363  0.3295 -0.2346
17413TIP3    H173654   0.676   1.319  14.416  0.3786 -2.4811 -1.2940
17413TIP3    H273655   0.700   1.300  14.268 -0.0045  2.1634 -2.1180
17414TIP3   OH273656   4.858   6.180   5.050 -0.7402  0.5672 -0.1726
17414TIP3    H173657   4.819   6.092   5.050  0.0261  0.2092  0.6152
17414TIP3    H273658   4.909   6.183   5.131  2.0822  0.4568 -1.8029
17415TIP3   OH273659   1.786   4.490   5.249  1.0165  0.8491  0.0766
17415TIP3    H173660   1.700   4.481   5.291  0.9392 -1.6858 -0.4592
17415TIP3    H273661   1.842   4.528   5.317  0.3951 -1.2064  1.8490
17416TIP3   OH273662   0.513   2.446  12.407  0.1135 -0.1058  0.6840
17416TIP3    H173663   0.595   2.413  12.372 -0.1240 -0.8162  0.7806
17416TIP3    H273664   0.471   2.489  12.332 -0.3751 -1.5829  0.0729
17417TIP3   OH273665   4.866   0.019  14.861  0.6918 -0.3145 -0.1456
17417TIP3    H173666   4.958  -0.008  14.861  0.8261 -0.2895  3.2692
17417TIP3    H273667   4.859   0.081  14.933 -1.9449  0.0047 -0.5685
17418TIP3   OH273668   5.678   5.421   5.541 -0.1438  0.1271 -0.0268
17418TIP3    H173669   5.695   5.506   5.499  1.4930 -0.0463  0.2241
17418TIP3    H273670   5.730   5.422   5.620 -1.1321 -0.6243  0.6623
17419TIP3   OH273671   5.724   0.339  12.414  0.5113  0.0618 -0.1660
17419TIP3    H173672   5.639   0.309  12.447 -1.0341  3.1703 -0.9687
17419TIP3    H273673   5.722   0.320  12.321  0.6978  0.1968 -0.1983
17420TIP3   OH273674   2.988   4.468   1.071 -0.1534  0.2088 -0.4194
17420TIP3    H173675   3.032   4.485   1.154 -1.0323 -0.7783  0.2596
17420TIP3    H273676   2.988   4.553   1.027  2.2083  0.3136 -0.3663
17421TIP3   OH273677   2.866   3.768   5.711  0.2644  0.6800  0.5780
17421TIP3    H173678   2.924   3.693   5.723  2.4354  2.5711  3.0630
17421TIP3    H273679   2.848   3.769   5.617  0.8551 -2.3945  0.3454
17422TIP3   OH273680   3.536   1.108  10.708 -0.0410  0.4730  0.4864
17422TIP3    H173681   3.474   1.065  10.768 -0.6574  0.9448  0.1997
17422TIP3    H273682   3.616   1.116  10.759  0.6914 -2.5161  0.0384
17423TIP3   OH273683   4.802   4.580  12.887 -0.0549  0.0500  0.0980
17423TIP3    H173684   4.802   4.485  12.882  0.8346  0.0509 -0.1089
17423TIP3    H273685   4.889   4.602  12.919 -0.4479  0.7722  0.7131
17424TIP3   OH273686   1.339   1.608   4.703 -0.1343  0.7667  0.9028
17424TIP3    H173687   1.361   1.569   4.787  0.1819 -1.1524 -0.0050
17424TIP3    H273688   1.412   1.668   4.684  1.0450 -0.5968  0.9276
17425TIP3   OH273689   3.780   6.669   3.228  0.7512  0.5283  0.1016
17425TIP3    H173690   3.822   6.704   3.307 -0.5024 -0.4497  1.2447
17425TIP3    H273691   3.691   6.647   3.255  1.0433 -2.3037 -0.8229
17426TIP3   OH273692   1.752   4.423   0.419 -0.7367 -0.1354 -0.1100
17426TIP3    H173693   1.668   4.467   0.434 -1.6204 -1.5006 -0.8176
17426TIP3    H273694   1.735   4.364   0.345  1.1023  0.1988 -0.8447
17427TIP3   OH273695   4.724   5.813   5.951  0.0837 -0.7622  0.4600
17427TIP3    H173696   4.692   5.739   5.899  1.4370 -1.8785  1.1290
17427TIP3    H273697   4.763   5.872   5.887  0.4416 -1.4298  0.0441
17428TIP3   OH273698   1.300   4.479   3.126  0.3571 -0.5695  0.2634
17428TIP3    H173699   1.218   4.519   3.098  0.1309 -1.5670 -0.5900
17428TIP3    H273700   1.278   4.430   3.204  0.6092  0.8175  1.2415
17429TIP3   OH273701   3.606   2.871   0.740 -0.4980  0.6696 -0.1084
17429TIP3    H173702   3.615   2.849   0.647  0.9914  1.9771 -0.3067
17429TIP3    H273703   3.586   2.787   0.782 -1.4839  0.0957 -1.6226
17430TIP3   OH273704   3.137   5.419  16.896  0.2305 -0.0903 -0.2943
17430TIP3    H173705   3.056   5.409  16.946  0.9280 -1.6182  0.6249
17430TIP3    H273706   3.207   5.403  16.961  1.2249 -0.1496 -1.3482
17431TIP3   OH273707   1.997   2.682  16.998 -0.8777  0.0562  0.0932
17431TIP3    H173708   1.947   2.677  17.079 -0.8114  1.3020  0.2188
17431TIP3    H273709   1.969   2.605  16.948 -1.1322 -0.5642  1.1596
17432TIP3   OH273710   4.062   4.718   1.013 -0.0340 -0.3169  0.2533
17432TIP3    H173711   4.010   4.740   0.935 -0.6873 -3.8294 -0.5108
17432TIP3    H273712   4.118   4.646   0.984  1.8156  0.1830  2.3492
17433TIP3   OH273713   2.035   0.452  11.943  0.0844  0.7423  0.0815
17433TIP3    H173714   1.974   0.384  11.914 -0.0652  0.4635  1.0037
17433TIP3    H273715   2.093   0.407  12.005 -1.1618  1.8265  2.1163
17434TIP3   OH273716   2.443   0.208  16.425  0.3054 -0.2459  0.2726
17434TIP3    H173717   2.537   0.196  16.439  0.2218 -0.9825  0.2399
17434TIP3    H273718   2.437   0.250  16.339  0.7182  2.4237  1.4346
17435TIP3   OH273719   6.333   0.888  16.840  0.7835  0.5828  0.1227
17435TIP3    H173720   6.249   0.849  16.865  0.7018  0.4981 -0.2778
17435TIP3    H273721   6.346   0.959  16.903  0.3713  0.6449  0.1424
17436TIP3   OH273722   3.804   6.245  11.642 -0.3561 -0.6022  0.1893
17436TIP3    H173723   3.765   6.228  11.727  1.0630 -0.6718  0.8459
17436TIP3    H273724   3.881   6.189  11.638  1.1588  1.3693  0.0226
17437TIP3   OH273725   0.637   3.247   1.126  0.1395 -0.1410  0.2557
17437TIP3    H173726   0.653   3.284   1.039 -0.4733 -0.2299  0.0979
17437TIP3    H273727   0.680   3.307   1.186 -0.8146  0.8201  0.0041
17438TIP3   OH273728   6.084   2.188  13.525  0.5430  0.0955  0.0155
17438TIP3    H173729   6.109   2.180  13.617  1.4096 -1.9068 -0.3390
17438TIP3    H273730   6.013   2.124  13.513  0.0648  0.7174 -0.6024
17439TIP3   OH273731   6.405   0.714   0.622  0.0592 -0.1528  0.1593
17439TIP3    H173732   6.312   0.729   0.610  0.0250 -0.3126  0.2275
17439TIP3    H273733   6.424   0.749   0.710  0.4464  1.6458 -0.6022
17440TIP3   OH273734   5.935   5.657   3.291  0.3830 -0.0679  0.0791
17440TIP3    H173735   5.872   5.585   3.291  0.1157  0.1446 -0.8635
17440TIP3    H273736   5.894   5.725   3.344 -0.0431 -0.0479 -0.2708
17441TIP3   OH273737   6.707   5.159   6.795  0.5342  0.4800 -0.7672
17441TIP3    H173738   6.700   5.236   6.738  1.2892  0.8051 -0.4337
17441TIP3    H273739   6.783   5.112   6.762  1.2094  0.8661  0.1956
17442TIP3   OH273740   0.806   4.974  16.761 -0.7135  0.7976 -0.1222
17442TIP3    H173741   0.802   4.951  16.668  0.8481  1.6891 -0.4482
17442TIP3    H273742   0.886   4.930  16.793 -0.8139  1.1292  0.6125
17443TIP3   OH273743   2.337   1.458  12.298 -0.6001  0.1929 -0.0892
17443TIP3    H173744   2.398   1.532  12.299  0.9287 -0.9778 -1.2641
17443TIP3    H273745   2.251   1.498  12.304  0.2345  1.9396  1.2887
17444TIP3   OH273746   0.246   4.369   0.624  0.3835 -0.0621 -0.4898
17444TIP3    H173747   0.155   4.386   0.600 -0.5396  0.5808  2.9311
17444TIP3    H273748   0.295   4.445   0.591 -1.1016  1.7449  1.2576
17445TIP3   OH273749   5.240   3.956   2.889 -0.5227 -0.0825 -0.5938
17445TIP3    H173750   5.246   3.926   2.979 -0.3975  1.0733 -0.2118
17445TIP3    H273751   5.187   4.036   2.893 -0.1376  0.2288 -1.4838
17446TIP3   OH273752   5.430   4.100  14.859  0.5652  0.1779  0.7187
17446TIP3    H173753   5.455   4.180  14.813 -0.3008  0.2836  0.3986
17446TIP3    H273754   5.390   4.045  14.792 -1.1327  0.5196  1.3917
17447TIP3   OH273755   0.651   1.602   1.780 -0.0904 -0.2106  0.1349
17447TIP3    H173756   0.597   1.672   1.745 -0.5518  1.6326  3.9671
17447TIP3    H273757   0.598   1.523   1.771 -1.4823  0.7528 -0.3117
17448TIP3   OH273758   6.653   4.415  17.240 -0.1457  0.6065  0.2276
17448TIP3    H173759   6.623   4.448  17.325  0.0787 -0.1432  0.6074
17448TIP3    H273760   6.643   4.490  17.181 -0.6469  1.0333  0.8301
17449TIP3   OH273761   3.404   4.440  15.175  0.2442 -0.0075 -0.5738
17449TIP3    H173762   3.423   4.500  15.103  1.0991  1.3273  0.7057
17449TIP3    H273763   3.347   4.491  15.233 -0.5612 -1.1149 -0.3667
17450TIP3   OH273764   5.133   6.634   4.433  0.2265 -0.5655 -0.0054
17450TIP3    H173765   5.220   6.660   4.404  1.2491 -1.2835  2.1579
17450TIP3    H273766   5.121   6.680   4.516  0.1728 -3.2981  1.6106
17451TIP3   OH273767   2.742   2.216   0.898 -1.1384  0.3425 -0.2405
17451TIP3    H173768   2.791   2.152   0.950 -0.2840  0.4464 -0.8950
17451TIP3    H273769   2.650   2.192   0.911 -0.8883 -0.2146  0.5559
17452TIP3   OH273770   2.920   6.738  11.510  0.1156  0.3234 -0.0347
17452TIP3    H173771   2.845   6.696  11.552 -0.2185  2.0475  1.2031
17452TIP3    H273772   2.910   6.719  11.417 -1.2992 -0.3375  0.2290
17453TIP3   OH273773   0.820   2.129  12.066 -0.6731  0.4118  0.6203
17453TIP3    H173774   0.734   2.129  12.108 -1.8872  4.0726 -1.4121
17453TIP3    H273775   0.868   2.200  12.111  0.0101  0.6622 -0.4730
17454TIP3   OH273776   5.766   6.590  14.204  0.4696  0.4885 -0.2142
17454TIP3    H173777   5.847   6.633  14.231  0.0868  0.7162  0.5967
17454TIP3    H273778   5.698   6.654  14.222  0.2551  0.9984 -2.5648
17455TIP3   OH273779   5.827   4.303   1.871  0.1459  0.2648  0.2421
17455TIP3    H173780   5.872   4.228   1.832 -0.9185  0.2245 -1.0186
17455TIP3    H273781   5.846   4.376   1.811 -1.5437  0.2038 -0.4362
17456TIP3   OH273782   1.140   4.172   0.790 -0.1697 -0.2157 -0.0541
17456TIP3    H173783   1.158   4.105   0.855  3.4466  0.5026 -0.1356
17456TIP3    H273784   1.149   4.127   0.706 -0.9201 -0.2683 -0.1181
17457TIP3   OH273785   4.593   0.411  14.940 -0.2289  0.0152  0.0996
17457TIP3    H173786   4.585   0.450  14.853 -2.6912 -2.3617 -0.8828
17457TIP3    H273787   4.529   0.458  14.994 -0.4323 -0.0853 -0.0511
17458TIP3   OH273788   6.194   1.311  15.493 -0.2595 -0.4107  0.3144
17458TIP3    H173789   6.139   1.368  15.441 -2.3425 -1.6363  1.0267
17458TIP3    H273790   6.195   1.228  15.445  0.3147 -0.6437  0.7143
17459TIP3   OH273791   5.051   0.245   0.512 -0.4484  0.3016  0.0602
17459TIP3    H173792   5.027   0.315   0.451 -1.2367 -1.6427 -2.0062
17459TIP3    H273793   5.133   0.275   0.551 -0.3630  2.0274 -1.3110
17460TIP3   OH273794   5.519   3.223   5.960  0.5419 -0.0395  0.5152
17460TIP3    H173795   5.439   3.259   5.997 -0.0225 -0.9730  0.2278
17460TIP3    H273796   5.564   3.182   6.034  0.0968 -0.6847  0.4309
17461TIP3   OH273797   1.383   3.589  12.793  0.6558  0.3673  0.2514
17461TIP3    H173798   1.457   3.555  12.844  0.9963  0.9320  0.1380
17461TIP3    H273799   1.336   3.645  12.855  0.2672 -0.0557  0.3479
17462TIP3   OH273800   2.394   0.615  11.889 -0.1579 -0.0317  0.1409
17462TIP3    H173801   2.305   0.649  11.880  0.0334  0.5733  0.5209
17462TIP3    H273802   2.432   0.626  11.802 -0.0472  0.8739  0.2981
17463TIP3   OH273803   1.353   6.007   6.790  0.4725  0.0955  0.2820
17463TIP3    H173804   1.283   5.943   6.781 -0.5485  1.3270 -0.9390
17463TIP3    H273805   1.420   5.962   6.841 -0.7355 -1.4919  0.5450
17464TIP3   OH273806   2.046   4.144   3.751  0.3114 -0.0932  0.2098
17464TIP3    H173807   1.955   4.124   3.775  0.6146  0.2381  1.7536
17464TIP3    H273808   2.040   4.190   3.668 -0.7286 -2.5835 -1.2084
17465TIP3   OH273809   1.406   5.871   5.250  0.2123  0.7478  0.5336
17465TIP3    H173810   1.375   5.876   5.340 -2.5347  0.1696 -0.3019
17465TIP3    H273811   1.463   5.794   5.249 -1.1023 -0.2641  1.4043
17466TIP3   OH273812   3.690   0.426   0.639 -0.5901  0.1269  0.0532
17466TIP3    H173813   3.676   0.464   0.726  1.5199 -1.1381  1.0064
17466TIP3    H273814   3.690   0.501   0.580  0.1217  1.2578  1.4395
17467TIP3   OH273815   6.472   3.038   4.190  0.3539  0.1723  1.0922
17467TIP3    H173816   6.431   2.978   4.253 -0.1304 -0.9456 -0.2377
17467TIP3    H273817   6.416   3.115   4.190  0.0825 -0.0188  1.6625
17468TIP3   OH273818   1.154   1.162   1.121 -0.1233  0.6223 -0.4338
17468TIP3    H173819   1.138   1.207   1.039 -1.4315  2.4304  0.7303
17468TIP3    H273820   1.173   1.232   1.184  0.0083 -0.6282  0.9799
17469TIP3   OH273821   0.564   0.537   4.974  0.4578 -0.5114 -0.1802
17469TIP3    H173822   0.596   0.610   5.026 -0.0893  1.0602 -1.9428
17469TIP3    H273823   0.472   0.528   4.999  0.3784 -0.2148 -0.3574
17470TIP3   OH273824   1.128   6.133   4.042  0.5127  0.0157  0.0303
17470TIP3    H173825   1.164   6.052   4.077  0.3334 -0.4962 -0.9426
17470TIP3    H273826   1.205   6.185   4.017  0.6142 -0.2724 -0.2640
17471TIP3   OH273827   1.019   0.908  11.225  0.0905 -0.1439 -0.3021
17471TIP3    H173828   1.055   0.877  11.141  0.0002 -0.6480 -0.1601
17471TIP3    H273829   0.957   0.840  11.251 -0.0708  0.1339  0.0529
17472TIP3   OH273830   1.648   4.774  15.213 -0.1275  0.1588  0.4977
17472TIP3    H173831   1.653   4.775  15.117  0.6172  0.4813  0.5372
17472TIP3    H273832   1.580   4.709  15.233 -0.1733 -0.0255 -0.2393
17473TIP3   OH273833   6.778   6.230  12.335 -0.0333 -0.3624  0.3052
17473TIP3    H173834   6.754   6.227  12.242 -0.8087 -0.9225  0.5119
17473TIP3    H273835   6.783   6.138  12.361  0.5200 -0.2144  0.7441
17474TIP3   OH273836   1.375   0.119  11.707 -0.3653 -0.0889 -0.6098
17474TIP3    H173837   1.384   0.142  11.614  1.1495  0.2403 -0.4117
17474TIP3    H273838   1.420   0.035  11.715  0.7047  0.5235  0.0540
17475TIP3   OH273839   4.285   5.207  16.270  0.0031  0.1164  0.1055
17475TIP3    H173840   4.317   5.118  16.287  0.0395 -0.0730 -0.8909
17475TIP3    H273841   4.298   5.253  16.352 -2.4065 -1.4710  1.5162
17476TIP3   OH273842   3.005   6.087  15.297  0.0576 -0.6382 -0.3376
17476TIP3    H173843   3.058   6.087  15.377  0.0445 -1.5681 -0.3208
17476TIP3    H273844   2.916   6.106  15.326  0.5380  2.3027 -0.5118
17477TIP3   OH273845   1.169   3.894  10.587 -0.3123 -0.0722  0.3514
17477TIP3    H173846   1.248   3.865  10.633 -0.3983 -1.0087 -0.0790
17477TIP3    H273847   1.175   3.990  10.589  2.3825 -0.0352 -2.2249
17478TIP3   OH273848   3.343   1.732   0.649  0.2729  0.1581 -0.2921
17478TIP3    H173849   3.310   1.642   0.654 -1.3187  0.6702 -0.6896
17478TIP3    H273850   3.265   1.786   0.664  1.3429  1.4839  0.7540
17479TIP3   OH273851   0.524   5.108   0.721  0.0799  0.6205 -0.1509
17479TIP3    H173852   0.442   5.106   0.670  0.9353 -1.9880 -1.5715
17479TIP3    H273853   0.500   5.070   0.805  0.0260 -1.3627 -1.0055
17480TIP3   OH273854   0.470   6.610   3.625  0.2922  0.4176 -0.0986
17480TIP3    H173855   0.427   6.525   3.613  0.3916  0.4089 -0.3975
17480TIP3    H273856   0.401   6.674   3.612 -0.2617  0.3640  2.0738
17481TIP3   OH273857   6.625   0.272   5.242 -0.2078 -0.0107 -0.6917
17481TIP3    H173858   6.628   0.236   5.153  0.7453  1.4553 -1.3059
17481TIP3    H273859   6.672   0.208   5.295 -1.3306 -1.2172 -1.0937
17482TIP3   OH273860   0.168   4.350  14.886  0.5728 -0.6001  0.1163
17482TIP3    H173861   0.082   4.308  14.892 -0.2488  0.9191 -0.5150
17482TIP3    H273862   0.220   4.289  14.832 -0.5523 -0.8833 -0.6941
17483TIP3   OH273863   3.695   3.670  14.000  0.3498 -0.6010 -0.5072
17483TIP3    H173864   3.781   3.632  14.015  0.4667 -0.5889 -1.1299
17483TIP3    H273865   3.645   3.600  13.956  0.1564 -0.4788 -0.4855
17484TIP3   OH273866   4.909   5.537   3.703  0.2941  0.1999  0.5733
17484TIP3    H173867   4.892   5.444   3.720  2.1286 -0.2513  0.2249
17484TIP3    H273868   4.944   5.571   3.785  1.1097  0.1687  0.2491
17485TIP3   OH273869   5.135   4.992  11.905 -0.1802  0.1891  0.3652
17485TIP3    H173870   5.165   5.077  11.936 -0.4356  0.4764 -0.1473
17485TIP3    H273871   5.215   4.943  11.885  0.0002  1.1021 -1.4151
17486TIP3   OH273872   3.234   2.904   5.732 -0.0155 -0.2154  0.4481
17486TIP3    H173873   3.253   2.845   5.659  2.0778 -0.1933  0.8846
17486TIP3    H273874   3.226   2.846   5.808 -0.2074 -0.1065  0.5106
17487TIP3   OH273875   3.902   5.056  14.633 -0.0925  0.4203  0.4450
17487TIP3    H173876   3.906   5.141  14.675 -0.7003  0.1869  0.9809
17487TIP3    H273877   3.911   4.993  14.704 -0.2287  0.0313  0.1242
17488TIP3   OH273878   6.516   2.919  13.890 -0.3311 -0.0571  0.7113
17488TIP3    H173879   6.550   2.962  13.812 -0.0764 -0.1469  0.7727
17488TIP3    H273880   6.431   2.959  13.904  0.4517  1.3609  1.5328
17489TIP3   OH273881   2.496   5.896   1.177  0.5305 -0.0377  0.0941
17489TIP3    H173882   2.467   5.825   1.120  1.0369 -0.6072  0.5309
17489TIP3    H273883   2.483   5.975   1.125 -0.1485 -0.4344 -0.3587
17490TIP3   OH273884   0.239   3.356   5.338  0.6463  0.1994 -0.2832
17490TIP3    H173885   0.283   3.272   5.338  0.3239  0.0151 -1.4810
17490TIP3    H273886   0.265   3.397   5.421  1.0329 -0.9451  0.1725
17491TIP3   OH273887   3.973   1.357  12.428  0.0602 -0.1906 -0.5483
17491TIP3    H173888   4.033   1.430  12.414  0.5362 -0.3898  0.3715
17491TIP3    H273889   3.894   1.397  12.464 -0.3502  0.0670 -1.7152
17492TIP3   OH273890   5.975   3.229  15.351 -0.5915  0.1899 -0.1614
17492TIP3    H173891   5.987   3.137  15.327  0.8741  0.5004 -0.7088
17492TIP3    H273892   5.970   3.229  15.447 -1.7576 -0.5612 -0.2039
17493TIP3   OH273893   3.797   2.798   1.054 -0.3295 -0.1102  0.1530
17493TIP3    H173894   3.768   2.738   0.986  1.4224 -1.1444  0.2596
17493TIP3    H273895   3.891   2.781   1.063 -0.0876  1.5560  1.2880
17494TIP3   OH273896   6.306   4.006  12.393 -1.0906  0.2996 -0.3487
17494TIP3    H173897   6.273   4.083  12.441 -0.9480  0.4116 -0.4290
17494TIP3    H273898   6.265   3.931  12.437  0.1272  0.3128  0.8503
17495TIP3   OH273899   0.611   5.615  16.995 -0.0483 -0.0484 -0.7784
17495TIP3    H173900   0.606   5.694  16.941  0.3064 -1.0164 -2.2955
17495TIP3    H273901   0.636   5.646  17.081  0.1839  1.4879 -1.3735
17496TIP3   OH273902   5.431   2.540   3.396 -0.4235 -0.3748 -0.0644
17496TIP3    H173903   5.449   2.620   3.347  1.6381 -0.9732 -0.3685
17496TIP3    H273904   5.360   2.564   3.456 -1.8783  0.8222 -2.1536
17497TIP3   OH273905   3.398   1.935  15.500  0.5426  0.4733 -0.0309
17497TIP3    H173906   3.470   1.936  15.562  0.7518  1.1521 -0.2705
17497TIP3    H273907   3.326   1.891  15.546  0.7604  0.7792  0.6126
17498TIP3   OH273908   5.582   3.537  15.920 -0.0753  0.5803  0.2176
17498TIP3    H173909   5.582   3.517  16.014  1.2004 -2.2669 -0.2949
17498TIP3    H273910   5.496   3.577  15.904 -2.6029 -3.5782  1.7853
17499TIP3   OH273911   2.978   1.611  11.295  0.0519  0.2199  0.2760
17499TIP3    H173912   3.056   1.655  11.330  0.2958  2.4733 -2.7053
17499TIP3    H273913   3.011   1.526  11.265  1.0034  0.4776  0.5490
17500TIP3   OH273914   2.394   4.047   2.637  0.0828  0.0500  0.3368
17500TIP3    H173915   2.327   3.983   2.613 -0.3339  0.8746 -0.7970
17500TIP3    H273916   2.474   4.013   2.597 -0.0678  0.0664  0.0179
17501TIP3   OH273917   5.528   3.870  16.521 -0.1728  0.1127 -0.5527
17501TIP3    H173918   5.609   3.822  16.541 -0.0954 -0.0483 -1.2174
17501TIP3    H273919   5.557   3.943  16.467 -0.5240 -0.2352 -1.2307
17502TIP3   OH273920   3.636   0.984   2.142 -0.0419  0.2773  0.2973
17502TIP3    H173921   3.561   0.933   2.110  0.3468  0.8211 -1.5747
17502TIP3    H273922   3.704   0.918   2.158  0.5674  0.1085 -2.4243
17503TIP3   OH273923   1.573   1.405  14.587 -0.0861 -0.0420  0.1057
17503TIP3    H173924   1.648   1.387  14.531  0.0023 -0.4113  0.3367
17503TIP3    H273925   1.600   1.481  14.640 -1.1474  2.0617 -2.1616
17504TIP3   OH273926   3.207   1.674  14.980  0.1927 -0.0821  0.3449
17504TIP3    H173927   3.280   1.699  15.037 -0.0342 -0.5774  0.8724
17504TIP3    H273928   3.133   1.727  15.010 -0.4879 -1.7976  1.9653
17505TIP3   OH273929   2.160   0.260  12.973 -0.5181 -0.5546  0.2364
17505TIP3    H173930   2.149   0.275  13.067  0.3748 -0.9081  0.4075
17505TIP3    H273931   2.244   0.215  12.966  0.1034  0.7289 -0.8579
17506TIP3   OH273932   6.577   1.322  14.367 -0.3614 -0.1680 -0.7247
17506TIP3    H173933   6.508   1.260  14.344 -0.7230  0.7953 -2.3592
17506TIP3    H273934   6.536   1.383  14.428 -0.2904 -0.8982  0.0773
17507TIP3   OH273935   1.108   3.491   1.567 -0.4974 -0.2366 -0.0666
17507TIP3    H173936   1.070   3.579   1.561  1.8219  0.8941  0.4282
17507TIP3    H273937   1.056   3.438   1.507 -2.5466  1.2355  0.2963
17508TIP3   OH273938   1.589   6.752   5.153 -0.0583  0.6501  0.0436
17508TIP3    H173939   1.579   6.671   5.103  0.5711  1.6298 -1.7536
17508TIP3    H273940   1.679   6.779   5.137 -0.3005  1.7839  0.5067
17509TIP3   OH273941   0.785   2.587   2.336  0.1417  0.0761 -0.7885
17509TIP3    H173942   0.694   2.616   2.336  0.4975  1.3238  1.1758
17509TIP3    H273943   0.783   2.502   2.380 -0.2497 -0.6868 -2.2137
17510TIP3   OH273944   3.466   2.112   1.130 -0.4760  0.1088  0.0844
17510TIP3    H173945   3.553   2.084   1.101 -0.9322 -0.5417 -0.7064
17510TIP3    H273946   3.418   2.127   1.049 -0.6625  1.9535  0.4883
17511TIP3   OH273947   1.552   0.820  17.270  0.0414 -0.4078  0.2565
17511TIP3    H173948   1.495   0.785  17.201  1.0580 -1.1480 -0.2373
17511TIP3    H273949   1.640   0.819  17.231  0.1900  2.4028  0.3374
17512TIP3   OH273950   3.628   4.792  15.565  0.0422  0.4968 -0.1260
17512TIP3    H173951   3.658   4.713  15.611 -1.8494 -0.4180 -0.3465
17512TIP3    H273952   3.540   4.807  15.599 -0.0451  1.8926 -0.8989
17513TIP3   OH273953   2.514   5.532   2.682 -0.9568 -0.3674  0.0692
17513TIP3    H173954   2.474   5.450   2.653  1.9440 -1.4599 -1.3264
17513TIP3    H273955   2.574   5.507   2.752  1.3424  0.1255 -1.5860
17514TIP3   OH273956   5.778   4.169  12.761  0.4532 -0.5441  0.4879
17514TIP3    H173957   5.693   4.207  12.740  1.2193  1.1753  0.3022
17514TIP3    H273958   5.833   4.193  12.686  1.1591 -1.4464  0.7054
17515TIP3   OH273959   2.542   3.334   1.945  0.0630  0.1048  0.0689
17515TIP3    H173960   2.592   3.397   1.892  0.0773 -0.0133 -0.0579
17515TIP3    H273961   2.578   3.344   2.033 -0.8181  1.2040  0.3294
17516TIP3   OH273962   3.336   4.839  11.368  0.4040  0.1418  0.5852
17516TIP3    H173963   3.256   4.882  11.338  0.5329 -1.4968 -2.5247
17516TIP3    H273964   3.305   4.762  11.416  0.1895  1.0861  2.0297
17517TIP3   OH273965   3.164   4.434   3.585 -0.2525  0.0478 -0.3204
17517TIP3    H173966   3.169   4.388   3.502 -1.0533 -0.6271 -0.0077
17517TIP3    H273967   3.224   4.509   3.575 -0.2150 -0.1173 -1.4273
17518TIP3   OH273968   3.874   0.655   3.050  0.7300  0.5557  0.9999
17518TIP3    H173969   3.862   0.746   3.077  1.6603  0.0696  3.3122
17518TIP3    H273970   3.789   0.614   3.065  1.1962  0.3207  3.3922
17519TIP3   OH273971   5.825   2.473  11.867  0.1856  0.2711 -0.3851
17519TIP3    H173972   5.895   2.444  11.926 -0.6522  0.0069  0.5023
17519TIP3    H273973   5.762   2.517  11.924  0.0147  1.2484 -1.2911
17520TIP3   OH273974   6.377   3.402  12.546  0.2054 -0.0664 -0.7776
17520TIP3    H173975   6.320   3.396  12.622  0.6653 -2.8621 -0.5652
17520TIP3    H273976   6.328   3.457  12.484 -1.6388 -0.4296  0.2831
17521TIP3   OH273977   5.026   6.041   0.815 -0.6502 -0.6968  0.0492
17521TIP3    H173978   5.055   6.124   0.853  0.3750  1.1409 -4.1383
17521TIP3    H273979   4.938   6.028   0.849  0.3408  0.2653  3.3659
17522TIP3   OH273980   3.435   3.342  13.253  0.3399 -0.2371  0.6704
17522TIP3    H173981   3.449   3.419  13.308  0.1177 -0.3611  0.9001
17522TIP3    H273982   3.467   3.369  13.166  0.2313  0.1237  0.7411
17523TIP3   OH273983   2.074   4.373   1.765  0.3165  0.5226  0.1046
17523TIP3    H173984   2.103   4.286   1.738 -0.8570 -0.6431  2.2967
17523TIP3    H273985   1.993   4.388   1.715  0.9935  0.7993 -0.9475
17524TIP3   OH273986   0.756   1.148   2.224  0.3267  0.2117  1.0315
17524TIP3    H173987   0.685   1.209   2.207 -1.0299 -1.4338  0.4977
17524TIP3    H273988   0.712   1.067   2.250  1.9587 -1.1630 -0.2779
17525TIP3   OH273989   4.124   6.219   2.482  0.1472 -0.2501 -0.3547
17525TIP3    H173990   4.165   6.245   2.400  1.6177 -0.0019  0.4181
17525TIP3    H273991   4.197   6.196   2.539 -0.9126 -1.8590  0.4129
17526TIP3   OH273992   4.988   3.587   2.197  0.2140 -0.0230  0.4012
17526TIP3    H173993   4.958   3.620   2.282 -1.7025 -1.0030  0.1629
17526TIP3    H273994   4.920   3.525   2.170  0.5942  0.5253 -2.0286
17527TIP3   OH273995   6.677   5.696  12.198  0.3750 -0.2168  0.3550
17527TIP3    H173996   6.614   5.744  12.252  0.5393  0.9383 -0.4593
17527TIP3    H273997   6.671   5.605  12.229 -0.0011  0.3036  1.8609
17528TIP3   OH273998   2.589   2.928   5.274 -0.2043  0.7716  0.0080
17528TIP3    H173999   2.649   2.890   5.211 -1.4577 -1.3732 -0.0022
17528TIP3    H274000   2.604   3.022   5.269  2.9361  0.3676 -0.1500
17529TIP3   OH274001   3.108   2.058  11.838 -0.2986 -0.7873 -0.1217
17529TIP3    H174002   3.170   2.028  11.771  0.5593  2.3664 -0.9315
17529TIP3    H274003   3.045   2.111  11.790  0.8625  2.3532  1.5116
17530TIP3   OH274004   4.688   1.398   0.824 -0.1002 -0.6207  0.1665
17530TIP3    H174005   4.770   1.446   0.812 -0.8750  1.1542  1.5128
17530TIP3    H274006   4.690   1.370   0.915 -1.3820  0.3037  0.5139
17531TIP3   OH274007   3.154   0.759  14.029  0.1024  0.2814  0.2389
17531TIP3    H174008   3.213   0.832  14.047  0.8451 -0.5018  1.1253
17531TIP3    H274009   3.146   0.714  14.113  0.3606 -1.1468 -0.4592
17532TIP3   OH274010   4.204   2.154   6.496 -0.0037 -0.3868 -0.1767
17532TIP3    H174011   4.263   2.166   6.421 -1.7453 -0.8039 -1.6858
17532TIP3    H274012   4.253   2.190   6.570  1.1110  1.7019 -1.7870
17533TIP3   OH274013   2.164   0.632   1.497  0.1084  0.2014 -0.1703
17533TIP3    H174014   2.115   0.550   1.501 -0.3134  0.5034  1.8372
17533TIP3    H274015   2.124   0.679   1.423 -1.1211 -0.5032  0.0105
17534TIP3   OH274016   1.749   3.747  12.161 -0.0415  0.1240  0.2646
17534TIP3    H174017   1.676   3.703  12.206  0.7520  0.1917  1.6735
17534TIP3    H274018   1.735   3.840  12.177  0.6480  0.1060  1.0441
17535TIP3   OH274019   3.890   3.135   3.257 -0.2126 -0.0339 -0.7195
17535TIP3    H174020   3.915   3.226   3.271  0.2552 -0.5003  2.2676
17535TIP3    H274021   3.812   3.122   3.310  1.4463 -2.0287  1.4753
17536TIP3   OH274022   4.785   2.107  15.587 -0.8469  0.6387  0.2238
17536TIP3    H174023   4.716   2.093  15.522 -0.4151  1.4216 -0.4174
17536TIP3    H274024   4.739   2.113  15.670 -1.5364  0.9708 -0.1789
17537TIP3   OH274025   4.107   4.407  11.689  0.3153 -0.5335  0.5513
17537TIP3    H174026   4.137   4.375  11.604  0.7709 -1.6829  1.1230
17537TIP3    H274027   4.041   4.344  11.716 -1.3552  0.9748  0.1360
17538TIP3   OH274028   5.151   1.562  16.530 -0.2031  0.3592  0.4579
17538TIP3    H174029   5.220   1.559  16.463  0.0008  2.9514  0.4788
17538TIP3    H274030   5.073   1.592  16.484 -0.3541  1.0730  1.1641
17539TIP3   OH274031   2.565   1.799  14.906  0.5005  0.2396 -0.5963
17539TIP3    H174032   2.476   1.831  14.890  0.2930  0.3494  0.6609
17539TIP3    H274033   2.613   1.820  14.826 -0.4676  0.6518 -1.0887
17540TIP3   OH274034   4.924   2.692  16.757  0.3410  0.2267 -0.0656
17540TIP3    H174035   4.860   2.759  16.781 -0.2217 -0.2596 -0.1622
17540TIP3    H274036   4.916   2.684  16.662  2.2600  1.8484 -0.4260
17541TIP3   OH274037   5.075   3.507   1.811 -0.5293  0.5236  0.3035
17541TIP3    H174038   5.110   3.440   1.870  0.4352  2.1604  1.6832
17541TIP3    H274039   5.098   3.475   1.724  2.6828  0.4645  1.0298
17542TIP3   OH274040   2.940   1.540   1.334 -0.4165  0.0485 -0.0969
17542TIP3    H174041   2.848   1.526   1.311  0.1684 -2.7035 -1.1422
17542TIP3    H274042   2.936   1.584   1.419 -2.6632  0.9937 -0.5967
17543TIP3   OH274043   1.215   3.753  12.936  0.2405  0.2555 -0.0941
17543TIP3    H174044   1.212   3.846  12.916  3.3166  0.5486  0.3782
17543TIP3    H274045   1.248   3.749  13.026 -1.1329 -1.2983  0.3904
17544TIP3   OH274046   2.241   5.817   4.229 -0.4096  0.6420  0.5754
17544TIP3    H174047   2.197   5.875   4.167 -0.7899  1.5717  1.6687
17544TIP3    H274048   2.269   5.875   4.300 -0.6104 -0.4867  1.6106
17545TIP3   OH274049   0.084   3.624   2.618  0.3104  0.0495  0.3960
17545TIP3    H174050  -0.005   3.641   2.648 -0.6204  0.7877 -2.4938
17545TIP3    H274051   0.132   3.704   2.640  0.2658 -0.2697  1.7734
17546TIP3   OH274052   6.536   3.477  15.982  0.0757  0.2675  0.0517
17546TIP3    H174053   6.494   3.394  16.005  1.4573 -0.8682 -1.3430
17546TIP3    H274054   6.528   3.530  16.061 -0.3831 -1.3667  1.1532
17547TIP3   OH274055   3.464   1.822   5.290  0.5816  0.2012 -0.5230
17547TIP3    H174056   3.555   1.852   5.301  0.3397  1.6220 -1.9109
17547TIP3    H274057   3.411   1.898   5.312 -0.1753  0.0411 -1.7138
17548TIP3   OH274058   1.864   0.574   3.159  0.3612  0.6285  0.1630
17548TIP3    H174059   1.916   0.500   3.127 -0.1761 -0.1595  1.0488
17548TIP3    H274060   1.774   0.540   3.164 -0.1049  1.7093 -0.5493
17549TIP3   OH274061   5.820   2.299  15.097  0.3463  0.1274  0.2863
17549TIP3    H174062   5.833   2.224  15.039 -0.7563  1.0621 -1.2835
17549TIP3    H274063   5.776   2.263  15.174  0.1474 -0.8927 -0.2872
17550TIP3   OH274064   6.623   1.100  13.771  0.5794  0.1567 -0.1658
17550TIP3    H174065   6.670   1.162  13.827 -1.0925 -1.1763  2.9608
17550TIP3    H274066   6.692   1.046  13.732  1.9146  2.2938 -0.9810
17551TIP3   OH274067   6.028   2.652   0.831  0.0886  0.1207 -0.0922
17551TIP3    H174068   6.095   2.636   0.764 -0.4158  2.6859 -1.3370
17551TIP3    H274069   6.078   2.679   0.908  0.5815  0.9686 -0.6789
17552TIP3   OH274070   2.420   3.060  11.493  0.3811  0.0916 -0.4575
17552TIP3    H174071   2.505   3.016  11.482  0.9219  0.1814  2.5318
17552TIP3    H274072   2.379   3.015  11.567 -0.3941  2.5788  0.7398
17553TIP3   OH274073   4.757   2.615   0.561  0.0064  0.0616  0.4442
17553TIP3    H174074   4.792   2.684   0.616 -3.5527  1.3820  1.3263
17553TIP3    H274075   4.736   2.543   0.621 -0.0569 -0.1676  0.1546
17554TIP3   OH274076   0.391   3.892   1.240  0.4051 -0.9639  0.3917
17554TIP3    H174077   0.371   3.965   1.299 -0.7830 -1.5997  0.7996
17554TIP3    H274078   0.359   3.814   1.285 -1.9651 -1.3381 -1.6845
17555TIP3   OH274079   6.494   1.787  13.553  0.4464 -0.5866  0.6929
17555TIP3    H174080   6.486   1.700  13.513 -0.2386 -0.5511  0.7354
17555TIP3    H274081   6.571   1.780  13.609 -1.0492 -2.0163  2.7533
17556TIP3   OH274082   3.558   6.224   0.837  0.0309  0.3492 -0.0286
17556TIP3    H174083   3.578   6.131   0.845  1.6496  0.6992  0.3978
17556TIP3    H274084   3.482   6.228   0.779  0.8271 -1.1503 -1.2321
17557TIP3   OH274085   0.190   1.181  10.707  0.3304  0.7089 -0.0139
17557TIP3    H174086   0.152   1.268  10.720  0.5847  0.6708  1.0856
17557TIP3    H274087   0.129   1.138  10.648 -0.1092  1.4376 -0.1135
17558TIP3   OH274088   1.374   4.852   3.311 -0.3133 -0.2968 -0.0553
17558TIP3    H174089   1.372   4.854   3.215  0.8827  1.1461 -0.0834
17558TIP3    H274090   1.292   4.895   3.337 -0.5375 -0.4895 -0.4227
17559TIP3   OH274091   0.808   0.568   1.336  0.0949  0.6630 -0.1957
17559TIP3    H174092   0.756   0.529   1.405  0.9244 -0.2630 -0.0751
17559TIP3    H274093   0.834   0.653   1.371 -1.4309  1.2210 -0.3216
17560TIP3   OH274094   0.463   2.013   0.361 -0.8238 -0.0902  0.0096
17560TIP3    H174095   0.482   2.097   0.319  0.0045 -0.8887 -1.2884
17560TIP3    H274096   0.535   1.956   0.333 -2.3515 -1.7550 -0.6817
17561TIP3   OH274097   6.299   1.590   4.774  0.0184 -0.1105  0.2241
17561TIP3    H174098   6.276   1.648   4.847 -1.5233 -0.3482 -0.0286
17561TIP3    H274099   6.251   1.509   4.793 -0.2211 -0.2488 -0.9349
17562TIP3   OH274100   2.060   1.201   3.353  0.2993 -0.5749  0.1298
17562TIP3    H174101   2.037   1.123   3.304 -0.7247 -0.1069 -0.1567
17562TIP3    H274102   2.078   1.169   3.442 -1.8560 -0.9447  0.4803
17563TIP3   OH274103   0.081   5.133  13.847  0.2178 -0.1274  0.9274
17563TIP3    H174104   0.127   5.096  13.922 -1.6670 -2.0692  1.2247
17563TIP3    H274105  -0.010   5.105  13.858 -0.2782  0.2196 -1.6498
17564TIP3   OH274106   3.050   1.194   3.344 -0.6131  0.2111  0.5040
17564TIP3    H174107   3.119   1.160   3.401 -2.0728 -2.1200  1.0580
17564TIP3    H274108   3.089   1.194   3.256  0.8218  1.2985  1.1155
17565TIP3   OH274109   4.000   3.956  15.808 -0.1748 -0.3470  0.0072
17565TIP3    H174110   4.012   3.941  15.902 -0.4695  0.0929  0.1181
17565TIP3    H274111   3.972   3.872  15.773 -0.5835 -0.3754  0.4030
17566TIP3   OH274112   4.174   3.877  15.349  0.1635 -0.4367  0.0603
17566TIP3    H174113   4.109   3.807  15.353 -0.5224  0.0961 -1.1911
17566TIP3    H274114   4.207   3.874  15.259 -0.1042  1.0297 -0.1092
17567TIP3   OH274115   0.202   0.881   5.007 -0.0495  0.5663 -0.0401
17567TIP3    H174116   0.213   0.787   5.017 -0.0385  0.5510 -0.2075
17567TIP3    H274117   0.110   0.897   5.029  0.3485  0.7331  1.6597
17568TIP3   OH274118   4.899   4.194   1.996  0.1679 -0.2309  0.7623
17568TIP3    H174119   4.951   4.120   2.025 -0.2325 -0.4669  0.8873
17568TIP3    H274120   4.834   4.156   1.938 -0.6150 -0.1135  1.5383
17569TIP3   OH274121   4.163   5.839  17.160 -0.6422 -0.1701 -0.2362
17569TIP3    H174122   4.084   5.824  17.108 -0.3547  0.5841 -0.8986
17569TIP3    H274123   4.231   5.859  17.096  0.3230 -1.6621  0.2620
17570TIP3   OH274124   4.928   1.409  14.125 -0.2441 -0.3172  0.2078
17570TIP3    H174125   4.909   1.501  14.104  1.3806 -0.1834 -0.8450
17570TIP3    H274126   5.007   1.412  14.179 -1.2994 -1.0191  1.8781
17571TIP3   OH274127   4.045   0.980   3.660  0.4692  0.0705  0.2485
17571TIP3    H174128   3.974   1.029   3.702  0.9711 -0.1252  1.3634
17571TIP3    H274129   4.107   1.047   3.631  0.3761  0.1792  0.3027
17572TIP3   OH274130   0.232   6.008   5.691 -0.3622 -0.3746  0.4299
17572TIP3    H174131   0.186   6.024   5.773 -0.0691 -0.3559  0.5889
17572TIP3    H274132   0.206   6.080   5.634  0.2032  0.1415  0.8256
17573TIP3   OH274133   4.758   4.194  12.577 -0.2546  0.1724  0.7293
17573TIP3    H174134   4.666   4.171  12.571 -0.0179 -1.0656  1.4917
17573TIP3    H274135   4.765   4.280  12.534 -1.8925  0.7093  1.4907
17574TIP3   OH274136   0.758   4.194   3.906 -0.0320 -0.0037  0.0827
17574TIP3    H174137   0.822   4.193   3.835  2.6174  2.2802  2.1516
17574TIP3    H274138   0.684   4.243   3.871  1.4599  1.6190 -0.9904
17575TIP3   OH274139   6.099   1.929  15.401 -0.2306 -0.5003 -0.1132
17575TIP3    H174140   6.188   1.913  15.430 -0.2492 -0.5651 -0.0922
17575TIP3    H274141   6.062   1.842  15.386 -0.4511 -0.4931  0.3620
17576TIP3   OH274142   2.061   4.417  15.872  0.2660 -0.3319  0.2653
17576TIP3    H174143   2.149   4.402  15.837  0.8493 -1.7704  2.1967
17576TIP3    H274144   2.010   4.444  15.796  2.8165  2.7672 -0.5832
17577TIP3   OH274145   5.686   2.120  16.112 -0.4775 -0.0598 -0.1403
17577TIP3    H174146   5.640   2.188  16.063  1.3880 -0.8608 -3.2190
17577TIP3    H274147   5.748   2.168  16.166 -1.3816  0.7749  0.1944
17578TIP3   OH274148   5.360   0.919  13.724 -0.1683  0.3538 -0.1486
17578TIP3    H174149   5.340   0.859  13.652 -2.1836  0.2530  0.4256
17578TIP3    H274150   5.297   0.895  13.792  0.7965  1.3459  1.1263
17579TIP3   OH274151   3.740   1.559  12.429 -0.1923  0.8401 -0.0798
17579TIP3    H174152   3.774   1.648  12.439  0.5666  0.5147  0.2871
17579TIP3    H274153   3.647   1.571  12.412  0.0127  1.7272 -0.6214
17580TIP3   OH274154   2.058   4.358  14.950  0.2042  0.0936  0.0007
17580TIP3    H174155   2.118   4.425  14.919 -1.9872  0.2452 -4.7826
17580TIP3    H274156   2.095   4.276  14.918  1.1591 -0.7644  2.9656
17581TIP3   OH274157   6.532   0.306  16.218  0.0354 -0.1025  0.3944
17581TIP3    H174158   6.520   0.395  16.187  0.2249  0.0914  0.8618
17581TIP3    H274159   6.622   0.303  16.250  0.7900 -1.0970 -1.6441
17582TIP3   OH274160   5.276   3.812   0.522  0.3474 -0.5791 -0.4053
17582TIP3    H174161   5.244   3.902   0.530  2.0225  0.1184 -1.1264
17582TIP3    H274162   5.197   3.758   0.530 -0.6290  0.9072  0.5713
17583TIP3   OH274163   5.831   0.570   3.194  0.2753  0.1384 -0.5170
17583TIP3    H174164   5.818   0.632   3.122  0.0770  1.2441  0.4569
17583TIP3    H274165   5.818   0.621   3.273  0.2051 -1.1276  0.3212
17584TIP3   OH274166   0.164   6.712  17.259  0.5989  0.6003 -0.3842
17584TIP3    H174167   0.114   6.633  17.279  1.0574  0.5745  0.7492
17584TIP3    H274168   0.240   6.680  17.210  2.6690 -0.2538  3.0008
17585TIP3   OH274169   3.513   0.366  12.774 -0.3968 -0.4343 -0.7875
17585TIP3    H174170   3.421   0.379  12.751 -0.3193 -0.0009 -0.8694
17585TIP3    H274171   3.560   0.379  12.692 -0.1114  1.2225 -0.4070
17586TIP3   OH274172   1.026   5.301   3.948  0.0211 -0.1806 -0.2285
17586TIP3    H174173   0.954   5.325   4.007  1.6028  2.4210  0.8268
17586TIP3    H274174   1.012   5.356   3.871  0.2520 -0.5169 -0.5097
17587TIP3   OH274175   0.151   3.465   0.345 -0.0445 -0.2112  0.1238
17587TIP3    H174176   0.148   3.376   0.311  0.2892 -0.2457  0.1879
17587TIP3    H274177   0.117   3.458   0.434  1.4193 -0.5351  0.6851
17588TIP3   OH274178   0.489   0.064  15.145  0.3101  0.5034  0.0662
17588TIP3    H174179   0.564   0.046  15.202  1.2173  0.2823 -1.1656
17588TIP3    H274180   0.489   0.159  15.135  1.8602  0.3626 -1.7623
17589TIP3   OH274181   5.572   2.803   3.964 -0.4726  0.0316 -0.2270
17589TIP3    H174182   5.662   2.799   3.997 -0.5277 -1.3098 -0.2039
17589TIP3    H274183   5.575   2.752   3.883 -1.5176 -1.2111  0.4962
17590TIP3   OH274184   1.617   5.253   5.130  0.3233 -0.1900  0.7429
17590TIP3    H174185   1.634   5.254   5.036 -1.9727 -0.6467  0.2595
17590TIP3    H274186   1.556   5.181   5.142 -2.0075  1.8442  2.0404
17591TIP3   OH274187   6.386   5.902   4.741 -0.0769  0.5111 -0.2494
17591TIP3    H174188   6.334   5.980   4.761 -0.6548  0.4761 -1.5422
17591TIP3    H274189   6.326   5.845   4.692 -0.5202 -1.9223  2.8145
17592TIP3   OH274190   1.321   4.124   4.213  0.1168 -0.2439  0.4309
17592TIP3    H174191   1.368   4.201   4.181 -1.3926  1.2455  1.6318
17592TIP3    H274192   1.244   4.160   4.257 -0.8669 -2.4824  0.6406
17593TIP3   OH274193   4.002   6.035  11.610  0.0882  0.3434  0.1366
17593TIP3    H174194   3.919   6.004  11.574  1.1365 -0.0295 -2.0691
17593TIP3    H274195   4.062   6.039  11.536  1.5325  2.5254  1.2956
17594TIP3   OH274196   4.459   1.800   0.970  0.2130 -1.4064 -0.7944
17594TIP3    H174197   4.462   1.723   0.912  0.9776 -0.7391 -1.6627
17594TIP3    H274198   4.487   1.766   1.055  0.9997 -2.0031 -1.2764
17595TIP3   OH274199   2.114   3.899  16.867  0.2060  0.4862  0.1640
17595TIP3    H174200   2.025   3.880  16.898  0.6923 -0.1395  1.2394
17595TIP3    H274201   2.101   3.964  16.798 -1.1158  0.1278  0.0312
17596TIP3   OH274202   2.282   6.307   0.339 -0.3567  0.2117 -0.5111
17596TIP3    H174203   2.225   6.279   0.411 -0.4056  0.4026 -0.4731
17596TIP3    H274204   2.254   6.397   0.321 -0.1810  0.2471 -0.6073
17597TIP3   OH274205   4.295   5.177   3.830  0.0814 -0.6533  0.3031
17597TIP3    H174206   4.337   5.263   3.832  0.1423 -0.6096 -1.2080
17597TIP3    H274207   4.215   5.192   3.779 -0.3397 -1.3121  0.7740
17598TIP3   OH274208   5.679   1.755  15.454 -0.1994 -1.0444  0.3495
17598TIP3    H174209   5.723   1.740  15.538 -0.8364 -2.6508  0.4452
17598TIP3    H274210   5.651   1.846  15.457 -1.7958 -1.5186  2.6985
17599TIP3   OH274211   4.561   6.709  15.700  0.2875 -0.5136 -0.2562
17599TIP3    H174212   4.485   6.699  15.644 -0.3058  0.5147  0.3412
17599TIP3    H274213   4.636   6.707  15.641 -0.2843 -0.1502 -0.9999
17600TIP3   OH274214   2.767   2.203   0.632 -0.2353  0.6353  0.3506
17600TIP3    H174215   2.785   2.215   0.725 -1.5713 -1.3921  0.9501
17600TIP3    H274216   2.672   2.215   0.625 -0.1129  0.9938 -0.8045
17601TIP3   OH274217   2.671   1.542   6.381  0.2074 -0.5448 -0.0622
17601TIP3    H174218   2.618   1.463   6.389  0.9661 -1.2735 -1.7238
17601TIP3    H274219   2.702   1.541   6.291 -0.9243  2.4250 -0.6001
17602TIP3   OH274220   5.997   1.149   5.450  0.5215 -0.3554  0.2774
17602TIP3    H174221   6.089   1.157   5.477  0.8653 -2.0916 -0.2291
17602TIP3    H274222   5.948   1.141   5.531  0.5399  2.5326  0.6493
17603TIP3   OH274223   4.183   3.595   1.635  0.2234  0.2377  0.6091
17603TIP3    H174224   4.214   3.510   1.668 -0.7028 -2.1259 -3.8897
17603TIP3    H274225   4.256   3.628   1.582  0.0816  1.6981  1.2717
17604TIP3   OH274226   1.520   3.910  15.558  0.2846  0.3229  0.2639
17604TIP3    H174227   1.565   3.993  15.543 -0.7342  1.2800  2.1709
17604TIP3    H274228   1.590   3.844  15.554  1.0733  1.2201 -1.4738
17605TIP3   OH274229   4.416   1.010  11.228  0.4836  0.0761 -0.3096
17605TIP3    H174230   4.469   1.088  11.244  0.2943  1.0018 -3.5111
17605TIP3    H274231   4.334   1.026  11.275  1.9171 -0.1757  2.4986
17606TIP3   OH274232   0.709   0.273  16.870  0.2122  0.5536  0.5733
17606TIP3    H174233   0.630   0.262  16.923  1.1257  0.8135  2.0581
17606TIP3    H274234   0.739   0.184  16.852 -1.3745  0.3717 -1.6088
17607TIP3   OH274235   1.661   6.573  11.008 -0.3454 -0.1329 -0.2689
17607TIP3    H174236   1.665   6.660  10.968  0.8217 -0.1747 -0.2764
17607TIP3    H274237   1.580   6.535  10.974 -1.4931  1.3666  0.6205
17608TIP3   OH274238   2.725   1.599  11.728 -0.4321  0.1250 -0.2928
17608TIP3    H174239   2.731   1.545  11.649 -1.6087 -0.5805  0.0726
17608TIP3    H274240   2.650   1.656  11.713 -0.9477 -0.3309  0.4816
17609TIP3   OH274241   0.024   2.642   0.581  0.2676  0.0044  0.2194
17609TIP3    H174242  -0.037   2.709   0.552 -1.4205 -1.6522 -0.2639
17609TIP3    H274243   0.017   2.642   0.676  0.1689  0.4018  0.2120
17610TIP3   OH274244   2.138   6.159  10.746  0.2720 -0.3820  0.1913
17610TIP3    H174245   2.129   6.096  10.817 -0.2588 -0.7062 -0.1644
17610TIP3    H274246   2.154   6.242  10.791 -1.0127 -0.4043  0.7404
17611TIP3   OH274247   6.427   1.981  11.667  0.9211 -1.1874 -0.2942
17611TIP3    H174248   6.434   1.919  11.594 -0.7930 -2.2959  0.4187
17611TIP3    H274249   6.414   2.066  11.625  0.9145 -1.6588 -1.2817
17612TIP3   OH274250   2.691   0.291  14.108  0.1679 -0.0431  0.2813
17612TIP3    H174251   2.668   0.305  14.200 -0.5544 -1.3055  0.3232
17612TIP3    H274252   2.608   0.270  14.066  0.7297 -1.2881 -0.2793
17613TIP3   OH274253   5.381   6.501  15.186 -0.2650 -0.8676  0.5244
17613TIP3    H174254   5.433   6.581  15.187 -2.1789  0.4531  0.3632
17613TIP3    H274255   5.397   6.462  15.100  0.8526 -0.7949  0.6910
17614TIP3   OH274256   1.753   0.556   1.681 -0.0849 -0.0307  0.8533
17614TIP3    H174257   1.660   0.564   1.701 -0.1524  0.4094  0.3659
17614TIP3    H274258   1.795   0.627   1.729 -0.1612  0.5776  0.0413
17615TIP3   OH274259   2.761   0.093   4.702 -0.3985 -0.0787 -0.0941
17615TIP3    H174260   2.715   0.012   4.725 -2.2772  0.9681  0.1066
17615TIP3    H274261   2.773   0.138   4.786 -0.8717  0.5792 -0.3709
17616TIP3   OH274262   0.145   1.895  15.723  0.1929 -0.6541  0.4908
17616TIP3    H174263   0.224   1.944  15.743  1.1742 -1.2886 -1.6179
17616TIP3    H274264   0.173   1.825  15.665 -2.1484  0.2198 -1.9265
17617TIP3   OH274265   1.024   1.441  14.625 -1.0200  0.3936  0.0127
17617TIP3    H174266   0.962   1.476  14.690 -1.5606 -1.9785  0.8817
17617TIP3    H274267   1.105   1.427  14.675 -0.9424  0.0513 -0.2066
17618TIP3   OH274268   2.386   0.472   1.424  0.0173 -0.8677 -0.1083
17618TIP3    H174269   2.317   0.536   1.436  0.0306 -1.0518  1.0809
17618TIP3    H274270   2.467   0.520   1.441  0.0953 -0.9668 -0.1943
17619TIP3   OH274271   5.601   3.416   1.386 -0.5139  0.0773 -0.0677
17619TIP3    H174272   5.512   3.382   1.381 -0.2571 -0.5182 -1.0267
17619TIP3    H274273   5.653   3.341   1.416 -0.3039  0.3418  0.2263
17620TIP3   OH274274   5.443   4.899   2.645 -0.7675 -0.2619  0.1514
17620TIP3    H174275   5.419   4.988   2.620 -1.6793 -0.3088  0.8010
17620TIP3    H274276   5.482   4.907   2.731 -1.9071 -0.5904  0.7281
17621TIP3   OH274277   2.771   3.091   3.999 -0.1346 -0.1198  0.0289
17621TIP3    H174278   2.862   3.064   4.014 -0.2906 -1.0207 -0.5669
17621TIP3    H274279   2.743   3.128   4.083  0.5284 -0.5956  0.4744
17622TIP3   OH274280   6.709   0.185   4.992 -0.6507 -0.1310  0.0325
17622TIP3    H174281   6.655   0.112   5.023  1.6433 -1.6555  0.6572
17622TIP3    H274282   6.704   0.179   4.896 -0.0037 -1.5174  0.0658
17623TIP3   OH274283   0.990   2.337  17.154 -0.3170  0.1798  0.2278
17623TIP3    H174284   1.065   2.364  17.101 -1.5415  0.5719 -1.3880
17623TIP3    H274285   0.974   2.246  17.129 -2.0585  0.9052 -1.6392
17624TIP3   OH274286   3.381   0.994  13.978  0.4364 -0.1202  0.1900
17624TIP3    H174287   3.340   1.025  13.898 -0.6055  0.5339  0.9426
17624TIP3    H274288   3.469   0.967  13.952 -0.1813 -0.7673 -1.3192
17625TIP3   OH274289   0.739   2.347   1.973  0.1029  0.2651  0.0390
17625TIP3    H174290   0.832   2.328   1.983  0.0237 -0.2044 -0.0693
17625TIP3    H274291   0.699   2.316   2.054  0.3059  2.4629  1.0555
17626TIP3   OH274292   3.225   3.783   2.557 -0.0965  0.1621 -0.5607
17626TIP3    H174293   3.309   3.813   2.591 -0.1617  0.4401 -0.6443
17626TIP3    H274294   3.184   3.736   2.630  0.9974 -1.7353 -1.0962
17627TIP3   OH274295   4.745   4.481  16.575 -0.4615  0.0476 -0.1160
17627TIP3    H174296   4.791   4.449  16.498 -0.3857 -0.8060  0.2764
17627TIP3    H274297   4.814   4.503  16.637 -0.4695  1.7267 -0.6365
17628TIP3   OH274298   4.692   2.104  15.233 -0.1098  0.3034 -0.4643
17628TIP3    H174299   4.777   2.143  15.256 -0.1779  0.3556 -0.2995
17628TIP3    H274300   4.709   2.057  15.151  0.5593 -1.2480  0.4976
17629TIP3   OH274301   4.197   5.289   3.295 -0.0935  1.1728  0.5571
17629TIP3    H174302   4.196   5.347   3.219 -1.6863  0.7271  0.1859
17629TIP3    H274303   4.106   5.286   3.324  0.2385  0.1920  1.5976
17630TIP3   OH274304   5.238   1.383  15.155 -0.0919  0.3215 -0.1495
17630TIP3    H174305   5.287   1.415  15.231  0.0386 -1.5005  0.5840
17630TIP3    H274306   5.198   1.301  15.185 -1.1383  0.2418 -1.6559
17631TIP3   OH274307   4.891   4.821  14.038 -0.5222  0.3962  0.3286
17631TIP3    H174308   4.918   4.886  13.974 -1.1021 -0.1485 -0.4854
17631TIP3    H274309   4.828   4.867  14.094  0.2383  0.9666  0.7247
17632TIP3   OH274310   0.699   4.958   3.428 -0.5424  0.0549  0.0514
17632TIP3    H174311   0.608   4.971   3.454 -0.7587  1.0587 -1.1449
17632TIP3    H274312   0.727   5.043   3.396  0.5257 -0.4906 -0.4968
17633TIP3   OH274313   3.032   0.154  12.493 -0.1205 -0.6815 -0.0685
17633TIP3    H174314   2.978   0.228  12.522 -0.7983 -0.9117 -0.7045
17633TIP3    H274315   2.969   0.083  12.479  0.1402 -0.5516 -2.1765
17634TIP3   OH274316   1.110   5.595  13.251 -0.5659  0.4752  0.2539
17634TIP3    H174317   1.132   5.584  13.158 -3.8640  1.2547 -0.7792
17634TIP3    H274318   1.193   5.612  13.294  1.2953 -1.3080 -2.2955
17635TIP3   OH274319   5.553   1.244  14.828 -0.2152 -0.3265 -0.0920
17635TIP3    H174320   5.559   1.198  14.745  1.7045  0.3635 -0.3819
17635TIP3    H274321   5.476   1.301  14.818 -1.6428 -2.1870 -0.3123
17636TIP3   OH274322   1.836   3.075  12.548  0.7246  0.2410  0.4901
17636TIP3    H174323   1.767   3.020  12.509  0.5248  1.0171 -0.2884
17636TIP3    H274324   1.819   3.072  12.642 -0.2397  0.2273  0.3266
17637TIP3   OH274325   0.705   3.339   0.475  0.2125 -0.4536  0.6084
17637TIP3    H174326   0.623   3.378   0.444  0.2563  1.7078  2.8130
17637TIP3    H274327   0.739   3.291   0.400 -1.3709  1.4377 -1.4765
17638TIP3   OH274328   1.665   2.402  15.553 -0.0237 -0.1146  0.2677
17638TIP3    H174329   1.574   2.380  15.572 -0.2386  0.4107 -0.1299
17638TIP3    H274330   1.672   2.397  15.458  0.5588 -0.8638  0.3354
17639TIP3   OH274331   5.976   5.547  14.230 -0.2923 -0.2340 -0.1301
17639TIP3    H174332   6.028   5.496  14.291  1.0688  0.8850 -0.2963
17639TIP3    H274333   6.037   5.569  14.159 -1.0232  0.9472 -0.4266
17640TIP3   OH274334   3.516   0.926  12.471 -0.4363 -0.0657 -0.3018
17640TIP3    H174335   3.452   0.991  12.498 -0.3755  0.6462 -1.7781
17640TIP3    H274336   3.466   0.864  12.418 -0.2792 -0.6263  0.1973
17641TIP3   OH274337   6.148   0.516  15.400 -0.2078  0.5044 -0.3862
17641TIP3    H174338   6.153   0.534  15.307 -1.6290  1.9783 -0.2287
17641TIP3    H274339   6.240   0.511  15.429  0.2454 -0.1398 -1.8576
17642TIP3   OH274340   6.052   0.552  16.659  0.4352 -0.4335  0.4850
17642TIP3    H174341   6.024   0.462  16.675 -0.4753 -0.2830 -0.1304
17642TIP3    H274342   6.076   0.587  16.745 -1.7839 -0.4342  1.1651
17643TIP3   OH274343   3.322   3.050   1.575 -0.7536  0.2559 -0.3093
17643TIP3    H174344   3.304   3.105   1.499 -0.1978 -0.6174 -1.0947
17643TIP3    H274345   3.243   2.997   1.586 -1.2172  1.0609  0.3356
17644TIP3   OH274346   4.260   6.740   2.022 -0.0220  0.1663  0.1019
17644TIP3    H174347   4.203   6.817   2.018  0.0073  0.1460 -1.4458
17644TIP3    H274348   4.215   6.674   1.968  1.6825  0.3557 -1.6835
17645TIP3   OH274349   1.662   6.076   1.068 -0.7113 -0.1971  0.7491
17645TIP3    H174350   1.741   6.103   1.114  0.3166  1.0446 -1.6047
17645TIP3    H274351   1.591   6.123   1.112 -0.0475 -0.5111  2.2032
17646TIP3   OH274352   3.249   4.996   3.471 -0.3237 -0.6601  0.5621
17646TIP3    H174353   3.278   5.019   3.383  0.5138  0.2211  1.0477
17646TIP3    H274354   3.180   4.931   3.458  0.5494 -1.3643 -0.7029
17647TIP3   OH274355   0.553   1.808   3.833  0.2205  0.0630  0.1366
17647TIP3    H174356   0.550   1.731   3.776 -2.0913  1.0359 -1.2041
17647TIP3    H274357   0.488   1.790   3.902  0.9663  0.0909  0.8670
17648TIP3   OH274358   0.245   0.787  11.548 -0.0564  0.1845  0.1312
17648TIP3    H174359   0.221   0.861  11.604 -1.4146  1.0472 -1.4792
17648TIP3    H274360   0.313   0.821  11.490  0.5059 -0.3512  0.4577
17649TIP3   OH274361   4.868   5.303   4.025 -0.1165  0.4094  0.0892
17649TIP3    H174362   4.946   5.342   4.064  1.6899 -1.6068 -1.3321
17649TIP3    H274363   4.869   5.212   4.054  0.2473 -0.6605 -2.9357
17650TIP3   OH274364   3.935   1.940   4.935 -0.4252 -0.1489  0.0403
17650TIP3    H174365   3.995   1.971   4.867  0.1902  0.1229  0.6944
17650TIP3    H274366   3.961   1.988   5.014 -1.1940 -0.3844  0.4505
17651TIP3   OH274367   5.400   5.434  16.030  0.2181  0.1210 -0.0252
17651TIP3    H174368   5.339   5.469  15.965 -0.9264 -0.8773  0.4901
17651TIP3    H274369   5.431   5.512  16.078  0.5884  0.7936 -1.3207
17652TIP3   OH274370   3.316   5.614   0.062 -0.1378  0.2387 -0.1683
17652TIP3    H174371   3.393   5.668   0.075  0.6746 -0.7771 -0.6705
17652TIP3    H274372   3.288   5.591   0.151  0.7673 -0.2389  0.0064
17653TIP3   OH274373   5.008   3.572   4.604 -0.1056 -0.3948  0.0895
17653TIP3    H174374   4.912   3.568   4.607 -0.2193 -2.0123 -2.4854
17653TIP3    H274375   5.036   3.490   4.645  0.0235 -0.8973 -0.9419
17654TIP3   OH274376   1.792   1.652   5.243 -0.1162  0.5889  0.5786
17654TIP3    H174377   1.877   1.655   5.287 -0.7012  1.6053  1.6934
17654TIP3    H274378   1.808   1.696   5.159  0.1278  2.2718  1.4526
17655TIP3   OH274379   4.150   5.557  14.882  0.0402 -0.3678 -0.0198
17655TIP3    H174380   4.214   5.557  14.953  0.2965 -2.1138 -0.2074
17655TIP3    H274381   4.172   5.634  14.830 -0.3317  1.1166  1.9091
17656TIP3   OH274382   0.726   5.261  12.135 -0.2336  0.0652 -0.4217
17656TIP3    H174383   0.645   5.290  12.176 -0.1412  1.5193 -1.2067
17656TIP3    H274384   0.700   5.189  12.077 -0.9066  0.3443 -0.4617
17657TIP3   OH274385   2.378   2.660   1.553  0.3950 -0.7927 -0.1585
17657TIP3    H174386   2.421   2.728   1.501 -0.7862 -0.8588 -1.2969
17657TIP3    H274387   2.284   2.677   1.541  0.0360 -0.3146  2.6742
17658TIP3   OH274388   1.042   4.300   0.209 -0.9838  0.2985 -0.2697
17658TIP3    H174389   0.950   4.324   0.203 -0.5554  3.1125  2.1448
17658TIP3    H274390   1.086   4.360   0.149 -0.6784 -1.1829 -1.5811
17659TIP3   OH274391   4.067   4.564   0.277 -0.0714  0.1473  0.2826
17659TIP3    H174392   4.146   4.513   0.262 -1.2753 -1.5946 -0.4805
17659TIP3    H274393   4.041   4.542   0.367 -1.0861 -1.3984 -0.3448
17660TIP3   OH274394   5.327   0.097   0.275 -0.0437 -0.7194 -0.1696
17660TIP3    H174395   5.341   0.104   0.370  2.1919  1.6014 -0.5669
17660TIP3    H274396   5.411   0.068   0.241 -0.4786 -0.4225 -1.5412
17661TIP3   OH274397   5.150   3.372  12.359  0.3391 -0.3163 -0.0124
17661TIP3    H174398   5.055   3.375  12.367  0.4800  0.3077  1.8885
17661TIP3    H274399   5.167   3.302  12.296 -1.4394  1.3902 -2.5871
17662TIP3   OH274400   4.890   4.002   3.159  0.2322  0.2220  0.3967
17662TIP3    H174401   4.944   4.010   3.238  0.8201  0.8478 -0.0509
17662TIP3    H274402   4.874   3.908   3.150  2.2402 -0.1209 -0.0818
17663TIP3   OH274403   2.074   4.256   6.421 -1.0100  0.4033  0.2990
17663TIP3    H174404   2.075   4.298   6.507  1.7353 -1.8334  1.5108
17663TIP3    H274405   2.153   4.287   6.378  0.9485 -2.9525  1.1106
17664TIP3   OH274406   2.879   4.636  11.385 -0.3815  0.3794  0.0259
17664TIP3    H174407   2.837   4.556  11.415 -1.4425  0.4913 -1.1256
17664TIP3    H274408   2.955   4.646  11.443 -0.4722 -1.2121  0.4575
17665TIP3   OH274409   5.300   4.593  16.901 -1.0161 -1.2118  0.4293
17665TIP3    H174410   5.378   4.539  16.888 -0.4762 -0.7032  1.4353
17665TIP3    H274411   5.227   4.531  16.906 -0.8364 -1.6495 -1.4532
17666TIP3   OH274412   5.171   2.798  16.396  0.0257 -0.2017  0.6005
17666TIP3    H174413   5.084   2.766  16.417 -0.4563  1.5795  1.4599
17666TIP3    H274414   5.193   2.859  16.466  3.4437 -3.0842  2.3701
17667TIP3   OH274415   3.421   0.269  15.661 -0.2821  0.0950  0.4102
17667TIP3    H174416   3.415   0.329  15.735  0.5154  1.2654 -0.4345
17667TIP3    H274417   3.336   0.276  15.617 -0.8698 -0.8358  1.3605
17668TIP3   OH274418   5.671   4.403  11.210  0.1153 -0.0265 -0.1525
17668TIP3    H174419   5.685   4.430  11.301 -0.9041  0.0078  0.0167
17668TIP3    H274420   5.758   4.385  11.176  0.3851 -3.0827  1.7841
17669TIP3   OH274421   0.869   0.630   1.023  0.0763 -0.2849  0.3860
17669TIP3    H174422   0.873   0.601   1.114  0.8676 -0.1055  0.4106
17669TIP3    H274423   0.780   0.665   1.014  0.3936  0.8952  1.4643
17670TIP3   OH274424   1.155   1.893  16.194 -0.3959  0.1018 -0.3595
17670TIP3    H174425   1.079   1.864  16.246  0.5861 -0.2180  0.9560
17670TIP3    H274426   1.140   1.856  16.107 -1.1175 -1.0727  0.2377
17671TIP3   OH274427   3.336   0.442  15.900  0.1439  0.5588  0.0049
17671TIP3    H174428   3.411   0.458  15.959  1.7950 -1.0512 -1.5384
17671TIP3    H274429   3.266   0.412  15.958  1.9926 -1.9122  1.1387
17672TIP3   OH274430   4.893   0.334  15.839  0.0702  0.3124  0.0949
17672TIP3    H174431   4.881   0.419  15.880  0.4325  0.2138  0.4091
17672TIP3    H274432   4.899   0.273  15.912  0.3864  0.0916 -0.1133
17673TIP3   OH274433   3.623   4.270  15.512 -0.1448  0.2525 -0.3370
17673TIP3    H174434   3.591   4.344  15.563 -2.2570 -0.7080 -0.1539
17673TIP3    H274435   3.661   4.210  15.576 -0.8936 -0.0131 -0.1319
17674TIP3   OH274436   6.371   2.043   2.073  0.2590 -0.1412 -0.6673
17674TIP3    H174437   6.294   2.099   2.083  0.9365  0.4519  1.6746
17674TIP3    H274438   6.385   2.040   1.978 -2.1652  0.3374 -1.1316
17675TIP3   OH274439   1.177   0.685   3.340  0.0979 -0.1404 -0.0626
17675TIP3    H174440   1.163   0.598   3.302  2.3151 -0.9678  0.8518
17675TIP3    H274441   1.268   0.706   3.318 -0.8744  2.8049 -1.8194
17676TIP3   OH274442   1.848   1.057   0.621  0.0098  0.3582  0.1859
17676TIP3    H174443   1.768   1.098   0.588  0.0223  0.0612 -0.2283
17676TIP3    H274444   1.817   0.993   0.685 -0.1649 -0.3930 -0.6221
17677TIP3   OH274445   1.422   3.648   4.928  0.0691 -0.2347  0.6427
17677TIP3    H174446   1.497   3.703   4.950  1.4398 -0.5441 -2.6386
17677TIP3    H274447   1.461   3.563   4.904 -1.3149 -0.5376 -0.6909
17678TIP3   OH274448   6.283   6.360  11.588  0.0260 -0.5477 -0.1470
17678TIP3    H174449   6.317   6.445  11.560 -1.2126 -0.4808 -1.5959
17678TIP3    H274450   6.312   6.300  11.519  2.4897 -1.7472  1.7715
17679TIP3   OH274451   5.153   3.623   4.372 -0.8084 -0.0473 -0.5009
17679TIP3    H174452   5.172   3.533   4.346 -2.6552 -0.0531 -2.0800
17679TIP3    H274453   5.104   3.615   4.454  1.0210 -0.3051  0.6166
17680TIP3   OH274454   1.342   0.663   5.799 -0.5680 -0.7227 -0.1123
17680TIP3    H174455   1.338   0.576   5.839 -1.8450 -1.0956 -0.9676
17680TIP3    H274456   1.292   0.719   5.859 -0.2508 -0.7091  0.1393
17681TIP3   OH274457   3.715   5.268   3.889 -0.0401  0.0574 -0.1071
17681TIP3    H174458   3.737   5.324   3.964 -1.6552 -0.9889  1.1998
17681TIP3    H274459   3.754   5.183   3.911 -0.6602 -0.2960 -0.3542
17682TIP3   OH274460   3.134   6.336   6.342  0.4135 -0.0728  0.5011
17682TIP3    H174461   3.145   6.401   6.273 -2.1477 -0.4955 -0.3873
17682TIP3    H274462   3.142   6.386   6.423 -0.1756  1.1277 -0.1566
17683TIP3   OH274463   0.081   6.469   5.834 -0.2752 -0.0223  0.3428
17683TIP3    H174464  -0.010   6.444   5.850 -0.2460 -0.3358  0.0324
17683TIP3    H274465   0.109   6.509   5.916 -0.2033 -1.3890  1.0166
17684TIP3   OH274466   4.461   0.038  14.573  0.8781 -0.4423 -0.8555
17684TIP3    H174467   4.473   0.133  14.572  1.7106 -0.5442 -1.0598
17684TIP3    H274468   4.498   0.009  14.656 -1.0177 -0.4119  0.0711
17685TIP3   OH274469   5.216   6.771  12.267 -0.0778  0.4814 -0.2928
17685TIP3    H174470   5.235   6.699  12.327 -0.3844 -0.1478 -0.9334
17685TIP3    H274471   5.193   6.729  12.185  2.6245  1.3298 -1.6180
17686TIP3   OH274472   0.952   1.980  11.892 -0.7875 -0.0111 -0.3379
17686TIP3    H174473   0.898   2.039  11.945 -0.6440  0.1400 -0.3601
17686TIP3    H274474   0.949   1.896  11.938  0.5369  0.4917  0.7059
17687TIP3   OH274475   1.349   0.587   1.084 -0.8221 -0.3678  0.3466
17687TIP3    H174476   1.324   0.525   1.153  2.1062  0.4083  2.2722
17687TIP3    H274477   1.277   0.650   1.083 -2.0021 -1.6182  1.0968
17688TIP3   OH274478   0.574   4.165   3.477 -0.0433 -0.1014 -0.1132
17688TIP3    H174479   0.483   4.162   3.449 -0.6156 -1.4101  1.6704
17688TIP3    H274480   0.623   4.130   3.403 -0.8520  1.3990 -1.4152
17689TIP3   OH274481   3.934   2.581  17.158  0.3938 -0.0668  0.0863
17689TIP3    H174482   3.988   2.535  17.094 -0.6676 -0.7243 -0.3805
17689TIP3    H274483   3.947   2.533  17.240  0.4095 -0.3059 -0.0546
17690TIP3   OH274484   3.368   3.981  12.864 -0.0005  0.5711 -0.5720
17690TIP3    H174485   3.375   4.047  12.933  1.4034  0.8442 -0.9295
17690TIP3    H274486   3.276   3.981  12.839 -0.3213  1.2494  0.5289
17691TIP3   OH274487   5.678   3.947  14.411  0.0270  0.2463  0.1214
17691TIP3    H174488   5.598   3.902  14.439  1.3698 -1.5852  1.2497
17691TIP3    H274489   5.685   4.023  14.469 -0.0666 -0.4987  1.1240
17692TIP3   OH274490   1.032   3.814   5.200  0.0349 -0.1307  0.0104
17692TIP3    H174491   1.122   3.781   5.193  0.1525  0.1516  0.1308
17692TIP3    H274492   0.978   3.746   5.160  0.3551 -0.0549 -0.5709
17693TIP3   OH274493   3.058   2.816  14.532  0.1587 -0.5501 -0.2408
17693TIP3    H174494   3.072   2.895  14.481  0.8319 -0.2992  0.3236
17693TIP3    H274495   2.964   2.798  14.522 -0.2822  1.0710  0.7090
17694TIP3   OH274496   0.926   0.492  13.620 -0.0681  0.2419  0.0534
17694TIP3    H174497   0.834   0.520  13.624  0.1244  1.0354 -0.8592
17694TIP3    H274498   0.922   0.397  13.626 -0.8647  0.3342  1.3226
17695TIP3   OH274499   3.371   5.442  13.133  0.4597 -0.0633 -0.4385
17695TIP3    H174500   3.387   5.393  13.052 -0.1580  0.0580 -0.6380
17695TIP3    H274501   3.401   5.531  13.114 -1.5574  0.4865 -1.2450
17696TIP3   OH274502   0.953   5.131  16.991  0.1618 -0.0313  0.1450
17696TIP3    H174503   0.921   5.219  17.011 -1.5362 -0.7510  0.8455
17696TIP3    H274504   0.910   5.108  16.909  1.4440  0.1676 -0.6073
17697TIP3   OH274505   2.584   3.202   0.748 -0.1115 -0.7248  0.5537
17697TIP3    H174506   2.514   3.140   0.727  2.5224 -2.8251 -3.3654
17697TIP3    H274507   2.632   3.160   0.819 -0.7084 -1.0957  0.7501
17698TIP3   OH274508   1.043   6.756   0.287  0.4087 -0.0275 -0.0353
17698TIP3    H174509   1.050   6.664   0.313 -2.1467  0.2803  2.0074
17698TIP3    H274510   1.022   6.752   0.194  0.9020 -1.4631 -0.1206
17699TIP3   OH274511   6.419   5.187  15.914  0.1572 -0.2392  0.2774
17699TIP3    H174512   6.456   5.210  15.829  1.7607 -1.0318  0.7350
17699TIP3    H274513   6.420   5.092  15.916 -0.2047 -0.2369  1.0499
17700TIP3   OH274514   0.870   4.224   2.447 -0.1847 -1.3768 -0.3733
17700TIP3    H174515   0.820   4.185   2.520  0.4053 -0.6015  0.4675
17700TIP3    H274516   0.955   4.246   2.485 -1.0200  2.3471 -0.2567
17701TIP3   OH274517   4.490   3.378  12.558  0.5462 -0.3415 -0.2346
17701TIP3    H174518   4.503   3.472  12.543 -0.6587 -0.0891  0.2394
17701TIP3    H274519   4.555   3.355  12.625  0.7663  0.1736 -0.2689
17702TIP3   OH274520   0.906   2.856   2.435 -0.1144  0.2880  0.5163
17702TIP3    H174521   0.814   2.883   2.437 -0.1780  0.2353 -0.6665
17702TIP3    H274522   0.904   2.764   2.408  0.3062  0.5738 -0.5717
17703TIP3   OH274523   6.300   1.703  10.838 -0.1589  0.2619  0.3214
17703TIP3    H174524   6.340   1.616  10.836  1.3507  0.8904  1.2114
17703TIP3    H274525   6.217   1.690  10.883 -0.2385 -0.8155 -0.0958
17704TIP3   OH274526   0.329   1.156  15.088  0.3558 -0.2374 -0.3603
17704TIP3    H174527   0.259   1.179  15.149  2.1207 -1.6078  2.3704
17704TIP3    H274528   0.377   1.238  15.074 -1.4161  0.6123 -1.9143
17705TIP3   OH274529   4.217   4.410   2.375 -0.4290 -0.0004  0.0163
17705TIP3    H174530   4.215   4.324   2.418  0.3379 -0.9900 -1.8032
17705TIP3    H274531   4.142   4.408   2.315 -0.9682  0.9973  0.6413
17706TIP3   OH274532   2.669   5.972  12.015 -0.0389 -0.3704 -0.2995
17706TIP3    H174533   2.738   5.907  12.026  0.5234  0.2881  0.1013
17706TIP3    H274534   2.605   5.951  12.083 -0.0990 -0.7994 -0.4847
17707TIP3   OH274535   2.012   5.161   4.079 -0.5776  0.6386 -0.2431
17707TIP3    H174536   1.944   5.137   4.016 -0.0481 -1.0015 -0.2178
17707TIP3    H274537   1.980   5.244   4.117 -2.9639 -0.4393  0.3188
17708TIP3   OH274538   0.011   0.676  11.431  0.7206  0.1307 -0.2205
17708TIP3    H174539   0.101   0.703  11.449  0.7965 -0.4669  0.3678
17708TIP3    H274540  -0.031   0.754  11.397  1.3050  0.5842  0.0683
17709TIP3   OH274541   4.977   4.491  16.718 -0.2578 -0.1079 -0.1824
17709TIP3    H174542   4.934   4.458  16.797 -0.6153 -0.9529 -0.7097
17709TIP3    H274543   5.036   4.421  16.691 -2.7846 -1.5024 -2.6852
17710TIP3   OH274544   2.872   5.319   3.113  0.5563 -0.1467 -0.0046
17710TIP3    H174545   2.843   5.328   3.023  1.5654 -0.5258 -0.3882
17710TIP3    H274546   2.968   5.325   3.108  0.7685 -2.0276  0.7806
17711TIP3   OH274547   0.247   3.467   1.659 -0.0753  0.2782  0.5521
17711TIP3    H174548   0.307   3.518   1.604  0.5954 -1.0221  0.0400
17711TIP3    H274549   0.167   3.520   1.663  0.7484  1.5696  0.4128
17712TIP3   OH274550   1.421   6.497  15.201 -0.1505  0.7636  0.0585
17712TIP3    H174551   1.342   6.529  15.157 -0.1819  0.5444 -0.0464
17712TIP3    H274552   1.390   6.428  15.260  0.0933 -0.1225 -0.8185
17713TIP3   OH274553   5.121   2.582   3.062 -0.1486  0.2303 -0.0442
17713TIP3    H174554   5.109   2.588   2.968  1.6985  0.0915 -0.3354
17713TIP3    H274555   5.037   2.551   3.096 -1.3824  1.8468 -1.4264
17714TIP3   OH274556   0.270   0.332  13.625  0.5192  0.1600  0.4090
17714TIP3    H174557   0.235   0.330  13.536 -0.2426 -0.2068  0.7087
17714TIP3    H274558   0.247   0.419  13.658 -1.6271 -0.6253  1.1729
17715TIP3   OH274559   4.817   5.454  13.287 -0.0727  0.4354  0.4058
17715TIP3    H174560   4.867   5.465  13.206  1.4892  1.5762  1.4506
17715TIP3    H274561   4.775   5.539  13.300 -1.3346 -0.1388  0.1727
17716TIP3   OH274562   5.259   5.437   0.289 -0.0311  0.0670  0.0494
17716TIP3    H174563   5.324   5.368   0.298  0.4009  0.5821  1.2480
17716TIP3    H274564   5.283   5.484   0.209  1.6837  0.8249  0.9627
17717TIP3   OH274565   4.070   4.121   3.765 -0.4899  0.5165 -0.1639
17717TIP3    H174566   4.047   4.117   3.857  0.6113 -1.0465  0.0931
17717TIP3    H274567   4.046   4.034   3.731  1.5843  0.0872 -0.6815
17718TIP3   OH274568   6.776   2.410   1.772 -0.5458  0.0165 -0.4068
17718TIP3    H174569   6.682   2.416   1.755 -0.6165  2.5562  0.5712
17718TIP3    H274570   6.815   2.404   1.685 -1.5831 -2.2436 -0.8113
17719TIP3   OH274571   1.794   3.838   3.675 -0.2330 -0.4388  0.3049
17719TIP3    H174572   1.834   3.780   3.610 -0.7320 -0.2840 -0.1501
17719TIP3    H274573   1.824   3.804   3.759 -0.1840 -1.1038  0.0263
17720TIP3   OH274574   3.343   4.145   0.688 -0.4911  0.1052 -0.1420
17720TIP3    H174575   3.434   4.118   0.696 -0.1615  0.3614 -2.2784
17720TIP3    H274576   3.324   4.192   0.769  1.8831  1.7206 -0.4148
17721TIP3   OH274577   3.454   4.614  10.865 -0.3691  0.3224 -0.3591
17721TIP3    H174578   3.462   4.535  10.812 -0.7797 -0.4657  0.7114
17721TIP3    H274579   3.361   4.619  10.886 -0.1235  0.2885  0.7716
17722TIP3   OH274580   5.844   1.829   1.425  0.1279 -0.4169  0.0567
17722TIP3    H174581   5.878   1.905   1.377 -1.0730  0.6861  0.8550
17722TIP3    H274582   5.772   1.797   1.371 -1.0120  0.6242  0.8909
17723TIP3   OH274583   1.379   2.358   5.399  0.1592  0.6032 -0.3042
17723TIP3    H174584   1.445   2.342   5.466  0.4772 -0.9242 -0.9485
17723TIP3    H274585   1.428   2.390   5.324  0.9068 -4.1713 -2.1821
17724TIP3   OH274586   4.759   5.019  11.168  0.9370 -0.0621  0.3292
17724TIP3    H174587   4.699   4.950  11.197  1.4237 -0.1519  1.1591
17724TIP3    H274588   4.832   4.972  11.127  1.6589 -0.1017  1.6216
17725TIP3   OH274589   5.508   4.066  12.377  0.0461 -0.1616 -0.0967
17725TIP3    H174590   5.520   4.151  12.335  1.7115 -0.2308  0.1963
17725TIP3    H274591   5.414   4.063  12.399 -0.1497  1.3291 -0.6563
17726TIP3   OH274592   2.999   1.164  14.748 -0.0695 -0.3368  0.0100
17726TIP3    H174593   2.924   1.109  14.771  0.2415 -0.7941 -0.0667
17726TIP3    H274594   2.985   1.184  14.655  0.5568 -1.4888 -0.3613
17727TIP3   OH274595   2.571   4.258  16.217 -0.1582  0.0115 -0.3219
17727TIP3    H174596   2.485   4.280  16.182 -0.6717 -0.6724  0.4751
17727TIP3    H274597   2.604   4.189  16.159  0.4835  1.2680 -1.4795
17728TIP3   OH274598   5.922   2.804   2.463 -0.4251  0.2063  0.0681
17728TIP3    H174599   5.918   2.737   2.531  0.0904  0.4398  0.3347
17728TIP3    H274600   5.971   2.764   2.391 -0.3513  0.2058  0.1191
17729TIP3   OH274601   0.760   6.290   2.230  0.7213  0.0313 -1.0255
17729TIP3    H174602   0.722   6.296   2.317 -1.6253 -0.1083 -1.9530
17729TIP3    H274603   0.729   6.369   2.185  0.8020 -0.5251 -2.0925
17730TIP3   OH274604   2.532   1.497   5.933 -0.4078 -0.5105  0.3087
17730TIP3    H174605   2.491   1.570   5.980  0.1446  0.8186 -1.1675
17730TIP3    H274606   2.499   1.419   5.976  0.1836  0.5971  2.9941
17731TIP3   OH274607   4.364   2.228   2.869 -0.3085  0.0740 -0.0891
17731TIP3    H174608   4.338   2.173   2.794  0.4258 -0.2008 -0.1519
17731TIP3    H274609   4.443   2.272   2.839  0.8167 -1.1176  1.0139
17732TIP3   OH274610   2.230   6.102  16.595 -0.1004 -0.0551  0.4083
17732TIP3    H174611   2.269   6.027  16.551  0.7599 -0.1954  1.3630
17732TIP3    H274612   2.273   6.104  16.680  0.2072  1.7722  0.2465
17733TIP3   OH274613   2.203   4.507   0.497 -0.0999  0.1714 -0.4774
17733TIP3    H174614   2.119   4.506   0.451 -0.8226  1.2376  0.7688
17733TIP3    H274615   2.183   4.539   0.585  1.4781 -0.4181  0.1389
17734TIP3   OH274616   1.179   4.632  15.786 -0.3907  0.1378 -0.1179
17734TIP3    H174617   1.204   4.634  15.694 -0.3434 -0.4163 -0.1201
17734TIP3    H274618   1.086   4.654  15.786 -0.0796  1.5936 -0.1638
17735TIP3   OH274619   4.719   4.196   1.182  0.0396  0.4328  0.7445
17735TIP3    H174620   4.805   4.196   1.223 -0.4670 -0.5092  1.8825
17735TIP3    H274621   4.708   4.106   1.150 -0.6359  0.4684  0.8655
17736TIP3   OH274622   0.320   0.855  16.125 -0.1849 -0.2109  0.7843
17736TIP3    H174623   0.293   0.883  16.038  0.9286  1.8683  1.0568
17736TIP3    H274624   0.399   0.802  16.110 -0.5445 -0.6605  0.4707
17737TIP3   OH274625   2.816   0.020  13.937 -0.3812 -0.4163  0.5786
17737TIP3    H174626   2.793   0.109  13.912 -2.1158 -0.7077  0.9663
17737TIP3    H274627   2.863  -0.015  13.862 -1.3493  0.2226 -0.3526
17738TIP3   OH274628   6.714   1.506   4.319 -0.1496  0.2174 -0.0373
17738TIP3    H174629   6.676   1.534   4.236 -0.8885 -0.7518 -0.0360
17738TIP3    H274630   6.793   1.457   4.295  0.0503  0.5791 -0.1257
17739TIP3   OH274631   2.579   3.899  11.042  0.1053  0.1423  0.1385
17739TIP3    H174632   2.542   3.955  10.974  1.3666  1.8213  0.7745
17739TIP3    H274633   2.650   3.851  10.998 -0.5684 -0.5301 -0.2493
17740TIP3   OH274634   5.353   2.163   0.678  0.2481 -0.3913  0.2791
17740TIP3    H174635   5.389   2.160   0.767  1.5743  2.6336 -0.0301
17740TIP3    H274636   5.275   2.219   0.686 -0.3992 -1.1884 -0.2800
17741TIP3   OH274637   0.075   4.102   3.491  0.3027  0.4069 -0.1743
17741TIP3    H174638  -0.011   4.143   3.476 -0.1087 -1.1149 -2.4522
17741TIP3    H274639   0.072   4.074   3.582 -0.9845  1.7683  0.2545
17742TIP3   OH274640   6.119   3.469   3.632 -0.4236 -0.3531 -0.9489
17742TIP3    H174641   6.204   3.511   3.615 -0.4300 -0.5109 -1.4009
17742TIP3    H274642   6.054   3.532   3.600 -0.4328 -0.6949 -1.6303
17743TIP3   OH274643   2.668   6.365  16.407  0.3183 -0.0081  0.0414
17743TIP3    H174644   2.732   6.325  16.347  2.1118 -0.9528  2.4253
17743TIP3    H274645   2.709   6.447  16.434 -0.3226  0.2558  0.2390
17744TIP3   OH274646   1.289   4.978   0.932  0.1158  0.4121 -0.0796
17744TIP3    H174647   1.315   5.044   0.996 -0.8324  0.5606  0.1639
17744TIP3    H274648   1.285   5.025   0.849  1.2978  0.2302 -0.2600
17745TIP3   OH274649   5.334   4.186  12.157  0.1688  0.0994 -0.0522
17745TIP3    H174650   5.338   4.251  12.226 -0.2136 -0.6030  0.6419
17745TIP3    H274651   5.272   4.121  12.188  1.1161 -1.0074 -0.3754
17746TIP3   OH274652   4.941   0.710  11.083 -0.3019  0.1057  0.2656
17746TIP3    H174653   4.873   0.777  11.081 -1.0268 -0.5956  0.9707
17746TIP3    H274654   5.005   0.739  11.017 -0.8468  1.2159  0.2030
17747TIP3   OH274655   4.508   0.979  15.286  0.0932  0.1723  0.1985
17747TIP3    H174656   4.482   1.058  15.238  1.2119  1.1535  1.1301
17747TIP3    H274657   4.479   0.995  15.376  2.8736  0.9259  1.0806
17748TIP3   OH274658   5.916   2.263  15.469  0.5445 -0.0994  0.2689
17748TIP3    H174659   5.871   2.193  15.516 -0.1146 -0.4840 -0.8990
17748TIP3    H274660   5.977   2.218  15.411  2.0012  0.3949  1.3474
17749TIP3   OH274661   2.833   6.255  16.231 -0.0286  0.0381  0.4356
17749TIP3    H174662   2.855   6.163  16.248  1.7595  0.8345  3.3026
17749TIP3    H274663   2.858   6.270  16.140  2.0243 -1.7581  0.6241
17750TIP3   OH274664   4.466   1.568  13.989  0.0462  0.1101  0.3614
17750TIP3    H174665   4.466   1.534  14.078  2.6133 -0.7000  0.1278
17750TIP3    H274666   4.477   1.491  13.933  1.4022  0.8332 -0.4478
17751TIP3   OH274667   0.658   0.626   0.367 -0.2348 -0.6368  0.2751
17751TIP3    H174668   0.584   0.573   0.337  0.0310  0.2412 -2.1425
17751TIP3    H274669   0.733   0.567   0.365 -0.6404 -1.2391  1.6907
17752TIP3   OH274670   5.878   5.672   1.928  0.1786  0.0268 -0.0310
17752TIP3    H174671   5.875   5.736   1.857  0.1393  1.1055  0.9053
17752TIP3    H274672   5.957   5.694   1.977 -0.0357 -0.3958  0.5183
17753TIP3   OH274673   2.584   2.815   4.153 -0.3038 -0.1581 -0.0498
17753TIP3    H174674   2.528   2.788   4.226 -0.2024 -1.3155 -0.3741
17753TIP3    H274675   2.669   2.834   4.194  0.0555 -1.8161  0.0350
17754TIP3   OH274676   1.056   2.714  13.189 -0.8053 -0.1570 -0.4397
17754TIP3    H174677   0.975   2.743  13.231 -0.2627  1.3487 -0.3683
17754TIP3    H274678   1.125   2.761  13.236 -0.0159 -0.1210 -1.5914
17755TIP3   OH274679   0.097   4.395  11.553  0.6958 -0.3613 -0.1207
17755TIP3    H174680   0.090   4.312  11.507  0.8385  0.6009 -1.9695
17755TIP3    H274681   0.142   4.374  11.635  0.5478 -2.1163 -0.4631
17756TIP3   OH274682   0.824   5.529   1.727 -0.0055  0.2582 -0.1426
17756TIP3    H174683   0.779   5.514   1.809 -0.3854 -1.4443 -0.6312
17756TIP3    H274684   0.880   5.605   1.744 -0.2254  0.0634  1.6015
17757TIP3   OH274685   3.835   5.741   3.906  0.0472 -0.0559  0.0330
17757TIP3    H174686   3.927   5.726   3.882  0.2942  3.5781 -2.0377
17757TIP3    H274687   3.839   5.774   3.996  0.5500 -1.2357  0.4696
17758TIP3   OH274688   5.501   0.471   2.076 -0.2150  0.2874  1.0012
17758TIP3    H174689   5.412   0.434   2.077 -0.1878  0.0221 -0.9755
17758TIP3    H274690   5.493   0.549   2.021  0.9161 -0.1913  0.1190
17759TIP3   OH274691   5.837   2.936   1.853  0.7744 -0.3311  0.2652
17759TIP3    H174692   5.932   2.941   1.840  0.5760 -0.3557 -1.3919
17759TIP3    H274693   5.822   2.848   1.886  1.2723 -0.5373 -0.0397
17760TIP3   OH274694   1.762   5.080  15.765  0.0047 -0.1643 -0.1638
17760TIP3    H174695   1.811   5.151  15.724 -0.1048 -0.0640 -0.1188
17760TIP3    H274696   1.722   5.119  15.842  2.4957 -0.9793  1.6763
17761TIP3   OH274697   4.508   4.169  16.318  0.0552  0.2319 -0.1842
17761TIP3    H174698   4.446   4.130  16.256 -0.1096  0.7596 -0.3538
17761TIP3    H274699   4.478   4.139  16.403  2.9851 -4.5759 -0.4281
17762TIP3   OH274700   5.020   5.327   0.243  0.6769  0.3265 -0.5529
17762TIP3    H174701   5.066   5.244   0.231  1.4417  0.3717  1.5651
17762TIP3    H274702   5.090   5.390   0.261 -0.0670  0.7291  1.1370
17763TIP3   OH274703   2.229   1.795  11.047  0.1461 -0.2516  0.6996
17763TIP3    H174704   2.197   1.721  11.099  0.6546 -1.2405 -0.3647
17763TIP3    H274705   2.151   1.829  11.003  0.1202 -0.9925  0.1628
17764TIP3   OH274706   0.965   1.623  13.949 -0.1606 -0.2380 -0.4763
17764TIP3    H174707   0.993   1.705  13.988  1.6807 -1.0737  0.0795
17764TIP3    H274708   0.964   1.641  13.855  0.8201  0.2811 -0.4089
17765TIP3   OH274709   5.488   1.973   0.229 -0.5108 -0.4093  0.2836
17765TIP3    H174710   5.434   1.898   0.253 -1.8588  0.9277  1.5753
17765TIP3    H274711   5.449   2.047   0.275  3.0655  0.4846  2.2129
17766TIP3   OH274712   4.209   1.060   1.065  0.3361 -0.2146 -0.2333
17766TIP3    H174713   4.119   1.033   1.083  0.4018 -0.3266 -0.0749
17766TIP3    H274714   4.221   1.042   0.972  0.7283 -1.7413  0.0878
17767TIP3   OH274715   2.061   2.981   3.414  0.2318  0.2293 -0.0072
17767TIP3    H174716   2.154   2.969   3.431  0.1818  1.2447  1.1614
17767TIP3    H274717   2.039   2.915   3.348  1.1101 -2.1741  1.9540
17768TIP3   OH274718   4.941   3.103   5.697 -0.1409 -0.2882 -0.0107
17768TIP3    H174719   4.967   3.013   5.714  1.4391  0.1765  0.1607
17768TIP3    H274720   5.022   3.147   5.671 -1.1606  0.7037 -1.7048
17769TIP3   OH274721   2.713   2.173   5.910  0.4885  0.0879  0.6455
17769TIP3    H174722   2.755   2.095   5.873  2.4553  0.9074  1.0179
17769TIP3    H274723   2.783   2.216   5.959 -0.5658  2.0767  0.4855
17770TIP3   OH274724   3.080   4.810   5.725 -0.0745  0.1379 -0.1269
17770TIP3    H174725   2.995   4.767   5.734  0.1036 -0.3325 -0.6679
17770TIP3    H274726   3.064   4.900   5.754 -0.6219 -0.0910  0.3091
17771TIP3   OH274727   0.091   1.056   1.839  0.4229 -0.4026  0.0566
17771TIP3    H174728   0.056   1.144   1.856  1.7297  0.3334 -0.9001
17771TIP3    H274729   0.030   0.997   1.884 -0.1271  1.0188  1.2617
17772TIP3   OH274730   3.394   2.082   0.139  0.1105 -0.1167  0.2724
17772TIP3    H174731   3.311   2.083   0.187  1.0125  0.5377  1.8604
17772TIP3    H274732   3.425   1.992   0.147 -0.7573 -0.5424 -0.9213
17773TIP3   OH274733   2.874   2.514   5.903 -0.1358  0.3917 -0.6015
17773TIP3    H174734   2.888   2.470   5.820  0.5317  0.4153 -0.5098
17773TIP3    H274735   2.796   2.472   5.940 -0.1739  0.0755 -1.0361
17774TIP3   OH274736   2.295   0.099  16.954 -0.3698 -0.8872  0.4778
17774TIP3    H174737   2.312   0.074  17.045  0.2072 -1.6202  0.1737
17774TIP3    H274738   2.376   0.141  16.925 -0.0158 -1.9515 -0.1318
17775TIP3   OH274739   3.905   2.473  15.274  0.1051  0.0615  0.4073
17775TIP3    H174740   3.913   2.378  15.280 -0.5597  0.0188  0.7884
17775TIP3    H274741   3.871   2.489  15.186  1.5895  0.0592 -0.1925
17776TIP3   OH274742   1.098   3.443   6.046 -0.2976 -0.5055 -0.4254
17776TIP3    H174743   1.013   3.441   6.002 -0.0812  1.9296 -1.0812
17776TIP3    H274744   1.084   3.495   6.125  0.6694  0.3962 -0.8207
17777TIP3   OH274745   2.369   4.409   3.897  0.4979 -0.3026  0.0613
17777TIP3    H174746   2.406   4.351   3.831  1.9221  2.1411 -1.4347
17777TIP3    H274747   2.439   4.420   3.961  0.7824  0.8514 -0.4281
17778TIP3   OH274748   3.678   0.603  17.264  0.6891 -0.3462  0.5941
17778TIP3    H174749   3.627   0.586  17.185  0.0539  0.1296  0.8888
17778TIP3    H274750   3.745   0.535  17.265  0.2524 -0.7926  0.0307
17779TIP3   OH274751   1.781   0.723  17.174  0.5081  0.1584 -0.1644
17779TIP3    H174752   1.831   0.752  17.098 -0.5044 -0.8221 -1.2481
17779TIP3    H274753   1.842   0.670  17.225  0.3790 -1.8041 -1.9401
17780TIP3   OH274754   2.839   1.466   3.073 -0.0980  0.2787 -0.3087
17780TIP3    H174755   2.929   1.497   3.082  0.4330 -0.5770 -2.1032
17780TIP3    H274756   2.844   1.395   3.009 -1.9765 -0.1471 -0.0501
17781TIP3   OH274757   3.275   0.350   0.714 -0.1974 -0.0774 -0.7711
17781TIP3    H174758   3.268   0.269   0.663  3.8960 -0.6264 -0.7468
17781TIP3    H274759   3.277   0.320   0.805  1.4821 -0.0057 -0.7698
17782TIP3   OH274760   2.355   1.594  17.144 -0.4393  0.0817 -0.0228
17782TIP3    H174761   2.272   1.596  17.097  0.3777 -0.5018 -1.5510
17782TIP3    H274762   2.409   1.659  17.099  0.1001  0.1070  0.6482
17783TIP3   OH274763   6.140   4.505   1.984 -0.0961  0.4951  0.1916
17783TIP3    H174764   6.233   4.500   1.964  0.0564  0.6529  0.8685
17783TIP3    H274765   6.134   4.560   2.062 -0.6727 -0.2702  0.6990
17784TIP3   OH274766   1.840   4.059  12.541 -0.0405  0.5287  0.0989
17784TIP3    H174767   1.872   3.984  12.492 -5.4457 -1.4270 -1.1682
17784TIP3    H274768   1.838   4.131  12.478  1.2489  0.6187  0.1325
17785TIP3   OH274769   3.747   4.581  11.433 -0.0312 -0.1023 -0.0440
17785TIP3    H174770   3.790   4.553  11.352  0.4941  0.2958  0.0885
17785TIP3    H274771   3.784   4.524  11.500 -1.3555 -1.2363 -0.2548
17786TIP3   OH274772   6.667   3.850  11.127  0.7429 -0.5071 -0.6050
17786TIP3    H174773   6.677   3.817  11.217 -0.0663  2.6268  0.7893
17786TIP3    H274774   6.750   3.828  11.084  0.0324 -4.7976 -0.2023
17787TIP3   OH274775   2.965   2.976  13.591  0.4777 -0.0417 -0.2817
17787TIP3    H174776   2.917   2.933  13.662  0.9303  1.8911  1.3181
17787TIP3    H274777   2.926   2.942  13.511  0.4282 -2.8824  0.8473
17788TIP3   OH274778   0.856   4.166  13.423  0.3140  0.5786  0.0656
17788TIP3    H174779   0.889   4.255  13.408  3.7371 -0.4425  0.7793
17788TIP3    H274780   0.922   4.109  13.384 -1.1422 -1.7041  0.7590
17789TIP3   OH274781   2.296   4.736  15.469 -0.6627 -0.2793 -0.1785
17789TIP3    H174782   2.299   4.802  15.400 -0.0351 -0.0284  0.0923
17789TIP3    H274783   2.240   4.774  15.537  1.5706  0.9932  1.0290
17790TIP3   OH274784   2.261   6.487  13.256  0.0111 -0.1616 -0.3152
17790TIP3    H174785   2.238   6.394  13.246 -0.0476 -0.2484  0.5909
17790TIP3    H274786   2.290   6.495  13.347 -0.4240  0.8017 -0.2531
17791TIP3   OH274787   0.146   1.753   1.288 -0.1759  0.1112 -0.0893
17791TIP3    H174788   0.162   1.679   1.229  0.5093  0.4916 -0.3926
17791TIP3    H274789   0.053   1.747   1.309 -0.8334  0.8421 -2.4382
17792TIP3   OH274790   2.746   1.302  13.297 -0.1849 -0.1275  0.6229
17792TIP3    H174791   2.811   1.339  13.356  1.0963 -0.1341 -0.7275
17792TIP3    H274792   2.705   1.378  13.256 -0.5250 -0.1387  0.9365
17793TIP3   OH274793   1.159   1.512   0.078  0.0123 -0.2659  0.1887
17793TIP3    H174794   1.149   1.446   0.146 -2.8486  1.4459  1.5843
17793TIP3    H274795   1.089   1.493   0.016  0.9221 -0.1708 -0.9142
17794TIP3   OH274796   0.411   1.705  14.334  0.7564 -0.1082  0.0173
17794TIP3    H174797   0.437   1.769  14.400 -0.4915  0.7346 -0.2714
17794TIP3    H274798   0.382   1.629  14.384 -0.4189  0.6148  0.4797
17795TIP3   OH274799   6.029   0.280  14.500 -0.2754 -0.3412  0.0974
17795TIP3    H174800   6.056   0.324  14.581  0.8176  1.1382 -1.0135
17795TIP3    H274801   6.073   0.195  14.504  1.7413  0.6335  0.0125
17796TIP3   OH274802   0.517   0.580  15.402  0.0577  0.3438  0.0194
17796TIP3    H174803   0.493   0.646  15.337 -0.4493  1.7072  1.5086
17796TIP3    H274804   0.436   0.533  15.421 -0.7746  2.4079  2.2496
17797TIP3   OH274805   6.086   1.970   5.130  0.1112 -0.4298 -0.2336
17797TIP3    H174806   6.126   1.892   5.168  0.1263 -1.0912 -1.5322
17797TIP3    H274807   6.020   1.996   5.193  2.1708  0.3773  1.7352
17798TIP3   OH274808   4.115   2.124  14.553 -0.6416  0.4555 -0.1714
17798TIP3    H174809   4.029   2.098  14.587  0.2005 -0.7573  1.1197
17798TIP3    H274810   4.171   2.049  14.570  0.8612  1.5081 -0.3303
17799TIP3   OH274811   5.851   2.026  14.991 -0.1970  0.4404  0.2100
17799TIP3    H174812   5.784   1.969  15.029 -1.1673  0.1964 -1.7073
17799TIP3    H274813   5.910   1.966  14.945 -0.1667  0.8405 -0.2808
17800TIP3   OH274814   2.414   1.244  13.644  0.1013  0.3684  0.1169
17800TIP3    H174815   2.443   1.302  13.573  0.8353  0.0583  0.1528
17800TIP3    H274816   2.449   1.285  13.723  0.8336 -0.2336  0.1222
17801TIP3   OH274817   1.506   4.694   5.323 -0.0815 -0.1592  0.2918
17801TIP3    H174818   1.445   4.633   5.365  2.0871 -2.2077  0.7418
17801TIP3    H274819   1.455   4.737   5.255 -1.9786 -1.8778  0.5279
17802TIP3   OH274820   3.953   1.015   4.520 -0.0827 -0.0367 -0.0190
17802TIP3    H174821   3.907   1.001   4.602  0.3820  2.9020  0.8538
17802TIP3    H274822   3.918   1.097   4.486 -0.0517 -1.0059 -2.6656
17803TIP3   OH274823   6.086   3.626   3.393 -0.0765  0.0712  0.1067
17803TIP3    H174824   6.171   3.599   3.428 -0.3182  1.3778  1.8449
17803TIP3    H274825   6.046   3.544   3.361  0.7042 -1.0372  1.8044
17804TIP3   OH274826   3.178   5.977  13.753  0.6156 -0.0808  0.8508
17804TIP3    H174827   3.208   5.992  13.842  0.8055 -0.4448  0.8495
17804TIP3    H274828   3.257   5.982  13.699  0.8411 -1.9122  0.9483
17805TIP3   OH274829   3.519   5.662   4.626 -0.2099  0.2885  0.6612
17805TIP3    H174830   3.470   5.581   4.641  3.3627 -2.0880  0.7352
17805TIP3    H274831   3.509   5.711   4.708  1.6470 -2.5799  2.8070
17806TIP3   OH274832   6.629   5.989  15.282 -0.0870 -0.1392  0.0623
17806TIP3    H174833   6.662   5.944  15.204  1.6295 -1.1210  1.2956
17806TIP3    H274834   6.609   6.078  15.252  3.1753  0.3767 -0.9843
17807TIP3   OH274835   3.223   0.319  11.776 -0.1657 -0.4251 -0.3134
17807TIP3    H174836   3.195   0.360  11.858 -2.2421 -1.5401 -0.4118
17807TIP3    H274837   3.308   0.281  11.796 -0.4556 -0.3348  1.1989
17808TIP3   OH274838   3.117   4.563  12.335  0.8144  0.2062 -0.0060
17808TIP3    H174839   3.047   4.499  12.349  0.9859  0.2287  1.0232
17808TIP3    H274840   3.075   4.648  12.345  0.5223  0.2870 -1.6749
17809TIP3   OH274841   2.921   1.251   2.907 -1.1164 -0.6693 -0.3356
17809TIP3    H174842   2.998   1.229   2.854  0.1939  3.5251 -0.5460
17809TIP3    H274843   2.849   1.252   2.845 -0.3491  0.2512 -1.2431
17810TIP3   OH274844   2.176   5.470   2.630 -0.5833 -0.8670  0.4366
17810TIP3    H174845   2.214   5.436   2.549  1.2222  1.4932  0.1845
17810TIP3    H274846   2.102   5.524   2.601 -1.7338 -2.3059  0.6224
17811TIP3   OH274847   0.037   0.270  10.493  0.3137  0.0718  0.2562
17811TIP3    H174848  -0.033   0.219  10.453 -0.9610  0.0673  2.3243
17811TIP3    H274849  -0.007   0.349  10.527  1.3014  0.1048  1.5358
17812TIP3   OH274850   3.638   5.583  15.441 -0.2452  0.3101  0.1851
17812TIP3    H174851   3.600   5.516  15.384  0.5721 -0.2504  0.2844
17812TIP3    H274852   3.711   5.619  15.390 -0.4608  0.8902  0.2721
17813TIP3   OH274853   6.662   1.188  11.261  0.7440  0.4566 -0.2023
17813TIP3    H174854   6.632   1.190  11.352 -3.9877  0.7572 -1.4600
17813TIP3    H274855   6.670   1.280  11.236 -1.2454  0.5148 -0.8299
17814TIP3   OH274856   5.505   3.864   4.265  0.4412 -0.2952 -0.3121
17814TIP3    H174857   5.486   3.771   4.277  1.2172 -0.3378  0.7330
17814TIP3    H274858   5.500   3.901   4.353  2.7419  0.1280 -0.3006
17815TIP3   OH274859   0.959   4.508  17.216 -0.0162  0.3562  0.1357
17815TIP3    H174860   0.945   4.510  17.121  1.9585  0.3674 -0.1930
17815TIP3    H274861   0.871   4.509  17.253 -0.8426 -0.2357 -1.7000
17816TIP3   OH274862   1.800   5.996   6.326  0.3047 -0.3030  0.0061
17816TIP3    H174863   1.817   5.928   6.260 -0.5145 -0.3946 -0.1286
17816TIP3    H274864   1.838   6.075   6.289  1.3573 -0.6973  0.2064
17817TIP3   OH274865   1.680   4.120  17.180  0.1626  0.3662  0.6761
17817TIP3    H174866   1.642   4.063  17.246 -0.1173 -0.3936 -0.1140
17817TIP3    H274867   1.748   4.066  17.138 -1.1475  0.0224 -1.1243
17818TIP3   OH274868   6.422   3.707  15.506 -0.0537 -0.1002 -0.7274
17818TIP3    H174869   6.448   3.729  15.596  0.3884 -1.8554 -0.3990
17818TIP3    H274870   6.327   3.691  15.512  0.0080 -0.3996 -0.5312
17819TIP3   OH274871   2.371   4.132   0.883  0.4685  0.8021  0.0793
17819TIP3    H174872   2.332   4.045   0.874 -1.2293  1.7027 -2.1198
17819TIP3    H274873   2.428   4.141   0.807  0.4791  1.6768  0.1765
17820TIP3   OH274874   6.238   6.660  15.880  0.2737  0.0110 -0.8990
17820TIP3    H174875   6.215   6.605  15.955  1.4867 -0.9642 -1.2080
17820TIP3    H274876   6.212   6.749  15.907 -0.2107 -0.4611  0.2731
17821TIP3   OH274877   3.820   1.143   0.873  0.1896  0.4637  0.2980
17821TIP3    H174878   3.876   1.206   0.826  0.0080  0.2931 -0.1503
17821TIP3    H274879   3.806   1.072   0.810  0.0907  0.1464  0.6759
17822TIP3   OH274880   1.715   4.726  11.514 -0.3913 -1.3701  0.0028
17822TIP3    H174881   1.699   4.793  11.580  0.2969 -2.5171  1.4065
17822TIP3    H274882   1.631   4.715  11.469 -0.5353  0.3286 -0.1951
17823TIP3   OH274883   0.660   1.055  11.396 -0.2004  0.4027 -0.0798
17823TIP3    H174884   0.677   1.130  11.339  1.0382  1.0866  1.1043
17823TIP3    H274885   0.641   1.095  11.482 -2.3196 -0.5765 -0.0341
17824TIP3   OH274886   4.664   3.555  15.198  0.3609  0.1294 -0.1283
17824TIP3    H174887   4.751   3.542  15.161  1.0473 -0.7634  1.6625
17824TIP3    H274888   4.621   3.470  15.189  0.7960 -0.3308  1.6123
17825TIP3   OH274889   1.678   0.431   0.835 -0.5157 -0.1864 -0.5578
17825TIP3    H174890   1.732   0.377   0.777 -0.8580 -0.9321 -0.1883
17825TIP3    H274891   1.736   0.453   0.908 -0.3709 -0.0271 -0.7184
17826TIP3   OH274892   3.852   1.430  16.706  0.2345  0.3128 -0.3357
17826TIP3    H174893   3.821   1.446  16.617 -0.1355  0.1574 -0.2384
17826TIP3    H274894   3.831   1.338  16.723  0.6511  0.2384 -0.2280
17827TIP3   OH274895   2.205   0.992  16.503 -0.4687  0.1779 -0.1001
17827TIP3    H174896   2.173   0.915  16.550  0.0544 -1.2566 -2.0039
17827TIP3    H274897   2.226   1.055  16.573  2.3364 -2.5831  1.8300
17828TIP3   OH274898   5.871   4.079  17.217 -0.1448  0.0534 -0.1228
17828TIP3    H174899   5.850   4.165  17.253 -0.0638  0.2641 -0.5761
17828TIP3    H274900   5.787   4.044  17.188 -0.3249 -0.4329  0.9399
17829TIP3   OH274901   0.567   0.607  11.622 -0.1588  0.0531 -0.0608
17829TIP3    H174902   0.477   0.589  11.648  0.4778 -2.3183  0.7376
17829TIP3    H274903   0.571   0.580  11.530 -0.0162 -1.0252  0.2394
17830TIP3   OH274904   1.952   3.883   5.324  0.0650 -0.2437 -0.8839
17830TIP3    H174905   2.046   3.878   5.305  0.1733 -0.2503 -0.3753
17830TIP3    H274906   1.942   3.831   5.404  0.2096  2.4660  1.0604
17831TIP3   OH274907   2.890   5.591   5.721  0.0389  0.5889  0.1581
17831TIP3    H174908   2.918   5.578   5.811  1.0277 -1.7345 -0.3875
17831TIP3    H274909   2.968   5.571   5.669 -0.8861  0.4446 -1.2243
17832TIP3   OH274910   3.876   6.353  11.960  0.0294  0.5682 -0.0404
17832TIP3    H174911   3.972   6.350  11.958  0.0299 -1.7586 -2.7910
17832TIP3    H274912   3.853   6.433  11.913  0.6072  0.7680  0.0084
17833TIP3   OH274913   6.326   2.615  13.855  0.7962  0.2535 -0.0514
17833TIP3    H174914   6.299   2.525  13.837  1.3703 -0.3993  2.0297
17833TIP3    H274915   6.289   2.666  13.783 -2.1792 -1.1853  0.2995
17834TIP3   OH274916   5.228   3.779   2.385  0.1715  0.5137  0.6970
17834TIP3    H174917   5.275   3.703   2.348 -2.4716 -0.9901  0.1607
17834TIP3    H274918   5.200   3.829   2.308  0.8361  1.4068  1.0148
17835TIP3   OH274919   4.449   3.041   2.003 -0.0750 -0.3600  0.5879
17835TIP3    H174920   4.388   3.042   2.077 -0.3575 -1.1378  0.3756
17835TIP3    H274921   4.397   3.009   1.929 -0.1360  1.5895 -0.2653
17836TIP3   OH274922   0.681   4.019  13.155 -0.1168 -0.0192  0.1084
17836TIP3    H174923   0.768   4.034  13.191 -0.4122  3.2537 -0.1836
17836TIP3    H274924   0.644   4.107  13.144 -2.2088 -1.0873 -2.8637
17837TIP3   OH274925   3.958   2.899   0.514 -0.2414  0.5088  0.2215
17837TIP3    H174926   3.999   2.942   0.589  1.4787  0.4487 -0.6360
17837TIP3    H274927   3.935   2.971   0.455  1.3939  0.4096 -0.6036
17838TIP3   OH274928   2.985   1.242   1.751 -0.3241 -0.0291  0.1885
17838TIP3    H174929   2.900   1.209   1.723 -0.4217  0.6960 -0.4160
17838TIP3    H274930   3.033   1.257   1.670 -0.2912  1.2763  0.4272
17839TIP3   OH274931   6.255   4.302  12.232 -0.0568  0.1815  0.6298
17839TIP3    H174932   6.261   4.248  12.153 -0.0815  0.2872  0.5551
17839TIP3    H274933   6.273   4.241  12.304  1.5941  0.4139  0.4502
17840TIP3   OH274934   2.176   4.669   0.156  0.6437  0.2555 -0.0009
17840TIP3    H174935   2.238   4.603   0.185  0.7665  0.1962 -0.3940
17840TIP3    H274936   2.090   4.633   0.178  0.6051 -0.8003 -1.7013
17841TIP3   OH274937   2.154   1.857   5.709 -0.1575  0.2170 -0.3518
17841TIP3    H174938   2.097   1.786   5.739 -1.3490  1.2968  0.0148
17841TIP3    H274939   2.164   1.914   5.785 -0.6868  1.3733 -1.1117
17842TIP3   OH274940   0.138   4.074   3.004 -0.7475 -0.0129 -0.1580
17842TIP3    H174941   0.211   4.128   3.033 -0.4196 -0.6137  0.1732
17842TIP3    H274942   0.160   3.986   3.036 -0.3253 -0.7574 -2.2939
17843TIP3   OH274943   3.469   6.374  12.948  0.7477 -0.1343 -0.0480
17843TIP3    H174944   3.470   6.406  12.857  0.5447  0.2509  0.0811
17843TIP3    H274945   3.379   6.343  12.961  0.6281  0.2886  0.1778
17844TIP3   OH274946   3.589   2.192   5.397 -0.6156 -0.4434 -0.5107
17844TIP3    H174947   3.585   2.219   5.305  0.0867 -0.1882 -0.4782
17844TIP3    H274948   3.620   2.270   5.443  0.8476 -1.0949 -0.3300
17845TIP3   OH274949   3.843   1.765   3.507  0.0958  0.3934  0.6244
17845TIP3    H174950   3.925   1.722   3.532  0.7601  1.7552  0.8856
17845TIP3    H274951   3.812   1.715   3.432 -1.0271 -2.7431  2.9147
17846TIP3   OH274952   6.330   2.583   1.558  0.5314 -0.3896 -0.0964
17846TIP3    H174953   6.413   2.541   1.537  0.3580 -0.1978 -1.2437
17846TIP3    H274954   6.326   2.583   1.654  3.6497  3.0644  0.2400
17847TIP3   OH274955   5.924   4.880   2.696 -0.0221  0.2166 -0.4349
17847TIP3    H174956   5.992   4.946   2.689  0.6702 -0.5052 -0.7049
17847TIP3    H274957   5.864   4.900   2.624  1.3861 -0.7692 -1.9571
17848TIP3   OH274958   2.562   6.710   0.176 -0.2083 -0.1707 -0.2698
17848TIP3    H174959   2.568   6.687   0.083 -0.4485 -0.3194 -0.2482
17848TIP3    H274960   2.560   6.805   0.177 -1.7617 -0.1757 -0.5139
17849TIP3   OH274961   4.112   3.430  15.257  0.0987 -0.2113  0.9364
17849TIP3    H174962   4.195   3.467  15.287 -0.0051 -0.5262  1.6327
17849TIP3    H274963   4.137   3.346  15.217  0.1850  0.0001  0.5363
17850TIP3   OH274964   3.321   4.391  11.957  0.0346  0.2816 -0.4405
17850TIP3    H174965   3.231   4.423  11.966 -1.0117 -1.8948 -2.2661
17850TIP3    H274966   3.317   4.299  11.982  1.9958  0.3836  0.4018
17851TIP3   OH274967   0.335   1.296   1.373  0.3323 -0.5067  0.1153
17851TIP3    H174968   0.393   1.249   1.312  1.0459  0.4605  0.0161
17851TIP3    H274969   0.300   1.368   1.321 -0.3369 -0.6210  0.4060
17852TIP3   OH274970   3.523   1.860   0.160 -0.4590 -0.8356  0.1729
17852TIP3    H174971   3.618   1.864   0.152 -0.5664  2.1108 -0.4856
17852TIP3    H274972   3.506   1.772   0.196  2.3381 -2.1095 -1.3062
17853TIP3   OH274973   2.507   4.586  17.013 -0.2019 -0.3221 -0.3379
17853TIP3    H174974   2.431   4.535  16.985 -1.2479  0.5896  0.6989
17853TIP3    H274975   2.569   4.521  17.047 -0.8638 -1.0206 -0.4490
17854TIP3   OH274976   3.217   1.527   3.505  0.2943  0.0976  0.1288
17854TIP3    H174977   3.279   1.457   3.483  0.6292  0.8094 -1.3353
17854TIP3    H274978   3.255   1.568   3.583 -0.2227 -1.6904  1.3655
17855TIP3   OH274979   0.293   4.161  16.228 -0.3582 -0.0219  0.5274
17855TIP3    H174980   0.329   4.238  16.185 -0.8293 -1.0829 -1.9160
17855TIP3    H274981   0.220   4.134  16.172 -1.6615 -0.9566  2.5509
17856TIP3   OH274982   6.753   0.065   5.390 -0.2314 -0.3689  0.0858
17856TIP3    H174983   6.823   0.037   5.449 -0.5150  1.8670  1.5698
17856TIP3    H274984   6.677   0.013   5.417 -0.5789  1.2021  2.3361
17857TIP3   OH274985   2.828   1.048   4.565  0.4743  0.2286 -0.0570
17857TIP3    H174986   2.834   0.966   4.614 -0.9453 -0.5141 -1.0482
17857TIP3    H274987   2.906   1.097   4.590  0.1557 -0.3869  2.4062
17858TIP3   OH274988   0.338   5.154  16.859 -0.2128  0.3130 -0.1034
17858TIP3    H174989   0.365   5.062  16.868  0.2956  0.4070 -0.6521
17858TIP3    H274990   0.293   5.173  16.942 -0.6859 -0.5547 -0.1449
17859TIP3   OH274991   1.132   4.600   4.859  0.9026 -0.1428  0.4979
17859TIP3    H174992   1.080   4.545   4.917  0.3786  3.2891  3.6514
17859TIP3    H274993   1.221   4.566   4.867  0.1778 -2.3720 -0.2193
17860TIP3   OH274994   3.816   2.524  15.024  0.0572  0.3371 -0.3165
17860TIP3    H174995   3.877   2.596  15.008 -0.1233  0.8399  1.0655
17860TIP3    H274996   3.731   2.559  14.999 -0.2070  1.0760  1.4328
17861TIP3   OH274997   2.413   5.112   2.466  0.6036 -0.5353  0.0611
17861TIP3    H174998   2.324   5.100   2.433 -0.0968  1.0054  1.2090
17861TIP3    H274999   2.434   5.203   2.444  1.2322 -0.3757  1.2316
17862TIP3   OH275000   1.292   1.303   0.399 -0.3805 -0.0503 -0.1477
17862TIP3    H175001   1.356   1.241   0.363 -0.0637  0.8016 -1.0830
17862TIP3    H275002   1.207   1.268   0.371 -0.1872  0.1035 -0.9473
17863TIP3   OH275003   3.464   5.817   0.307  0.0002 -0.3548  0.1684
17863TIP3    H175004   3.459   5.855   0.219  1.1669 -1.0643 -0.2244
17863TIP3    H275005   3.427   5.730   0.298  0.1467 -0.4385  0.3806
17864TIP3   OH275006   6.076   3.779   2.651  0.6263 -0.3408 -0.7733
17864TIP3    H175007   6.081   3.866   2.691 -0.3667  0.7950 -2.9837
17864TIP3    H275008   6.011   3.733   2.704  0.0912  0.7537 -0.4351
17865TIP3   OH275009   2.960   3.470   4.933 -0.3262 -0.5795  0.1680
17865TIP3    H175010   2.957   3.566   4.932 -0.9029 -0.5346  2.0418
17865TIP3    H275011   3.048   3.450   4.966 -0.0754 -0.7171 -0.5705
17866TIP3   OH275012   0.301   4.151   3.350 -0.2061  0.2322 -0.3429
17866TIP3    H175013   0.216   4.140   3.393 -1.0530 -0.8241 -2.1525
17866TIP3    H275014   0.300   4.241   3.318 -1.1876 -0.1116 -1.3597
17867TIP3   OH275015   0.301   6.163  11.112  0.0142 -0.1457 -0.1316
17867TIP3    H175016   0.381   6.115  11.090 -1.6106 -3.3243  0.2131
17867TIP3    H275017   0.295   6.156  11.208 -0.6506  0.0094 -0.1558
17868TIP3   OH275018   2.060   3.105  12.374  0.1538  0.2212  0.4570
17868TIP3    H175019   2.065   3.026  12.320  0.8227  1.7051 -1.8075
17868TIP3    H275020   1.982   3.092  12.428 -0.9688 -1.1220 -1.3453
17869TIP3   OH275021   3.077   5.806   0.407 -0.1524 -0.2739 -0.3735
17869TIP3    H175022   3.034   5.888   0.380 -2.7421 -1.6278 -0.6928
17869TIP3    H275023   3.039   5.787   0.493  2.2503  0.0335  0.8282
17870TIP3   OH275024   4.272   5.793  13.614  0.1574  0.4539 -0.0981
17870TIP3    H175025   4.185   5.757  13.626  0.5644 -0.3369  0.6092
17870TIP3    H275026   4.264   5.885  13.637 -0.1830  0.0629  1.4553
17871TIP3   OH275027   3.692   4.504   1.371 -0.4340 -0.4301  0.1406
17871TIP3    H175028   3.711   4.570   1.305  0.3058 -0.2229  0.5518
17871TIP3    H275029   3.645   4.552   1.440 -0.8024 -0.5516 -0.0222
17872TIP3   OH275030   4.439   6.037  14.776  0.9965  0.5114  0.5722
17872TIP3    H175031   4.484   6.054  14.694  0.8384 -0.4001  0.2866
17872TIP3    H275032   4.502   5.984  14.827  0.2950 -0.7111  0.1975
17873TIP3   OH275033   5.481   3.467   5.794 -0.0580 -0.1718  0.2976
17873TIP3    H175034   5.422   3.415   5.847 -0.9266 -0.3684 -0.8353
17873TIP3    H275035   5.498   3.546   5.847 -1.6134  0.0514  0.4919
17874TIP3   OH275036   6.368   5.335   2.874 -0.3933 -0.1184  0.3095
17874TIP3    H175037   6.286   5.370   2.909 -0.0375  0.7371  0.2984
17874TIP3    H275038   6.355   5.335   2.779 -1.0499 -1.6761  0.3764
17875TIP3   OH275039   0.531   2.775  13.729  0.5403  0.6992  0.1305
17875TIP3    H175040   0.466   2.721  13.775 -1.4598  1.0338 -2.1265
17875TIP3    H275041   0.569   2.716  13.664  1.8660  0.7750  0.8066
17876TIP3   OH275042   0.500   3.602  12.232 -0.2813 -0.1858  0.1665
17876TIP3    H175043   0.559   3.561  12.296  0.4490 -0.6848 -0.8045
17876TIP3    H275044   0.533   3.692  12.223 -0.8785  0.1356  1.0730
17877TIP3   OH275045   1.607   5.912  16.226  0.1977 -0.4189 -0.1449
17877TIP3    H175046   1.595   5.836  16.169 -0.9595 -1.1007  0.9602
17877TIP3    H275047   1.656   5.975  16.172  2.5209 -2.4753 -0.6085
17878TIP3   OH275048   1.949   5.994  16.139 -0.2441  0.1818  0.2014
17878TIP3    H175049   2.015   6.062  16.132  0.0333 -0.2145 -1.2881
17878TIP3    H275050   1.976   5.927  16.077 -2.9250  0.7847 -1.8104
17879TIP3   OH275051   0.695   3.941   4.007  0.0788  0.5797 -0.1843
17879TIP3    H175052   0.773   3.903   3.967 -0.4830 -1.2602  0.3596
17879TIP3    H275053   0.709   4.036   4.003  1.1887  0.3733 -2.3512
17880TIP3   OH275054   0.750   4.701  16.016  0.2614 -0.1165  0.4866
17880TIP3    H175055   0.826   4.704  15.958 -0.0803  0.9291  0.0695
17880TIP3    H275056   0.676   4.686  15.957  0.2173 -2.2945  0.9979
17881TIP3   OH275057   4.568   6.626  11.454  0.3755 -0.6148  0.3251
17881TIP3    H175058   4.555   6.717  11.482  2.0242  0.0176 -0.7932
17881TIP3    H275059   4.482   6.586  11.463 -1.1187  1.7998 -1.6959
17882TIP3   OH275060   4.737   0.937   5.793 -0.2579 -0.0807 -0.0412
17882TIP3    H175061   4.803   0.889   5.844  1.7839  0.0855 -2.3162
17882TIP3    H275062   4.741   1.026   5.827  0.8356 -0.0452 -0.1989
17883TIP3   OH275063   5.438   4.024  12.981  0.2417 -0.0477  0.6928
17883TIP3    H175064   5.346   4.046  12.998  0.7066  1.6191  1.1302
17883TIP3    H275065   5.484   4.045  13.062  1.0902 -0.4487  0.3281
17884TIP3   OH275066   0.726   6.442   0.179  0.6350  0.1325  0.2661
17884TIP3    H175067   0.680   6.505   0.234  0.3562 -1.0409  1.4428
17884TIP3    H275068   0.800   6.490   0.144  1.0555  0.8459  2.0058
17885TIP3   OH275069   5.071   6.281   5.888  0.3646 -0.2560 -0.0290
17885TIP3    H175070   5.005   6.333   5.841 -0.2619 -1.1419 -0.1659
17885TIP3    H275071   5.024   6.247   5.965  0.2075 -2.0325 -0.8452
17886TIP3   OH275072   0.580   4.466   5.429  0.2336  0.3059  0.5489
17886TIP3    H175073   0.515   4.398   5.449 -0.2578  0.6924  0.2865
17886TIP3    H275074   0.567   4.532   5.498  1.1053 -0.1267  1.1489
17887TIP3   OH275075   3.497   2.735  11.376 -0.4009 -0.0430  0.2591
17887TIP3    H175076   3.551   2.815  11.380 -0.2490 -0.1448  0.2736
17887TIP3    H275077   3.524   2.685  11.454 -0.4793 -0.1181  0.2375
17888TIP3   OH275078   2.782   1.440  12.336 -0.1242  0.5158 -0.4902
17888TIP3    H175079   2.820   1.482  12.414 -0.7429  1.1895 -0.5468
17888TIP3    H275080   2.709   1.388  12.370  1.7215 -2.0884 -0.1550
17889TIP3   OH275081   2.435   2.256   2.924  0.0040  0.4738  0.3468
17889TIP3    H175082   2.453   2.177   2.975 -0.4814  0.2382  0.1520
17889TIP3    H275083   2.521   2.298   2.914  0.6126 -1.0308 -1.2480
17890TIP3   OH275084   3.576   0.928  17.233 -0.1981 -0.0441  0.2810
17890TIP3    H175085   3.572   0.857  17.170 -0.1291 -0.3349  0.6023
17890TIP3    H275086   3.586   1.007  17.180 -0.2856 -0.2728 -0.0771
17891TIP3   OH275087   6.614   1.519   1.121 -0.3928 -0.2180 -0.2715
17891TIP3    H175088   6.705   1.510   1.149  0.0081 -0.7414 -1.6606
17891TIP3    H275089   6.602   1.451   1.055 -2.4655 -1.6542  1.4449
17892TIP3   OH275090   1.577   1.365   5.753 -0.0413 -0.1764  0.1600
17892TIP3    H175091   1.533   1.284   5.778  1.4187 -0.5765  1.6569
17892TIP3    H275092   1.629   1.389   5.831  2.6356  0.0457 -1.5594
17893TIP3   OH275093   6.137   3.779   4.127 -0.1989  0.3501 -0.2378
17893TIP3    H175094   6.149   3.802   4.219  1.8885  0.0288 -0.3807
17893TIP3    H275095   6.214   3.815   4.083 -0.7558 -0.2077 -1.7422
17894TIP3   OH275096   1.789   1.191  15.651 -0.0219  0.4013 -0.8001
17894TIP3    H175097   1.729   1.196  15.576 -0.0886  1.7887 -0.6760
17894TIP3    H275098   1.739   1.146  15.719  0.6260 -2.4991 -2.1011
17895TIP3   OH275099   2.311   2.059   3.982 -0.1838  0.5063  0.4027
17895TIP3    H175100   2.268   2.118   4.044  0.3864  0.7398  0.5869
17895TIP3    H275101   2.315   1.975   4.027 -4.1730 -0.7580 -1.1377
17896TIP3   OH275102   5.999   3.267  14.726 -0.6110  0.3263  0.4990
17896TIP3    H175103   6.065   3.208  14.764 -0.3641 -0.6560 -1.3702
17896TIP3    H275104   5.960   3.310  14.802  1.2453 -0.0539  1.7512
17897TIP3   OH275105   5.873   6.060   1.076 -0.1352  0.4637 -0.1616
17897TIP3    H175106   5.842   6.001   1.007  1.2604 -0.0497 -0.3879
17897TIP3    H275107   5.957   6.023   1.103 -0.8886  0.3337  2.2269
17898TIP3   OH275108   0.065   6.367   2.527 -0.1815  0.3291 -0.0064
17898TIP3    H175109   0.047   6.459   2.548 -1.0373 -0.0243  0.8868
17898TIP3    H275110   0.158   6.356   2.546 -0.6247  0.3565  2.5222
17899TIP3   OH275111   3.740   3.592   0.110 -0.5345 -0.1008 -0.4851
17899TIP3    H175112   3.766   3.664   0.052 -0.2569  0.6987  0.5913
17899TIP3    H275113   3.682   3.633   0.174  0.2842 -0.6511  0.6400
17900TIP3   OH275114   6.376   0.361  16.516  0.2041 -0.3799 -0.2045
17900TIP3    H175115   6.342   0.436  16.467 -0.7194  0.5547  1.7537
17900TIP3    H275116   6.469   0.377  16.525 -0.0885  0.9144  0.7585
17901TIP3   OH275117   2.612   6.780  16.245  0.0936  0.0948 -0.1820
17901TIP3    H175118   2.691   6.832  16.231  0.3854 -0.3104 -0.0566
17901TIP3    H275119   2.613   6.758  16.338 -0.2644  0.2420 -0.1405
17902TIP3   OH275120   3.156   4.690   1.208 -0.1096  0.0414  0.2460
17902TIP3    H175121   3.186   4.702   1.117 -1.0708  2.8834  0.1861
17902TIP3    H275122   3.233   4.708   1.261 -0.0568  0.6036 -0.0086
17903TIP3   OH275123   5.796   1.421  14.494  0.6433  0.2145  0.6071
17903TIP3    H175124   5.731   1.356  14.467 -0.1656  1.0087  0.5962
17903TIP3    H275125   5.861   1.420  14.423 -0.2419  0.6068 -0.2446
17904TIP3   OH275126   5.083   1.535  12.359 -0.6285  0.1532  0.1574
17904TIP3    H175127   5.102   1.547  12.452 -1.9052  1.0210  0.3244
17904TIP3    H275128   5.113   1.446  12.340  0.1451  0.1575  1.2589
17905TIP3   OH275129   5.255   3.934   3.525 -0.9395 -0.0958 -0.4131
17905TIP3    H175130   5.223   3.844   3.540  1.9639 -1.1646 -0.0504
17905TIP3    H275131   5.239   3.979   3.608 -1.4430 -0.5712 -0.2410
17906TIP3   OH275132   6.254   6.712   1.323 -0.0512  0.4428 -0.0559
17906TIP3    H175133   6.312   6.773   1.369 -0.5744  2.1642 -1.5302
17906TIP3    H275134   6.311   6.639   1.297  0.9873  1.1004  0.3152
17907TIP3   OH275135   4.522   1.979   5.568  0.0334  0.5274  0.0372
17907TIP3    H175136   4.454   1.952   5.629  1.1897 -1.9346  0.3602
17907TIP3    H275137   4.604   1.949   5.609  0.9606 -0.0662 -2.1360
17908TIP3   OH275138   1.576   0.709  12.764  0.1785  0.3489  0.6468
17908TIP3    H175139   1.647   0.738  12.822  1.1919  2.1086 -1.2953
17908TIP3    H275140   1.496   0.730  12.811  0.9485  2.4545  1.1286
17909TIP3   OH275141   2.087   3.270   3.442  0.0708 -0.2839  0.6310
17909TIP3    H175142   2.041   3.186   3.447 -0.5239 -0.0597 -0.6122
17909TIP3    H275143   2.033   3.324   3.384  0.6282  0.8462  1.1282
17910TIP3   OH275144   4.209   4.676  15.037  0.3931  0.7150 -0.0159
17910TIP3    H175145   4.271   4.738  15.000  1.7555 -0.3897  0.3613
17910TIP3    H275146   4.260   4.624  15.099 -1.1098  0.3535  0.9773
17911TIP3   OH275147   6.243   5.401  14.664  0.5582  0.8517 -0.0668
17911TIP3    H175148   6.313   5.459  14.633  2.6292 -1.0987  0.7171
17911TIP3    H275149   6.271   5.375  14.752 -1.3437  0.2535  0.4078
17912TIP3   OH275150   4.307   0.057  12.190  0.3537 -0.1493  0.1310
17912TIP3    H175151   4.369   0.039  12.260  1.0216  2.2794  0.2310
17912TIP3    H275152   4.223   0.071  12.235  0.1374 -1.3640  0.1575
17913TIP3   OH275153   2.054   4.265  10.912  0.6701 -0.2102  0.3580
17913TIP3    H175154   2.099   4.282  10.829 -0.7846 -3.1986 -1.1781
17913TIP3    H275155   1.981   4.326  10.913  0.2446 -0.6579 -0.9966
17914TIP3   OH275156   0.025   5.315  11.138 -0.8313 -0.7327  0.0331
17914TIP3    H175157  -0.057   5.363  11.130 -0.3740  0.1049  0.1788
17914TIP3    H275158   0.044   5.282  11.050 -0.6548  0.2160 -0.2906
17915TIP3   OH275159   5.586   3.105  12.389 -0.1692  0.7898  0.6904
17915TIP3    H175160   5.511   3.052  12.360  0.0705  0.6110  0.3832
17915TIP3    H275161   5.547   3.177  12.438 -0.7159  1.8512 -1.1862
17916TIP3   OH275162   1.155   4.862  12.159 -0.4257  0.3539 -0.0649
17916TIP3    H175163   1.108   4.888  12.238 -0.1783 -0.9453  0.5386
17916TIP3    H275164   1.199   4.781  12.183 -0.0767  0.1058 -1.4525
17917TIP3   OH275165   0.443   1.527  12.416 -0.2041 -0.9063  0.4421
17917TIP3    H175166   0.498   1.456  12.381  1.0465  0.9847 -1.7176
17917TIP3    H275167   0.502   1.578  12.472 -0.8443 -1.0171  1.2383
17918TIP3   OH275168   0.097   0.720   5.346  0.6093 -0.2096  0.5972
17918TIP3    H175169   0.018   0.772   5.364 -0.3043 -1.1337 -0.5287
17918TIP3    H275170   0.165   0.760   5.400 -0.3975  1.2294  0.8709
17919TIP3   OH275171   4.447   4.141  14.334  0.3218 -0.3115  0.5766
17919TIP3    H175172   4.504   4.064  14.327 -0.0465 -0.7374  1.9827
17919TIP3    H275173   4.479   4.186  14.412 -0.6308 -0.0128  0.7985
17920TIP3   OH275174   4.363   1.471  11.048  0.0916 -0.1137  0.0459
17920TIP3    H175175   4.456   1.490  11.033  0.0616 -1.0395 -1.5210
17920TIP3    H275176   4.348   1.496  11.139  2.1103 -0.8911  0.6436
17921TIP3   OH275177   6.427   2.334   4.813  0.2093  0.6007 -0.2596
17921TIP3    H175178   6.384   2.418   4.797 -0.2851  0.7811  1.6748
17921TIP3    H275179   6.476   2.347   4.894 -0.6681 -1.2254  0.6415
17922TIP3   OH275180   3.475   0.702  17.009 -0.2430 -0.2846  0.3417
17922TIP3    H175181   3.546   0.716  16.947  0.7688  0.4116  1.6091
17922TIP3    H275182   3.403   0.667  16.956 -0.0775  2.0360 -1.5520
17923TIP3   OH275183   2.230   0.685  16.256  0.2734 -0.1172 -0.5150
17923TIP3    H175184   2.187   0.640  16.329  0.4021  0.3478 -0.1466
17923TIP3    H275185   2.167   0.679  16.184  0.2081 -0.7114 -0.4125
17924TIP3   OH275186   6.105   3.015   4.492 -0.0465 -0.1102  0.1002
17924TIP3    H175187   6.076   2.940   4.545  1.5237 -1.4547 -0.8499
17924TIP3    H275188   6.068   2.999   4.405  0.5351  0.0336 -0.1819
17925TIP3   OH275189   3.781   0.236   2.749  0.2602 -0.1975  0.2173
17925TIP3    H175190   3.774   0.141   2.762 -0.6848 -0.0721  0.7314
17925TIP3    H275191   3.863   0.260   2.793  1.1060 -0.9234 -0.9015
17926TIP3   OH275192   3.977   3.617   3.578  0.6341  0.3495 -0.4597
17926TIP3    H175193   3.992   3.555   3.648  1.8236  1.7826  0.6404
17926TIP3    H275194   3.886   3.603   3.551  1.0793 -2.3604 -0.8425
17927TIP3   OH275195   5.132   2.936  16.690  0.3394  0.1242 -0.2309
17927TIP3    H175196   5.079   3.016  16.697  0.5957  0.3653 -0.9035
17927TIP3    H275197   5.068   2.865  16.689  0.1015  0.3292  0.2791
17928TIP3   OH275198   6.777   4.048   0.091 -0.1440  0.2742 -0.4789
17928TIP3    H175199   6.827   4.129   0.078  0.4815  0.2055  1.2622
17928TIP3    H275200   6.718   4.067   0.164  1.3657 -1.3597  1.2932
17929TIP3   OH275201   1.630   1.193   5.287  0.9339 -0.3440  0.0777
17929TIP3    H175202   1.706   1.247   5.264  1.1088  0.1104  1.6091
17929TIP3    H275203   1.597   1.231   5.369  0.4297 -1.9162  0.6483
17930TIP3   OH275204   5.431   3.695  14.077  0.5164 -0.3133 -0.1548
17930TIP3    H175205   5.383   3.704  14.159  1.5353 -1.4195  0.6114
17930TIP3    H275206   5.376   3.638  14.023 -0.8122  1.5115 -0.8269
17931TIP3   OH275207   3.118   2.662   5.864 -0.0220  0.0156 -0.1557
17931TIP3    H175208   3.060   2.586   5.861 -0.5606  0.3770  0.5468
17931TIP3    H275209   3.177   2.645   5.937 -0.3883  0.4203  0.2495
17932TIP3   OH275210   0.161   0.537  15.196 -0.4015  0.2513  0.1220
17932TIP3    H175211   0.107   0.505  15.123 -0.8366  1.3780 -0.0778
17932TIP3    H275212   0.098   0.554  15.266  0.0575 -1.1783  0.9253
17933TIP3   OH275213   3.009   5.614   4.789 -0.5323  0.0691  0.4377
17933TIP3    H175214   3.006   5.542   4.725  0.1067 -0.0284  0.5056
17933TIP3    H275215   3.089   5.661   4.767 -0.8646  0.6648  0.5035
17934TIP3   OH275216   1.987   3.118  15.095  0.1297 -0.8944 -0.2050
17934TIP3    H175217   1.942   3.034  15.086  0.1160 -1.0698  1.2580
17934TIP3    H275218   2.077   3.094  15.120  0.3208 -0.4944 -0.5116
17935TIP3   OH275219   2.935   1.667   2.541 -0.3991  0.0933 -0.4172
17935TIP3    H175220   2.956   1.600   2.606  0.7173  3.2322  2.7865
17935TIP3    H275221   2.849   1.700   2.567  0.8779  2.7074  0.8874
17936TIP3   OH275222   4.987   3.800   0.639 -0.6335  0.7747 -0.5687
17936TIP3    H175223   4.895   3.775   0.640 -0.5653  0.5332 -0.0050
17936TIP3    H275224   4.998   3.854   0.717 -0.3464  0.9891 -0.7544
17937TIP3   OH275225   5.372   5.138  10.940 -0.3273  0.3353  0.2203
17937TIP3    H175226   5.359   5.057  10.988 -1.5145  0.2085 -0.2884
17937TIP3    H275227   5.341   5.120  10.852 -3.8544  2.2547  0.8817
17938TIP3   OH275228   3.404   1.728   3.023  0.0013 -0.3231 -0.5072
17938TIP3    H175229   3.488   1.770   3.004  0.0690 -0.3181 -0.2126
17938TIP3    H275230   3.414   1.697   3.114  0.3379 -1.8862 -1.0466
17939TIP3   OH275231   3.552   1.170   1.137  0.1008  0.2568  0.1701
17939TIP3    H175232   3.511   1.171   1.224  3.6163 -2.6662  2.1430
17939TIP3    H275233   3.601   1.252   1.133  0.0323  0.3501  1.0466
17940TIP3   OH275234   4.925   6.763  17.113  0.0374  0.2997  0.7186
17940TIP3    H175235   4.934   6.779  17.207  1.2815 -0.5662  0.7738
17940TIP3    H275236   4.902   6.848  17.076 -0.4188  0.6591  1.7885
17941TIP3   OH275237   5.549   5.016   5.686 -0.1681 -0.6393  0.0243
17941TIP3    H175238   5.479   5.078   5.707 -0.7231 -1.5459  0.8806
17941TIP3    H275239   5.630   5.066   5.699 -0.6234  0.2901 -0.5880
17942TIP3   OH275240   6.221   4.592  12.335 -0.4430 -0.5651  0.7928
17942TIP3    H175241   6.176   4.617  12.416 -0.6499  0.9363  0.2540
17942TIP3    H275242   6.236   4.498  12.344 -1.9013 -0.7399  1.8740
17943TIP3   OH275243   3.564   4.587  16.008 -0.1112  0.0599 -0.3093
17943TIP3    H175244   3.614   4.525  15.955  1.2310  0.3954  0.5208
17943TIP3    H275245   3.598   4.673  15.982 -1.2889  0.4144 -0.7607
17944TIP3   OH275246   4.303   4.355   3.361 -0.5659  0.6286 -0.3132
17944TIP3    H175247   4.246   4.430   3.377  0.3913  1.3719 -0.3608
17944TIP3    H275248   4.343   4.373   3.276 -0.6235 -0.1289 -0.5063
17945TIP3   OH275249   5.018   6.045  16.158  0.3302 -0.0682 -0.4030
17945TIP3    H175250   4.978   6.119  16.113  0.5169 -0.5809 -1.4549
17945TIP3    H275251   5.057   5.992  16.087 -0.8494 -1.8170  0.1869
17946TIP3   OH275252   5.675   5.281  14.128 -0.6176 -0.3242  0.0042
17946TIP3    H175253   5.596   5.335  14.132 -0.6358 -0.2029 -1.3473
17946TIP3    H275254   5.739   5.337  14.083 -0.2144 -0.9309 -0.1836
17947TIP3   OH275255   2.862   4.024  15.870 -0.0726 -0.1097  0.0883
17947TIP3    H175256   2.955   4.047  15.871  0.3346 -1.6136  0.3673
17947TIP3    H275257   2.860   3.933  15.902 -1.7817  0.3728  1.5158
17948TIP3   OH275258   2.598   0.831   0.697 -0.2522 -0.4163  0.5941
17948TIP3    H175259   2.608   0.749   0.648 -0.6946  0.8089 -1.7022
17948TIP3    H275260   2.518   0.819   0.747  1.0709 -2.3324  2.4699
17949TIP3   OH275261   6.006   2.758  16.108  0.2977 -0.1912 -0.1005
17949TIP3    H175262   5.924   2.709  16.115  1.0553 -1.2732  3.4300
17949TIP3    H275263   6.072   2.691  16.091  0.9202  0.0139  1.3646
17950TIP3   OH275264   2.065   0.505  12.871  0.2411  0.2553 -0.1686
17950TIP3    H175265   2.021   0.478  12.790 -2.5520 -1.3398  1.6987
17950TIP3    H275266   2.111   0.426  12.900 -0.1737  0.3010  0.6308
17951TIP3   OH275267   3.104   2.244  14.609  0.2673 -0.1841 -0.3055
17951TIP3    H175268   3.047   2.306  14.565 -0.6924 -1.2731 -0.6651
17951TIP3    H275269   3.047   2.199  14.672  1.0185 -0.4391  0.2184
17952TIP3   OH275270   3.959   0.772   2.395  0.1018 -0.0511 -0.0462
17952TIP3    H175271   3.916   0.755   2.479 -0.3416 -1.2091 -0.4904
17952TIP3    H275272   3.958   0.867   2.386  0.1503  0.0944  1.2513
17953TIP3   OH275273   5.770   4.442   3.259  0.2156  0.5359 -0.2325
17953TIP3    H175274   5.841   4.500   3.286 -0.4569 -0.0772  3.4136
17953TIP3    H275275   5.814   4.365   3.222  1.3737  0.9620  0.2147
17954TIP3   OH275276   3.331   5.419  13.921  0.3054 -0.5364  0.4092
17954TIP3    H175277   3.366   5.330  13.928  1.6884  0.0606  1.6691
17954TIP3    H275278   3.401   5.475  13.956 -0.8968  0.9763  0.4936
17955TIP3   OH275279   5.375   3.243  16.026 -0.7509 -0.0444 -0.6185
17955TIP3    H175280   5.389   3.241  15.932 -0.3151  1.3840 -0.6085
17955TIP3    H275281   5.293   3.196  16.039 -1.0796  0.1770 -1.7690
17956TIP3   OH275282   0.291   1.253  17.202 -0.1645 -0.0787  0.0231
17956TIP3    H175283   0.380   1.242  17.236 -0.4326 -1.3598  0.3769
17956TIP3    H275284   0.235   1.235  17.278 -0.7467  2.0148  0.1550
17957TIP3   OH275285   4.745   1.208   5.815  0.2714  0.1658  0.4878
17957TIP3    H175286   4.749   1.257   5.897  1.3037  0.0230  0.5242
17957TIP3    H275287   4.797   1.258   5.753  0.8290 -0.5562  0.3552
17958TIP3   OH275288   5.281   2.688  14.920  0.1373 -0.1875  0.6158
17958TIP3    H175289   5.294   2.599  14.954 -1.1122 -0.5679  0.1562
17958TIP3    H275290   5.356   2.703  14.863  0.2602 -1.0246  0.5413
17959TIP3   OH275291   3.436   0.882   1.254 -0.2610 -0.1525  0.2650
17959TIP3    H175292   3.457   0.856   1.344  1.1899 -0.1682 -0.0461
17959TIP3    H275293   3.355   0.932   1.261  0.0652  0.2206  1.6401
17960TIP3   OH275294   2.064   2.990  13.905  0.1882 -0.3323  0.2089
17960TIP3    H175295   2.072   3.060  13.840  0.1516 -0.2500  0.2920
17960TIP3    H275296   2.040   3.035  13.986  1.1815 -0.3308  0.5097
17961TIP3   OH275297   1.330   2.570  16.370 -0.9215 -0.1501  0.1489
17961TIP3    H175298   1.372   2.644  16.414  0.1781 -1.1721  0.8885
17961TIP3    H275299   1.238   2.576  16.394 -0.6523  0.3793  1.0753
17962TIP3   OH275300   0.613   6.577   2.198  0.0300  0.4425  0.3152
17962TIP3    H175301   0.537   6.622   2.235  0.2388  1.5079 -0.4915
17962TIP3    H275302   0.582   6.544   2.113  0.5043  1.0278 -0.0925
17963TIP3   OH275303   3.840   2.988   0.211 -0.0841 -0.6423 -0.2461
17963TIP3    H175304   3.864   2.896   0.211  0.0150 -0.7332  3.0309
17963TIP3    H275305   3.745   2.989   0.216 -0.1576 -0.5163 -1.4692
17964TIP3   OH275306   3.296   6.411   2.191  0.7076 -0.7409  0.5309
17964TIP3    H175307   3.313   6.360   2.112  1.6400  0.5482 -0.1329
17964TIP3    H275308   3.374   6.465   2.203 -0.5798  1.1878  0.6699
17965TIP3   OH275309   2.443   5.600   2.981  0.3694 -0.2594  0.0728
17965TIP3    H175310   2.478   5.662   2.917  0.6701  0.5539  1.0111
17965TIP3    H275311   2.375   5.552   2.933 -0.8735  1.7527 -0.3092
17966TIP3   OH275312   3.836   4.523   5.094  0.3675 -0.1788  0.3728
17966TIP3    H175313   3.899   4.526   5.166  1.9138  1.3107 -0.9593
17966TIP3    H275314   3.812   4.431   5.087  0.1512 -0.3567  2.7793
17967TIP3   OH275315   5.245   6.728  17.126 -0.0720  0.4016 -0.0501
17967TIP3    H175316   5.294   6.646  17.139 -1.0687 -0.3889 -1.0889
17967TIP3    H275317   5.179   6.727  17.195  0.6423  0.9230  0.6586
17968TIP3   OH275318   3.369   0.135  16.303  0.0691  0.7526 -0.1864
17968TIP3    H175319   3.306   0.207  16.305  0.9048  1.4930  1.3688
17968TIP3    H275320   3.373   0.105  16.394  0.8881 -0.2339 -0.5365
17969TIP3   OH275321   0.690   2.589  14.730  0.1723 -0.1708 -0.1166
17969TIP3    H175322   0.653   2.533  14.798 -2.1804  0.5185 -0.7304
17969TIP3    H275323   0.720   2.528  14.662 -0.3004 -0.7541  0.1922
17970TIP3   OH275324   2.324   6.117  15.419  0.4040  0.1744 -0.5199
17970TIP3    H175325   2.328   6.210  15.443 -0.6543  0.0613  0.1573
17970TIP3    H275326   2.360   6.071  15.495  1.9430  0.0501 -1.2707
17971TIP3   OH275327   3.373   2.071   4.602  0.1956  0.7678  0.0936
17971TIP3    H175328   3.343   2.028   4.522  1.1696  0.2273  0.0010
17971TIP3    H275329   3.298   2.067   4.661 -0.2958  0.5140 -0.5405
17972TIP3   OH275330   3.520   0.970   6.067 -0.2098  0.6450  0.2943
17972TIP3    H175331   3.436   1.007   6.040  0.3188 -0.1050 -2.7691
17972TIP3    H275332   3.585   1.032   6.035  0.4741  0.3778  1.1408
17973TIP3   OH275333   6.161   0.918   5.683 -0.3988 -0.0899  0.7293
17973TIP3    H175334   6.066   0.912   5.682 -0.4756  0.3960 -1.7224
17973TIP3    H275335   6.191   0.829   5.670 -0.4768 -0.3003  1.8801
17974TIP3   OH275336   6.257   2.585   4.963 -0.6873  0.6654  0.2453
17974TIP3    H175337   6.198   2.578   5.038 -1.7197 -0.7621 -0.6467
17974TIP3    H275338   6.338   2.621   5.000 -1.5384  1.0557  1.8197
17975TIP3   OH275339   6.131   3.224   3.516  0.3153 -0.4734  0.7719
17975TIP3    H175340   6.116   3.294   3.579  0.7078 -0.2873  0.6636
17975TIP3    H275341   6.157   3.269   3.436 -0.2585 -0.7041  0.4512
17976TIP3   OH275342   6.286   2.251   3.965  0.3311 -0.5215  0.5986
17976TIP3    H175343   6.202   2.261   4.010  0.3090 -0.6770  0.5953
17976TIP3    H275344   6.321   2.339   3.958  0.0705 -0.4342  0.4137
17977TIP3   OH275345   2.619   2.412   5.355  0.7091 -0.1094 -0.0266
17977TIP3    H175346   2.656   2.390   5.441  2.1654 -0.3629 -0.6933
17977TIP3    H275347   2.622   2.330   5.306  2.2937  0.5714 -1.1527
17978TIP3   OH275348   1.679   5.590  15.019 -0.2699 -0.3171 -0.2772
17978TIP3    H175349   1.740   5.605  14.947  0.7228  0.7868  0.7608
17978TIP3    H275350   1.648   5.677  15.043 -1.8771 -0.8072 -0.4214
17979TIP3   OH275351   3.158   4.945  14.599  0.0782  0.1594 -0.3738
17979TIP3    H175352   3.151   5.023  14.544 -1.6841  0.6489  0.4812
17979TIP3    H275353   3.068   4.914  14.608  0.6670 -1.6312 -0.1822
17980TIP3   OH275354   3.747   0.273   2.430  0.1215 -0.2431  0.5325
17980TIP3    H175355   3.673   0.334   2.423  0.0475 -0.4319 -0.4274
17980TIP3    H275356   3.775   0.281   2.521 -1.2968 -0.4166  1.0221
17981TIP3   OH275357   3.851   4.747   0.827 -0.2888  0.4163  0.2279
17981TIP3    H175358   3.846   4.834   0.788 -0.7629  0.4385  0.3350
17981TIP3    H275359   3.772   4.702   0.797  0.9880 -0.7480 -1.6628
17982TIP3   OH275360   5.357   2.066  12.827 -0.1592 -0.0470  0.0599
17982TIP3    H175361   5.373   2.112  12.909  1.9871 -0.1831 -0.2108
17982TIP3    H275362   5.291   2.119  12.782 -1.6063 -0.1516  1.9725
17983TIP3   OH275363   1.903   5.318  13.436  0.2347 -0.0405 -0.9214
17983TIP3    H175364   1.896   5.225  13.454  0.6479 -0.2453 -1.7895
17983TIP3    H275365   1.992   5.341  13.463  0.1607  0.0852 -0.7835
17984TIP3   OH275366   0.380   5.526   0.301 -0.2699  0.1536 -0.1640
17984TIP3    H175367   0.420   5.447   0.337 -0.8588 -0.0161  0.1286
17984TIP3    H275368   0.432   5.598   0.336  1.4017 -0.1475 -1.8439
17985TIP3   OH275369   4.419   3.718  16.229  0.6117 -0.5636 -0.1099
17985TIP3    H175370   4.372   3.636  16.232  0.0812 -0.2479  1.0296
17985TIP3    H275371   4.462   3.719  16.144 -1.4687 -0.8339 -1.2086
17986TIP3   OH275372   3.463   0.012   3.268  0.2068 -0.9155 -0.4983
17986TIP3    H175373   3.480   0.020   3.362  1.4295  0.6567 -0.8063
17986TIP3    H275374   3.461  -0.082   3.252  0.1024 -1.2110  1.0688
17987TIP3   OH275375   1.999   2.014   0.865 -0.1846  0.4529  0.0399
17987TIP3    H175376   2.039   2.022   0.951  0.4988  1.5169 -0.3505
17987TIP3    H275377   1.964   1.926   0.862  0.5137  0.1285  1.1002
17988TIP3   OH275378   1.685   3.521   2.374  0.5526 -0.8331  0.1393
17988TIP3    H175379   1.739   3.450   2.409  1.2220 -0.8000 -0.7985
17988TIP3    H275380   1.695   3.514   2.279 -0.9860 -0.7307 -0.0490
17989TIP3   OH275381   4.193   4.923   3.752  0.9326 -0.6689  0.1261
17989TIP3    H175382   4.267   4.867   3.730 -0.3135 -1.5262 -2.2030
17989TIP3    H275383   4.232   4.996   3.800  3.1010 -1.6603 -0.0033
17990TIP3   OH275384   6.157   2.788   1.475  0.6361 -0.3093  0.5593
17990TIP3    H175385   6.228   2.730   1.499 -1.0150 -2.4892  0.4605
17990TIP3    H275386   6.151   2.851   1.548  1.7235 -0.9778  1.2400
17991TIP3   OH275387   1.486   1.534   2.023  0.4446  0.1363 -0.1869
17991TIP3    H175388   1.521   1.618   1.994  0.5247 -0.5369 -2.2311
17991TIP3    H275389   1.403   1.524   1.976  0.4743 -0.9519 -0.0503
17992TIP3   OH275390   4.218   1.347  10.780 -0.1068  0.0517  0.0442
17992TIP3    H175391   4.269   1.418  10.818 -1.0170 -0.1230  1.6844
17992TIP3    H275392   4.139   1.390  10.747 -1.2307 -0.2534  2.1186
17993TIP3   OH275393   0.614   6.258   1.476 -0.3202  0.8142  0.5654
17993TIP3    H175394   0.559   6.201   1.422  0.5325  1.0154 -0.5568
17993TIP3    H275395   0.592   6.346   1.447  2.0761  0.8561 -1.5144
17994TIP3   OH275396   5.119   5.954  17.126 -0.2660  0.1707  0.8210
17994TIP3    H175397   5.037   5.922  17.087  0.8786 -2.8947  0.6472
17994TIP3    H275398   5.187   5.929  17.063  0.9066  2.5174  1.0264
17995TIP3   OH275399   6.383   5.689  12.400 -0.1680  0.4993 -0.1551
17995TIP3    H175400   6.459   5.732  12.438 -0.3983  1.0974 -0.3592
17995TIP3    H275401   6.344   5.755  12.342  0.1654 -0.3708 -1.4148
17996TIP3   OH275402   2.468   5.126  11.989  0.4149  0.2593  0.6286
17996TIP3    H175403   2.431   5.174  11.915  1.4870 -1.3040 -1.0236
17996TIP3    H275404   2.398   5.122  12.053 -0.4695  1.9245 -0.1745
17997TIP3   OH275405   5.641   3.483  15.009  0.1300 -0.4084  0.5711
17997TIP3    H175406   5.714   3.545  15.017 -0.3243  0.1581  0.4189
17997TIP3    H275407   5.656   3.419  15.079  0.8929 -0.4314  0.3971
17998TIP3   OH275408   1.569   0.629  16.075  0.2923  0.0500 -0.1482
17998TIP3    H175409   1.534   0.656  15.991 -1.2997 -0.3841  0.3304
17998TIP3    H275410   1.502   0.571  16.111  1.2529 -0.3242  1.1104
17999TIP3   OH275411   5.491   6.774  10.666 -0.9420 -0.4482 -0.2617
17999TIP3    H175412   5.514   6.749  10.756 -2.3528  2.4131  1.0215
17999TIP3    H275413   5.479   6.691  10.620 -0.4932 -2.0160  2.2756
18000TIP3   OH275414   4.333   4.206  12.294 -0.4244  0.1748  0.2808
18000TIP3    H175415   4.324   4.198  12.389 -1.2157  0.3875  0.2314
18000TIP3    H275416   4.262   4.265  12.268  0.5879  1.1783 -0.2895
18001TIP3   OH275417   4.052   6.119  15.132 -0.0993  0.2021 -0.9357
18001TIP3    H175418   4.111   6.158  15.068  0.0028  1.5163 -0.0663
18001TIP3    H275419   4.001   6.192  15.166  2.3853  0.3493  3.2075
18002TIP3   OH275420   2.601   4.900   2.816 -0.3072 -0.2147  0.2917
18002TIP3    H175421   2.580   4.914   2.724  0.0138 -1.5199  0.0093
18002TIP3    H275422   2.522   4.864   2.855 -0.0994 -0.6716  0.2908
18003TIP3   OH275423   1.325   3.714  16.767 -0.0606  0.3987  0.3567
18003TIP3    H175424   1.324   3.619  16.756 -0.6277  0.4708 -0.2960
18003TIP3    H275425   1.346   3.727  16.859 -1.5537 -0.4144  0.8467
18004TIP3   OH275426   1.349   1.204  12.707 -0.5037 -0.4617 -0.3125
18004TIP3    H175427   1.358   1.288  12.752  1.8680 -1.6834  1.7509
18004TIP3    H275428   1.413   1.207  12.636  1.2767 -1.2306  1.1519
18005TIP3   OH275429   1.249   2.160  13.870 -0.4732  0.2739  0.1348
18005TIP3    H175430   1.224   2.228  13.808  0.0801 -0.7636 -1.2972
18005TIP3    H275431   1.184   2.091  13.858 -0.3786  0.0680  0.7525
18006TIP3   OH275432   0.744   4.298   0.654 -0.1619  0.4514  0.2785
18006TIP3    H175433   0.824   4.332   0.694  0.3618 -0.9419  0.4807
18006TIP3    H275434   0.735   4.210   0.690 -2.4828  1.0021  1.2184
18007TIP3   OH275435   4.387   3.292   0.786 -0.3237  0.5754  0.8847
18007TIP3    H175436   4.350   3.375   0.816 -1.8075 -0.3602  1.8141
18007TIP3    H275437   4.362   3.286   0.694  0.0121  1.2665  0.7474
18008TIP3   OH275438   5.698   4.927   0.625 -0.0013 -0.6997  0.3112
18008TIP3    H175439   5.737   4.990   0.686 -0.1778 -0.4073  0.1256
18008TIP3    H275440   5.688   4.975   0.543  2.3412 -1.7377 -0.6740
18009TIP3   OH275441   2.375   4.954   5.869 -0.0976 -0.2361  0.0370
18009TIP3    H175442   2.320   4.924   5.941 -2.8579 -1.4025 -2.3869
18009TIP3    H275443   2.358   5.048   5.864  1.5694  0.2433  1.9498
18010TIP3   OH275444   5.646   4.163  14.565  0.5156 -0.5616  0.0143
18010TIP3    H175445   5.562   4.200  14.590  1.0879 -0.5996  2.1742
18010TIP3    H275446   5.709   4.235  14.579  1.1415 -1.2234  0.6795
18011TIP3   OH275447   4.722   5.506   4.765  0.4116 -0.2912 -0.1628
18011TIP3    H175448   4.817   5.510   4.763  0.4900 -0.2159  1.6325
18011TIP3    H275449   4.697   5.563   4.838 -0.9838 -0.5421 -0.4102
18012TIP3   OH275450   2.628   1.866   0.547  0.1607  0.6645 -0.1587
18012TIP3    H175451   2.648   1.883   0.639 -0.6057 -0.0066  0.1469
18012TIP3    H275452   2.554   1.923   0.526 -0.9191 -0.5394  0.2151
18013TIP3   OH275453   1.434   1.065   5.146 -0.4275 -0.1255  0.3410
18013TIP3    H175454   1.495   1.097   5.212  0.0994 -1.3079  0.4587
18013TIP3    H275455   1.478   1.081   5.063  1.2643 -3.1503  0.4886
18014TIP3   OH275456   0.916   0.448   3.029  0.3290 -0.1545  0.3891
18014TIP3    H175457   0.855   0.407   2.967 -0.3565  0.2204  0.7989
18014TIP3    H275458   0.925   0.538   2.999  1.8805 -0.5830 -0.5406
18015TIP3   OH275459   5.624   0.821  17.127  0.3633 -0.4562 -0.9292
18015TIP3    H175460   5.622   0.914  17.103  1.6530 -0.5169 -1.3340
18015TIP3    H275461   5.551   0.782  17.079 -0.2127  0.3394 -0.7292
18016TIP3   OH275462   5.213   0.670   3.009  0.4934 -0.3261 -0.7070
18016TIP3    H175463   5.298   0.713   3.003  0.9445 -1.3096 -1.4668
18016TIP3    H275464   5.151   0.738   2.982  0.9138  0.6639  0.6514
18017TIP3   OH275465   5.781   1.627  16.658 -0.4318  0.4437  0.2028
18017TIP3    H175466   5.715   1.674  16.710 -0.3613  0.1492  0.5665
18017TIP3    H275467   5.803   1.687  16.587 -1.0319  0.5755  0.1279
18018TIP3   OH275468   0.161   0.715  16.897  0.5915 -0.4499  0.5937
18018TIP3    H175469   0.192   0.678  16.815  1.1976  2.4903 -0.6214
18018TIP3    H275470   0.227   0.781  16.920 -0.8915  0.6051  2.0425
18019TIP3   OH275471   3.260   4.314  15.979  0.1762 -0.0365 -0.0209
18019TIP3    H175472   3.238   4.245  15.917 -0.5123 -0.4913  0.7090
18019TIP3    H275473   3.321   4.274  16.041 -0.4266 -0.0927  0.5577
18020TIP3   OH275474   3.733   1.832   1.766  0.1158 -0.1276 -0.5726
18020TIP3    H175475   3.648   1.871   1.750 -0.5475 -0.8335  1.0250
18020TIP3    H275476   3.715   1.752   1.816  1.7600  0.6355  1.4387
18021TIP3   OH275477   4.153   6.274   1.278 -0.0633 -0.0423  0.7337
18021TIP3    H175478   4.155   6.272   1.373 -1.3742 -1.4372  0.7636
18021TIP3    H275479   4.060   6.271   1.255  0.2429 -0.3932 -0.5961
18022TIP3   OH275480   1.137   0.605   1.399 -0.1591 -0.0937 -0.2091
18022TIP3    H175481   1.058   0.657   1.412 -2.0158 -3.1662  2.2679
18022TIP3    H275482   1.208   0.662   1.430 -1.8226  1.6104  0.7039
18023TIP3   OH275483   6.408   3.747   1.367 -0.2799 -0.2780  0.0803
18023TIP3    H175484   6.491   3.706   1.342  0.0879  2.5156 -4.4463
18023TIP3    H275485   6.341   3.685   1.339  0.2310 -1.1105  0.6606
18024TIP3   OH275486   0.949   6.324  12.410 -0.3720  0.3855  0.2348
18024TIP3    H175487   0.982   6.400  12.459  0.8243  0.4686 -0.6806
18024TIP3    H275488   1.019   6.303  12.348 -0.6695 -1.5020  0.5026
18025TIP3   OH275489   3.618   2.021  16.074 -0.2736 -0.4186 -0.7840
18025TIP3    H175490   3.614   1.938  16.028 -0.4921 -1.2973  0.7462
18025TIP3    H275491   3.666   2.002  16.155 -0.8188  0.7967 -0.1374
18026TIP3   OH275492   5.934   3.977   0.188  0.3443 -0.2877  0.6594
18026TIP3    H175493   5.906   4.009   0.103  2.5287 -0.0613 -0.0461
18026TIP3    H275494   5.895   3.889   0.195  1.4653 -1.0096 -1.3551
18027TIP3   OH275495   4.402   3.288  14.763 -0.1379  0.4356  0.0681
18027TIP3    H175496   4.496   3.272  14.753  0.4871  3.4920  0.1574
18027TIP3    H275497   4.396   3.367  14.816 -2.8026  0.2256  0.2415
18028TIP3   OH275498   3.401   3.066  13.222  0.9239  0.1757 -0.2527
18028TIP3    H175499   3.328   3.077  13.162  1.3309  1.5141 -0.5315
18028TIP3    H275500   3.401   3.145  13.276  1.8324 -0.0520  0.1164
18029TIP3   OH275501   2.223   1.694   3.350 -0.0245  0.7475 -0.1287
18029TIP3    H175502   2.279   1.701   3.272  0.5635  1.8108  0.3640
18029TIP3    H275503   2.244   1.772   3.401 -0.6434  0.2299  0.9432
18030TIP3   OH275504   2.864   1.527  16.075  0.1161  0.2852 -0.4276
18030TIP3    H175505   2.777   1.531  16.037 -0.3830 -0.2028  0.6306
18030TIP3    H275506   2.867   1.597  16.140  0.2496 -0.1485  0.0474
18031TIP3   OH275507   6.663   2.024  15.685 -0.1042 -0.2421 -0.5600
18031TIP3    H175508   6.758   2.029  15.677  0.0829 -1.1592  0.7959
18031TIP3    H275509   6.647   2.005  15.777 -1.6024 -0.3915 -0.8158
18032TIP3   OH275510   4.436   1.754   5.205 -0.3652  0.1193 -0.6657
18032TIP3    H175511   4.426   1.734   5.298  1.1826  0.7844 -0.3221
18032TIP3    H275512   4.510   1.700   5.177  1.0472  2.0040 -0.7708
18033TIP3   OH275513   1.831   5.395   3.851 -0.7861 -0.4803  0.1339
18033TIP3    H175514   1.868   5.376   3.937  0.6859  1.2744 -0.0688
18033TIP3    H275515   1.752   5.446   3.870 -0.8263 -0.6523  0.4446
18034TIP3   OH275516   3.916   6.215  11.313  0.1088 -0.1505 -0.1872
18034TIP3    H175517   3.860   6.198  11.238  0.2345  4.2154 -1.5505
18034TIP3    H275518   4.003   6.185  11.285 -0.2887 -0.7369 -0.8151
18035TIP3   OH275519   6.641   4.363  12.457  0.3870  0.0698 -0.2278
18035TIP3    H175520   6.710   4.329  12.399  0.1989 -0.8885  0.0814
18035TIP3    H275521   6.584   4.414  12.399 -0.0286 -1.2068 -1.0018
18036TIP3   OH275522   2.809   6.318   5.271 -0.2209 -0.2723  0.1866
18036TIP3    H175523   2.878   6.298   5.334 -0.0585 -1.6651 -0.3989
18036TIP3    H275524   2.732   6.338   5.324  0.7272  1.8389  0.8604
18037TIP3   OH275525   1.813   1.745  15.205 -0.8532  0.2656 -0.5717
18037TIP3    H175526   1.885   1.738  15.268 -0.5275 -0.3672 -1.0059
18037TIP3    H275527   1.810   1.837  15.182 -0.6105  0.4067 -0.0537
18038TIP3   OH275528   2.420   0.594   4.026  0.3538  0.1027 -0.4404
18038TIP3    H175529   2.496   0.648   4.051  0.0300  1.2935 -1.9067
18038TIP3    H275530   2.346   0.655   4.030 -0.4476 -0.9042  0.4005
18039TIP3   OH275531   3.656   1.009  14.516  0.3766 -0.7852  0.2149
18039TIP3    H175532   3.713   0.944  14.557  0.0527 -1.5377 -0.5007
18039TIP3    H275533   3.704   1.035  14.437  0.4133 -0.2915  0.3952
18040TIP3   OH275534   3.794   2.096   0.680  0.2212  0.3738  0.6992
18040TIP3    H175535   3.715   2.150   0.686 -1.4324 -1.7586 -0.3252
18040TIP3    H275536   3.812   2.070   0.770 -2.3799 -1.8233  0.7348
18041TIP3   OH275537   2.912   4.483  11.918 -0.2489  0.1722 -0.0708
18041TIP3    H175538   2.993   4.533  11.936 -0.3562  0.4839 -0.4362
18041TIP3    H275539   2.929   4.397  11.955 -0.0571  0.4774  0.5812
18042TIP3   OH275540   6.455   0.424   3.733 -0.0065  0.3002 -0.1582
18042TIP3    H175541   6.427   0.514   3.749  2.0217  0.8911  0.4068
18042TIP3    H275542   6.452   0.382   3.818 -2.4394 -0.6958 -0.6571
18043TIP3   OH275543   6.043   5.862   5.547 -0.0898 -0.5385 -0.3487
18043TIP3    H175544   6.046   5.825   5.635 -0.4306  1.3591  0.5263
18043TIP3    H275545   6.118   5.825   5.502  0.9080 -0.5028  1.2075
18044TIP3   OH275546   5.291   3.545  12.934 -0.2327 -0.2606 -0.1556
18044TIP3    H175547   5.349   3.536  13.010  0.5497 -1.0087 -0.8218
18044TIP3    H275548   5.296   3.460  12.890 -1.3962 -0.1470 -0.5523
18045TIP3   OH275549   2.579   2.312  14.966 -0.4704 -0.2479  0.3218
18045TIP3    H175550   2.540   2.267  14.890  0.1316  1.4737 -1.0767
18045TIP3    H275551   2.569   2.250  15.038 -1.9025 -1.5848 -0.9481
18046TIP3   OH275552   0.050   0.927   0.535  0.2231  0.0293  0.6237
18046TIP3    H175553  -0.045   0.914   0.534  0.2619 -0.2318 -0.4967
18046TIP3    H275554   0.085   0.853   0.487  0.8614  1.0606 -0.5378
18047TIP3   OH275555   0.384   3.288  11.105 -0.3500  0.2431 -0.1593
18047TIP3    H175556   0.361   3.376  11.135  0.8421  0.5244 -0.0165
18047TIP3    H275557   0.393   3.297  11.010 -0.7745  0.1434 -0.2098
18048TIP3   OH275558   0.036   5.175  16.875  0.4269  0.2991  0.7730
18048TIP3    H175559   0.097   5.247  16.891 -0.7970  1.5470  0.0205
18048TIP3    H275560  -0.007   5.161  16.960 -0.5485  1.6570  0.5378
18049TIP3   OH275561   1.290   0.067  16.041 -0.2628 -0.4511  0.4199
18049TIP3    H175562   1.377   0.072  16.082  0.4593 -1.9181 -0.8293
18049TIP3    H275563   1.307   0.089  15.949 -1.6280  1.5377  0.5964
18050TIP3   OH275564   2.626   1.356   0.431 -0.0017 -0.5943  0.4233
18050TIP3    H175565   2.646   1.414   0.505  0.9282  0.1608 -0.3770
18050TIP3    H275566   2.684   1.387   0.361  0.2962 -2.3083 -0.1316
18051TIP3   OH275567   4.835   2.951   1.792  0.2186 -0.4958 -0.6081
18051TIP3    H175568   4.871   2.862   1.795  1.0154 -0.1832 -0.6718
18051TIP3    H275569   4.890   2.997   1.729 -0.5056 -0.0894 -0.9478
18052TIP3   OH275570   4.859   1.101  11.347  0.4145 -0.1251 -0.1493
18052TIP3    H175571   4.815   1.157  11.411  2.4141  0.9132  0.4170
18052TIP3    H275572   4.881   1.021  11.395 -1.1518 -0.8331 -0.5538
18053TIP3   OH275573   6.272   6.411   2.660 -0.4157 -0.2608  0.1410
18053TIP3    H175574   6.361   6.417   2.694 -0.9968 -1.5890  2.0785
18053TIP3    H275575   6.240   6.327   2.693 -1.5470 -1.0398 -2.6440
18054TIP3   OH275576   5.819   5.535   1.124 -0.7135 -0.2797  0.2599
18054TIP3    H175577   5.744   5.594   1.121  0.7405  1.7681  1.4859
18054TIP3    H275578   5.842   5.531   1.217 -0.4000 -2.3680  0.1431
18055TIP3   OH275579   5.762   3.240  14.260  0.1061 -0.1732  0.0620
18055TIP3    H175580   5.794   3.226  14.349 -0.0326 -1.0019 -0.0092
18055TIP3    H275581   5.750   3.335  14.253 -0.5677 -0.1666  1.1666
18056TIP3   OH275582   2.937   5.511   1.508 -0.1601  0.0760  0.4326
18056TIP3    H175583   2.997   5.463   1.451 -0.2465 -0.3936  0.7333
18056TIP3    H275584   2.970   5.494   1.596 -0.6898 -0.1142  0.5932
18057TIP3   OH275585   6.095   0.371   1.320 -0.2205  0.0264 -0.4672
18057TIP3    H175586   6.096   0.405   1.409  1.2412  0.6410 -0.6952
18057TIP3    H275587   6.041   0.433   1.271  1.2222  1.2753 -0.5624
18058TIP3   OH275588   5.019   5.516  11.195 -0.4866  0.0428  0.1315
18058TIP3    H175589   5.044   5.458  11.123 -0.5853  2.1442 -1.6894
18058TIP3    H275590   5.078   5.492  11.266  0.4209 -1.3048 -1.0165
18059TIP3   OH275591   2.122   2.302   1.680  0.2020  0.1811 -0.1810
18059TIP3    H175592   2.197   2.355   1.652 -0.0046 -0.1781 -1.4967
18059TIP3    H275593   2.094   2.257   1.600 -0.3100 -1.0601  0.6742
18060TIP3   OH275594   3.132   1.061  13.776  0.1201  0.5870 -0.1710
18060TIP3    H175595   3.134   1.147  13.818 -0.5273  0.4867  0.0697
18060TIP3    H275596   3.173   1.075  13.691 -0.1287  1.1711 -0.1999
18061TIP3   OH275597   3.577   4.790  16.507  0.0315  0.0808 -0.6982
18061TIP3    H175598   3.623   4.753  16.583 -1.1556 -0.4488 -0.1983
18061TIP3    H275599   3.629   4.764  16.432  1.4645  0.9721 -0.0391
18062TIP3   OH275600   0.979   2.661  15.359  0.2189 -0.1525 -0.3101
18062TIP3    H175601   0.955   2.579  15.401 -3.7571  0.9150 -0.0679
18062TIP3    H275602   0.925   2.665  15.280  0.9042  1.8488 -0.7512
18063TIP3   OH275603   4.612   1.328   4.970  0.7394  0.2512  0.1839
18063TIP3    H175604   4.615   1.236   4.945  0.2673  0.1724  0.4142
18063TIP3    H275605   4.559   1.370   4.903 -0.7815 -0.0139  1.1767
18064TIP3   OH275606   0.553   2.952   2.788 -0.1355 -0.3872 -0.0941
18064TIP3    H175607   0.634   2.963   2.838 -0.9781  0.3801  1.1463
18064TIP3    H275608   0.505   2.883   2.833 -1.0342  0.5085  0.3612
18065TIP3   OH275609   3.914   0.621  10.463 -0.1647 -0.0557  0.3557
18065TIP3    H175610   3.972   0.695  10.481 -0.6544  0.1633  1.0694
18065TIP3    H275611   3.829   0.660  10.446 -0.7769 -0.4984  2.1860
18066TIP3   OH275612   2.933   4.167   6.468 -0.8297  0.2982 -0.1681
18066TIP3    H175613   2.888   4.084   6.449 -1.8044  0.3568  1.6085
18066TIP3    H275614   2.935   4.213   6.384 -0.1220 -1.5651 -1.2342
18067TIP3   OH275615   4.934   2.489   6.465 -0.2820 -0.3075  0.1349
18067TIP3    H175616   4.912   2.554   6.532  0.5584  1.3090 -1.0711
18067TIP3    H275617   4.977   2.419   6.513  0.6607  0.9810  1.2611
18068TIP3   OH275618   1.705   5.190   0.579 -0.2512  0.3349 -0.5457
18068TIP3    H175619   1.742   5.220   0.495 -0.3721  0.1986 -0.6480
18068TIP3    H275620   1.780   5.185   0.638  0.0044 -0.5366 -0.9240
18069TIP3   OH275621   6.468   5.905   5.361 -0.6019  0.2799  0.3845
18069TIP3    H175622   6.480   5.952   5.279 -0.5962 -0.7911 -0.2428
18069TIP3    H275623   6.382   5.864   5.354 -0.6417  0.2514  0.9497
18070TIP3   OH275624   5.490   5.501  14.624 -0.3984  0.3262 -0.1113
18070TIP3    H175625   5.493   5.410  14.596  1.9195 -0.3620  2.0506
18070TIP3    H275626   5.465   5.498  14.716  2.7075  1.4891  0.9221
18071TIP3   OH275627   0.567   0.075  15.793 -0.1168  0.3624 -0.7246
18071TIP3    H175628   0.557  -0.004  15.846  0.3904  1.6749  1.4260
18071TIP3    H275629   0.656   0.069  15.757 -0.5245 -0.6117 -1.6450
18072TIP3   OH275630   0.487   0.266   3.341 -0.0449  0.0421  0.1932
18072TIP3    H175631   0.404   0.264   3.390  1.4797  1.1297  3.0179
18072TIP3    H275632   0.483   0.188   3.286 -2.2244 -0.8899  1.5072
18073TIP3   OH275633   4.191   4.886   0.783  0.1869  0.0584  0.3059
18073TIP3    H175634   4.286   4.889   0.786  0.1876  2.2038 -0.2151
18073TIP3    H275635   4.171   4.830   0.708  0.9834 -1.5116  1.2305
18074TIP3   OH275636   3.919   1.365   5.852  0.0729 -0.2288  0.2894
18074TIP3    H175637   3.909   1.419   5.931  0.2748  0.9365 -0.4524
18074TIP3    H275638   3.839   1.380   5.802  0.8397  0.7227 -0.6973
18075TIP3   OH275639   3.588   4.191  12.482 -0.0693  0.0182 -0.7092
18075TIP3    H175640   3.545   4.276  12.480 -0.5457 -0.1836  0.1323
18075TIP3    H275641   3.678   4.209  12.458  0.2595  1.0528  1.0896
18076TIP3   OH275642   0.656   5.866  16.927  0.1936 -0.1654 -0.0596
18076TIP3    H175643   0.721   5.934  16.912  0.4707 -0.4236 -0.0374
18076TIP3    H275644   0.596   5.905  16.991  0.2609  0.1132 -0.1636
18077TIP3   OH275645   5.791   2.386  16.703  0.3665  0.6554 -0.5269
18077TIP3    H175646   5.704   2.364  16.736 -0.8270  1.4276 -2.8997
18077TIP3    H275647   5.792   2.482  16.700  1.3470  0.6632 -0.4332
18078TIP3   OH275648   5.110   5.183  12.320  0.5696 -0.4905 -0.1698
18078TIP3    H175649   5.162   5.104  12.335 -0.6391 -1.4952 -1.0705
18078TIP3    H275650   5.174   5.251  12.303  1.6334 -1.3178  0.4153
18079TIP3   OH275651   4.833   3.118  16.002  0.2738  0.5526  0.0644
18079TIP3    H175652   4.816   3.030  16.034  0.1156  0.2615 -0.8001
18079TIP3    H275653   4.850   3.107  15.908  0.0890  1.4550 -0.0861
18080TIP3   OH275654   5.735   2.330   2.722 -0.1471 -0.1307  0.9590
18080TIP3    H175655   5.813   2.301   2.769  0.0790  0.0320  0.6872
18080TIP3    H275656   5.698   2.399   2.777 -0.8902 -1.1625  1.7882
18081TIP3   OH275657   1.309   2.211  12.754  0.8447 -0.0093  0.6247
18081TIP3    H175658   1.264   2.181  12.675  2.6907 -0.8306 -0.1595
18081TIP3    H275659   1.287   2.146  12.821  1.9611 -1.2035 -0.1281
18082TIP3   OH275660   6.301   6.537   2.185 -0.3146  1.0381  0.6942
18082TIP3    H175661   6.259   6.502   2.264 -1.7458 -2.1432 -1.3062
18082TIP3    H275662   6.327   6.460   2.135  1.6362  2.9369 -1.4764
18083TIP3   OH275663   5.134   6.123   1.935 -0.4411  0.1674 -0.4201
18083TIP3    H175664   5.169   6.040   1.903  0.1520  0.1096  0.3540
18083TIP3    H275665   5.138   6.181   1.859  3.4485  0.8275  0.0839
18084TIP3   OH275666   4.571   1.442  15.263 -0.0309  0.5984 -0.0564
18084TIP3    H175667   4.545   1.515  15.207 -1.1574  0.1540 -0.1258
18084TIP3    H275668   4.574   1.366  15.206 -1.7262  0.0328  0.5466
18085TIP3   OH275669   5.903   4.844  11.808 -0.1331 -0.1803  0.0536
18085TIP3    H175670   5.841   4.818  11.875 -0.3506  0.2631  0.0271
18085TIP3    H275671   5.878   4.794  11.730 -0.2295 -0.2718  0.1442
18086TIP3   OH275672   6.069   4.582   2.254  0.1401  0.0314 -0.1697
18086TIP3    H175673   6.023   4.524   2.313 -1.2921  0.3147 -0.9564
18086TIP3    H275674   6.100   4.654   2.309 -0.7644  0.0597  0.3156
18087TIP3   OH275675   2.525   4.116  10.572 -0.0147  0.0870  0.0250
18087TIP3    H175676   2.502   4.208  10.561  1.8428  0.7305  1.0190
18087TIP3    H275677   2.596   4.117  10.637  0.2497 -2.0238 -0.1667
18088TIP3   OH275678   4.702   3.191  15.750  0.3160 -0.2546  0.0308
18088TIP3    H175679   4.774   3.245  15.717  0.4888 -0.7768 -0.4643
18088TIP3    H275680   4.646   3.176  15.674  0.0906 -0.4846  0.2381
18089TIP3   OH275681   5.678   0.985  14.733 -0.4429  0.2458  0.0678
18089TIP3    H175682   5.711   1.047  14.799  0.4306 -0.3122  0.1721
18089TIP3    H275683   5.722   0.902  14.754  0.6389  0.2857 -1.8042
18090TIP3   OH275684   5.213   5.774  15.387 -0.4816  0.0211 -0.3493
18090TIP3    H175685   5.228   5.800  15.478  1.0123  1.4498 -0.9431
18090TIP3    H275686   5.243   5.683  15.383 -0.4874 -0.0348  0.5571
18091TIP3   OH275687   2.351   3.443   4.869 -0.0031 -0.1284  0.1495
18091TIP3    H175688   2.257   3.449   4.888 -0.1720 -0.3418 -0.6183
18091TIP3    H275689   2.389   3.517   4.917 -0.3906 -0.7524  1.4788
18092TIP3   OH275690   1.792   1.817   3.860  0.3704 -0.2735  0.2904
18092TIP3    H175691   1.832   1.839   3.776  0.0501  0.6916  0.3698
18092TIP3    H275692   1.851   1.856   3.925 -0.3644  0.6406  0.4298
18093TIP3   OH275693   6.673   5.709   1.560  0.5588  0.7289  0.2637
18093TIP3    H175694   6.682   5.755   1.477  0.3194 -0.5181 -0.4713
18093TIP3    H275695   6.758   5.666   1.573 -0.5246 -2.1390 -1.2578
18094TIP3   OH275696   3.340   4.414   2.643  0.4819  0.4671  0.3494
18094TIP3    H175697   3.310   4.403   2.733  1.0796  1.9514  0.7516
18094TIP3    H275698   3.269   4.377   2.590  0.7398 -1.6753  1.4354
18095TIP3   OH275699   5.103   2.190  12.257  0.4845 -0.7732  0.4249
18095TIP3    H175700   5.133   2.122  12.318  0.2777 -1.8239 -0.6007
18095TIP3    H275701   5.050   2.142  12.194 -1.1049  0.6152  0.6375
18096TIP3   OH275702   4.489   2.905  12.678  0.1431 -0.4447 -0.4426
18096TIP3    H175703   4.455   2.895  12.589 -0.0088 -1.9760 -0.2433
18096TIP3    H275704   4.416   2.879  12.735  0.7500 -1.0587  0.0718
18097TIP3   OH275705   4.539   0.363  11.710  0.0114  0.1417 -0.1751
18097TIP3    H175706   4.564   0.292  11.769  1.7348 -0.1026 -1.1412
18097TIP3    H275707   4.567   0.443  11.755  1.8971 -0.0814 -0.8814
18098TIP3   OH275708   0.980   4.343  12.580 -0.2548 -0.3703 -0.4946
18098TIP3    H175709   0.986   4.435  12.603 -2.0541 -0.0378 -1.1506
18098TIP3    H275710   0.955   4.299  12.661  1.5534 -0.4649  0.0514
18099TIP3   OH275711   0.020   4.941  17.111  0.5376  0.3110 -0.0478
18099TIP3    H175712   0.092   4.921  17.052 -0.2178  0.5616 -1.0903
18099TIP3    H275713  -0.055   4.896  17.073 -0.1658  1.2440  0.2019
18100TIP3   OH275714   2.650   3.834   5.003 -0.3539  0.2141 -0.3458
18100TIP3    H175715   2.686   3.751   5.036  0.4770  0.9832  0.7379
18100TIP3    H275716   2.724   3.877   4.961 -0.9414  0.1377 -1.5104
18101TIP3   OH275717   0.869   2.302  16.160  0.2361 -0.1683 -0.2293
18101TIP3    H175718   0.778   2.275  16.172 -0.3211  0.8186 -1.9131
18101TIP3    H275719   0.885   2.365  16.230  0.0032 -1.1597  0.7409
18102TIP3   OH275720   4.228   6.356   3.517  0.0544  0.5529 -1.0855
18102TIP3    H175721   4.155   6.327   3.462 -2.5336  3.9964  0.2074
18102TIP3    H275722   4.186   6.399   3.592  3.4593  0.3126  1.1629
18103TIP3   OH275723   2.535   5.184   0.625 -0.2640  0.2292 -0.1213
18103TIP3    H175724   2.560   5.274   0.607 -2.5892  1.1698  0.8191
18103TIP3    H275725   2.524   5.181   0.721 -0.7651 -0.8686 -0.1904
18104TIP3   OH275726   2.662   2.385  16.627 -0.2170  0.4651 -0.2787
18104TIP3    H175727   2.679   2.479  16.627 -0.2997  0.4814 -0.1200
18104TIP3    H275728   2.748   2.345  16.623 -0.2054  0.5506 -0.8745
18105TIP3   OH275729   1.966   1.105  12.688  0.0795  0.1142  0.2622
18105TIP3    H175730   1.987   1.034  12.748 -0.2977  0.2981  0.6170
18105TIP3    H275731   2.033   1.171  12.703  0.1942  0.0066  0.2231
18106TIP3   OH275732   0.300   0.428  12.625  0.5209  0.5187  0.3783
18106TIP3    H175733   0.324   0.339  12.647  1.1898  0.9952  1.6888
18106TIP3    H275734   0.383   0.474  12.614  0.2160  1.3013  1.1713
18107TIP3   OH275735   3.516   3.908   3.098  0.5207 -0.2281  0.5854
18107TIP3    H175736   3.564   3.841   3.050  2.6709  0.7838  1.1802
18107TIP3    H275737   3.439   3.863   3.131  1.4270 -2.1740  0.2108
18108TIP3   OH275738   3.073   4.954   5.979 -0.3568  0.3362  0.0724
18108TIP3    H175739   3.097   4.917   6.064  0.2731 -0.9221 -0.6445
18108TIP3    H275740   2.994   4.907   5.954 -1.3115  1.6220  0.5303
18109TIP3   OH275741   3.223   1.643   6.427 -0.0610  0.0597  0.2574
18109TIP3    H175742   3.137   1.636   6.468 -1.1106 -0.3182 -1.8480
18109TIP3    H275743   3.271   1.565   6.457 -0.9406 -0.4350  0.3938
18110TIP3   OH275744   3.964   0.799  14.853  0.0400 -0.4530  0.3219
18110TIP3    H175745   4.018   0.735  14.807  0.3493  0.4456 -0.6133
18110TIP3    H275746   4.027   0.851  14.904  0.4027  1.7663 -2.1567
18111TIP3   OH275747   2.917   6.337  13.996  0.5417 -0.3485 -0.1940
18111TIP3    H175748   2.862   6.375  13.928  0.4869 -0.4533 -0.2079
18111TIP3    H275749   2.878   6.251  14.014  0.3332 -0.1692  0.2340
18112TIP3   OH275750   1.416   2.295  12.020  0.5370 -0.5159  0.0666
18112TIP3    H175751   1.455   2.342  12.094 -1.2581  0.5649  0.4102
18112TIP3    H275752   1.364   2.362  11.975 -0.9670 -1.8483 -0.2775
18113TIP3   OH275753   6.421   3.159   6.016 -0.3106 -0.3256  0.3231
18113TIP3    H175754   6.500   3.209   5.998 -1.9570  1.3400 -3.3443
18113TIP3    H275755   6.366   3.217   6.069 -0.3516 -0.1582  0.0975
18114TIP3   OH275756   2.689   1.834   2.130  0.0877  0.0667 -0.0225
18114TIP3    H175757   2.634   1.803   2.058  2.7057 -1.2934 -1.5704
18114TIP3    H275758   2.764   1.875   2.087  1.4567 -0.2552  1.9377
18115TIP3   OH275759   5.142   3.969  15.574  0.5749 -0.2357  0.2788
18115TIP3    H175760   5.084   3.960  15.649 -0.4491 -1.1574 -0.5904
18115TIP3    H275761   5.230   3.976  15.613  0.0963 -0.8930  1.5557
18116TIP3   OH275762   0.029   4.663   4.011  0.1310  0.0007 -0.2839
18116TIP3    H175763  -0.000   4.724   3.943 -1.6629 -0.8643 -0.3344
18116TIP3    H275764  -0.038   4.670   4.079  1.9411  0.9306  1.5149
18117TIP3   OH275765   2.345   5.448  10.558 -0.1429  0.2995 -0.1848
18117TIP3    H175766   2.336   5.353  10.564  3.3874 -0.0685  2.6127
18117TIP3    H275767   2.439   5.463  10.555 -0.5715  3.7631 -0.2891
18118TIP3   OH275768   2.394   2.811  13.428  0.2927  0.2922  0.2716
18118TIP3    H175769   2.381   2.739  13.366  1.3915  1.0379 -0.8663
18118TIP3    H275770   2.347   2.783  13.506  0.9078 -1.8076 -0.0233
18119TIP3   OH275771   4.064   0.774  12.572  0.4802 -0.1457  0.2976
18119TIP3    H175772   4.067   0.824  12.490  1.1101 -0.0009  0.4012
18119TIP3    H275773   4.026   0.834  12.636 -3.0196 -1.2283 -0.5202
18120TIP3   OH275774   3.219   6.495   4.464 -0.0336 -0.1936 -0.1388
18120TIP3    H175775   3.248   6.580   4.497 -1.3053  0.0308  0.4422
18120TIP3    H275776   3.186   6.514   4.376  0.8930 -0.3283 -0.5257
18121TIP3   OH275777   1.017   1.889   6.103 -0.2291  0.0023 -0.1455
18121TIP3    H175778   1.040   1.875   6.011 -3.2654 -1.8021 -0.7667
18121TIP3    H275779   1.078   1.835   6.152  1.3710  0.9044 -1.0535
18122TIP3   OH275780   3.751   6.603   3.861 -0.5323 -0.1732  0.2258
18122TIP3    H175781   3.832   6.642   3.893 -0.5495 -0.4480  0.6040
18122TIP3    H275782   3.720   6.664   3.794 -0.1496  0.0625  0.2628
18123TIP3   OH275783   1.799   4.980  12.679 -0.1276  0.2447 -0.4146
18123TIP3    H175784   1.753   4.897  12.677 -1.0988  0.6861  1.2824
18123TIP3    H275785   1.821   4.993  12.772  1.6955  0.9941 -0.8931
18124TIP3   OH275786   0.634   2.122   1.165  0.0666 -0.7588 -0.2681
18124TIP3    H175787   0.592   2.046   1.204 -2.8131  0.1956 -1.2712
18124TIP3    H275788   0.704   2.145   1.226 -0.1176 -3.1198  0.9251
18125TIP3   OH275789   0.502   6.414   2.035  0.0613  0.1311 -0.7910
18125TIP3    H175790   0.433   6.348   2.037  0.2425 -0.0826 -1.4592
18125TIP3    H275791   0.556   6.391   1.959  1.4153 -0.2633  0.2458
18126TIP3   OH275792   5.657   1.815   0.810  0.2739 -0.4793  0.2307
18126TIP3    H175793   5.622   1.726   0.811  1.3990 -0.9448  1.2401
18126TIP3    H275794   5.636   1.848   0.723  1.8582 -2.5822 -1.0766
18127TIP3   OH275795   1.629   5.639  15.843  0.7375 -0.5051 -0.5514
18127TIP3    H175796   1.644   5.545  15.856  0.1426 -0.8393 -2.0702
18127TIP3    H275797   1.595   5.669  15.928  2.1345 -1.3725  0.3597
18128TIP3   OH275798   2.409   0.026  16.052  0.3307  0.3962  0.4867
18128TIP3    H175799   2.371  -0.056  16.023 -0.5415  0.7779  0.5234
18128TIP3    H275800   2.464   0.002  16.127  1.3160 -0.3585 -0.4373
18129TIP3   OH275801   0.994   2.833   6.067  0.1204 -0.4537 -0.0498
18129TIP3    H175802   0.927   2.874   6.121 -1.3085 -1.1237 -1.2639
18129TIP3    H275803   1.049   2.785   6.129 -0.9100 -0.4411  0.8899
18130TIP3   OH275804   6.088   4.322  15.968  0.8145  0.1529 -0.5075
18130TIP3    H175805   6.084   4.417  15.963 -2.1432  0.0948 -1.0339
18130TIP3    H275806   6.042   4.300  16.049  0.6207 -0.8525 -0.8753
18131TIP3   OH275807   3.347   2.859  16.715  0.2541 -0.4650  0.7279
18131TIP3    H175808   3.442   2.856  16.710  0.3230 -0.3298  1.7903
18131TIP3    H275809   3.320   2.767  16.709  0.3708 -0.4251 -0.7040
18132TIP3   OH275810   2.785   2.839  14.443  0.3631  0.2161 -0.2494
18132TIP3    H175811   2.738   2.787  14.378 -1.4492  1.0625  0.3230
18132TIP3    H275812   2.776   2.929  14.413 -1.5573  0.7790  1.6854
18133TIP3   OH275813   4.959   1.148   5.597 -0.4667 -0.1593 -0.5259
18133TIP3    H175814   5.011   1.071   5.620 -1.3468 -0.9056 -0.9974
18133TIP3    H275815   5.003   1.221   5.641  0.6806 -0.8488 -0.5063
18134TIP3   OH275816   4.715   3.568   1.337  0.2117 -0.1608  0.1324
18134TIP3    H175817   4.661   3.491   1.351 -1.4855  1.0246  0.3507
18134TIP3    H275818   4.727   3.606   1.424 -0.8194  1.0045 -0.2092
18135TIP3   OH275819   6.589   2.441   5.018  0.2535  0.1693 -0.3101
18135TIP3    H175820   6.669   2.391   5.033  0.3105  0.3616  0.0363
18135TIP3    H275821   6.606   2.527   5.057 -0.8797 -0.4513  1.7730
18136TIP3   OH275822   1.240   4.446  13.555  0.3212  0.1350  0.4844
18136TIP3    H175823   1.234   4.540  13.568 -0.1400  0.0600  0.8393
18136TIP3    H275824   1.184   4.408  13.623  1.5425 -0.4534  1.2230
18137TIP3   OH275825   0.576   4.162  15.130 -0.0231  0.5498 -0.7245
18137TIP3    H175826   0.639   4.230  15.110  1.0906 -0.0966  0.4329
18137TIP3    H275827   0.520   4.157  15.053  1.0163  1.4976 -1.5662
18138TIP3   OH275828   4.639   0.210  15.532  0.1454 -0.7847  0.0733
18138TIP3    H175829   4.702   0.281  15.520  1.4584 -2.3308 -3.8618
18138TIP3    H275830   4.680   0.153  15.598  2.6621 -1.3537 -1.8173
18139TIP3   OH275831   0.072   1.227  15.250  0.3969  0.8898  0.2065
18139TIP3    H175832  -0.001   1.165  15.255  0.0759  1.0347 -1.7868
18139TIP3    H275833   0.093   1.247  15.341 -0.5100 -0.9491  0.8622
18140TIP3   OH275834   5.103   2.351  14.019  0.3250 -0.2116  0.2467
18140TIP3    H175835   5.098   2.442  14.049  0.5858 -0.8669  2.4166
18140TIP3    H275836   5.012   2.321  14.016  0.2657 -0.0037 -0.1216
18141TIP3   OH275837   2.016   0.337   6.422  0.8214  0.2694 -0.2438
18141TIP3    H175838   1.999   0.431   6.425  1.0024  0.3003 -0.2082
18141TIP3    H275839   2.104   0.327   6.459  1.0740  0.1570 -0.8668
18142TIP3   OH275840   2.778   4.957  11.047  0.9981 -0.2800  0.2482
18142TIP3    H175841   2.719   4.895  11.090  1.0547 -1.6688 -1.5791
18142TIP3    H275842   2.731   5.040  11.047  0.1744 -0.7292  1.1455
18143TIP3   OH275843   3.971   1.923  13.414 -0.4398 -0.0686  0.2040
18143TIP3    H175844   4.002   1.883  13.495 -1.7005 -2.1703 -0.2593
18143TIP3    H275845   4.027   1.885  13.346 -0.9501 -0.2111 -0.1438
18144TIP3   OH275846   1.858   1.253  12.984 -0.2181 -0.5659 -0.5181
18144TIP3    H175847   1.871   1.263  13.079 -0.1788  0.3263 -0.6135
18144TIP3    H275848   1.901   1.170  12.963  1.4091  0.1313 -0.0599
18145TIP3   OH275849   2.300   1.456   3.497  0.0784 -0.3918  0.2605
18145TIP3    H175850   2.341   1.480   3.580  1.4654 -0.5247 -0.3591
18145TIP3    H275851   2.278   1.539   3.456  2.4292 -0.1669 -0.6869
18146TIP3   OH275852   3.042   0.167  14.739 -0.0342  0.1779 -0.3902
18146TIP3    H175853   3.056   0.098  14.804  2.3692  0.2194 -0.7738
18146TIP3    H275854   3.101   0.144  14.667 -0.9623  1.3661 -1.5683
18147TIP3   OH275855   2.724   2.247  15.998  0.5545  0.2433 -0.3845
18147TIP3    H175856   2.673   2.166  16.007  0.5950  0.1603 -0.9124
18147TIP3    H275857   2.804   2.230  16.048 -0.2866  0.6827  1.1666
18148TIP3   OH275858   0.513   6.141   5.831 -0.0600 -0.3803  0.0098
18148TIP3    H175859   0.434   6.195   5.844  2.4739  3.8513 -0.3214
18148TIP3    H275860   0.509   6.115   5.739 -0.3155  1.3096 -0.4948
18149TIP3   OH275861   6.208   0.160   3.136  0.2558 -0.4273 -0.7117
18149TIP3    H175862   6.231   0.139   3.227 -2.0240 -0.9111 -0.1721
18149TIP3    H275863   6.157   0.240   3.142 -1.6293 -1.5271 -1.2682
18150TIP3   OH275864   0.193   1.345   2.188 -0.2356 -0.1902 -0.3302
18150TIP3    H175865   0.239   1.421   2.223 -1.2412  0.6163 -0.6779
18150TIP3    H275866   0.137   1.316   2.259  0.5757 -0.9799 -0.0061
18151TIP3   OH275867   1.893   1.707  15.683 -0.1276 -0.0362  0.8054
18151TIP3    H175868   1.916   1.627  15.730  0.7004 -0.0249  0.4427
18151TIP3    H275869   1.945   1.776  15.726 -1.5054  0.4828  1.7009
18152TIP3   OH275870   3.855   4.082   4.025  0.0543 -0.2503 -0.0793
18152TIP3    H175871   3.857   4.161   3.970 -2.4446  0.5939  0.8856
18152TIP3    H275872   3.914   4.102   4.097  0.7346  0.0279 -0.7009
18153TIP3   OH275873   5.074   2.535   0.706 -0.2559 -0.2137  0.0730
18153TIP3    H175874   4.989   2.527   0.749 -0.6273 -0.7227 -0.7138
18153TIP3    H275875   5.085   2.628   0.690 -0.3598 -0.0784  0.7674
18154TIP3   OH275876   2.271   1.261  12.461 -0.5305  0.1902 -0.0179
18154TIP3    H175877   2.248   1.316  12.535  3.1186  0.5916  1.0008
18154TIP3    H275878   2.302   1.322  12.394 -0.3358 -0.3827 -0.4589
18155TIP3   OH275879   6.727   5.122  12.047 -0.5018  0.2198 -0.2378
18155TIP3    H175880   6.809   5.101  12.092 -1.0846 -0.9052  0.3497
18155TIP3    H275881   6.748   5.113  11.954  0.7111  2.5542 -0.2528
18156TIP3   OH275882   6.498   1.930   6.983  0.0739  0.6108  0.2530
18156TIP3    H175883   6.419   1.960   6.940  0.5417  1.1509 -0.2473
18156TIP3    H275884   6.564   1.927   6.914  0.2595 -0.7573  0.4636
18157TIP3   OH275885   1.931   5.479   2.395 -0.1912 -0.4675 -0.0274
18157TIP3    H175886   1.936   5.571   2.420 -0.6823 -0.5575  0.4153
18157TIP3    H275887   1.848   5.448   2.432  1.5702 -2.0225  2.9674
18158TIP3   OH275888   3.432   6.011   0.502  0.0476 -0.2648  0.5256
18158TIP3    H175889   3.433   5.960   0.422  0.5020 -0.1245  0.4376
18158TIP3    H275890   3.446   6.102   0.473 -2.5370  0.2019  0.4926
18159TIP3   OH275891   5.281   4.668  12.807 -0.0519  0.0407  0.6912
18159TIP3    H175892   5.322   4.583  12.820 -0.1691 -0.0210  0.6559
18159TIP3    H275893   5.312   4.697  12.721 -0.3164 -0.1395  0.5306
18160TIP3   OH275894   4.295   5.499   6.292 -0.0249 -0.0708 -0.0533
18160TIP3    H175895   4.328   5.430   6.350  0.7551 -0.0146 -0.4233
18160TIP3    H275896   4.326   5.475   6.205 -1.6444 -0.4479 -0.5644
18161TIP3   OH275897   4.949   5.710  12.042  0.3377 -0.6962  0.3621
18161TIP3    H175898   4.870   5.682  12.088 -0.7893  0.6862 -0.6399
18161TIP3    H275899   4.926   5.708  11.950  0.9583  1.1408  0.1177
18162TIP3   OH275900   0.772   2.461  15.687  0.5373 -0.3922 -0.0116
18162TIP3    H175901   0.693   2.481  15.737  1.1674  0.9168  0.5050
18162TIP3    H275902   0.766   2.367  15.668 -1.4531 -0.1859 -0.5594
18163TIP3   OH275903   3.097   3.743  13.704  0.0340  0.4465 -0.5596
18163TIP3    H175904   3.099   3.647  13.704 -1.3733  0.3716  1.0716
18163TIP3    H275905   3.011   3.765  13.669  0.3612  1.1316 -0.9497
18164TIP3   OH275906   2.772   5.515  16.250 -0.1936 -0.1466 -0.4643
18164TIP3    H175907   2.856   5.551  16.225  0.3987 -1.3362 -0.2572
18164TIP3    H275908   2.782   5.420  16.241 -1.1371 -0.3868  0.6642
18165TIP3   OH275909   4.656   4.715   5.431 -0.3362  0.0656  0.2539
18165TIP3    H175910   4.576   4.682   5.471  0.2180  0.5464  1.8394
18165TIP3    H275911   4.714   4.639   5.425  0.3822  0.3915  2.4757
18166TIP3   OH275912   5.680   6.441  17.272 -0.2988  0.4448  0.3514
18166TIP3    H175913   5.748   6.503  17.301 -2.1020  1.9873  1.5575
18166TIP3    H275914   5.644   6.406  17.353 -1.0256 -0.2552 -0.2629
18167TIP3   OH275915   3.849   1.514   6.338 -0.3544  0.1342  0.5138
18167TIP3    H175916   3.854   1.420   6.359 -0.5691  0.6825  3.5712
18167TIP3    H275917   3.938   1.536   6.310  0.2910 -0.6412  1.8092
18168TIP3   OH275918   5.600   1.786   1.285 -0.6248  0.0935  0.1074
18168TIP3    H175919   5.610   1.735   1.205 -1.5517  0.6521 -0.3774
18168TIP3    H275920   5.535   1.737   1.336  1.7075 -1.6017  1.6620
18169TIP3   OH275921   4.662   2.942  15.811  0.1739  0.2537 -0.5114
18169TIP3    H175922   4.682   3.036  15.810  0.3405  0.2282 -1.5382
18169TIP3    H275923   4.566   2.938  15.813  0.1627  0.4517 -0.6127
18170TIP3   OH275924   1.635   1.934  14.645  0.0077 -0.3090 -0.0021
18170TIP3    H175925   1.708   1.993  14.665  0.9003 -1.3530 -0.0405
18170TIP3    H275926   1.557   1.983  14.669  0.6507  1.2366 -0.9113
18171TIP3   OH275927   6.027   0.269  14.047  0.8917 -0.0669 -0.2608
18171TIP3    H175928   6.008   0.297  14.137  3.0027  0.3414  0.1081
18171TIP3    H275929   5.974   0.190  14.035 -1.9819  1.6815  0.1429
18172TIP3   OH275930   1.384   1.549   3.475  0.3092 -0.8244  0.4132
18172TIP3    H175931   1.362   1.640   3.453  0.6724 -0.0543  2.9485
18172TIP3    H275932   1.475   1.539   3.450  0.5873 -0.1167  1.0975
18173TIP3   OH275933   0.557   4.211  12.730  0.0835  0.4698 -0.9701
18173TIP3    H175934   0.645   4.192  12.698  0.6086  0.6362  0.3026
18173TIP3    H275935   0.557   4.306  12.745  0.2780  0.2527  0.6117
18174TIP3   OH275936   1.963   0.774   1.369  0.1514 -0.3496  0.4662
18174TIP3    H175937   2.019   0.772   1.291  0.2887 -0.3588  0.5653
18174TIP3    H275938   1.915   0.857   1.362  1.1979  0.3287  1.0962
18175TIP3   OH275939   5.641   5.677   6.004 -0.0891  0.1893 -0.0697
18175TIP3    H175940   5.603   5.737   6.068 -1.2763 -1.2053  0.6003
18175TIP3    H275941   5.725   5.652   6.041  0.0944  0.8632 -0.0126
18176TIP3   OH275942   0.526   1.501  11.898  0.1377  0.6547  0.0936
18176TIP3    H175943   0.431   1.497  11.897  0.1120 -0.6644  1.9476
18176TIP3    H275944   0.554   1.409  11.901  1.3910  1.0312  1.1911
18177TIP3   OH275945   6.402   5.204   4.899 -0.9313 -0.0821  0.0338
18177TIP3    H175946   6.389   5.184   4.807  1.4768  2.5758 -1.0264
18177TIP3    H275947   6.495   5.188   4.915 -0.5863  2.4346  1.0663
18178TIP3   OH275948   6.286   0.052  15.564  0.6247 -0.2254 -0.1482
18178TIP3    H175949   6.195   0.022  15.564  0.3494  0.5212  1.1922
18178TIP3    H275950   6.280   0.145  15.585  1.7297 -0.3075  0.5909
18179TIP3   OH275951   6.072   0.204   3.986 -0.1772 -0.2732 -0.1493
18179TIP3    H175952   6.046   0.248   4.067  1.8019 -0.5638  0.6913
18179TIP3    H275953   6.032   0.256   3.916 -1.5392  0.2438  0.9790
18180TIP3   OH275954   4.449   1.484  15.499  0.2355 -0.2472 -0.1790
18180TIP3    H175955   4.357   1.511  15.493  0.3420 -0.0447 -0.9149
18180TIP3    H275956   4.474   1.460  15.410  0.4613 -1.7799  0.2555
18181TIP3   OH275957   0.544   6.632  14.672 -0.1276  0.9294  0.4200
18181TIP3    H175958   0.578   6.613  14.759  1.9868  0.6820 -0.4120
18181TIP3    H275959   0.552   6.550  14.624  0.8152  1.5973 -0.6311
18182TIP3   OH275960   0.807   5.156   1.858  0.4191 -0.0879 -0.0143
18182TIP3    H175961   0.738   5.209   1.898 -0.2337 -0.9103 -0.0183
18182TIP3    H275962   0.814   5.189   1.769  0.6146  0.5473  0.2317
18183TIP3   OH275963   1.900   4.382  15.405  0.5801  0.0895  0.2354
18183TIP3    H175964   1.968   4.449  15.393  2.5051 -1.9315 -1.0011
18183TIP3    H275965   1.863   4.369  15.317  1.7810 -1.8990 -0.0534
18184TIP3   OH275966   4.385   2.046   5.334  0.6748 -0.7916 -0.3475
18184TIP3    H175967   4.405   2.022   5.243  1.2190  0.4631 -0.5808
18184TIP3    H275968   4.449   1.997   5.386  0.7161 -1.0913 -0.6731
18185TIP3   OH275969   5.581   3.772   2.489 -0.3694 -0.2289  0.2971
18185TIP3    H175970   5.648   3.837   2.468  0.4371 -0.6391  1.5212
18185TIP3    H275971   5.501   3.824   2.500  0.5219  0.8152  2.6249
18186TIP3   OH275972   2.864   6.324   0.964  0.0859  0.2808  0.5396
18186TIP3    H175973   2.802   6.267   1.008 -1.7213 -1.1094 -3.3007
18186TIP3    H275974   2.932   6.265   0.931 -1.2852  0.2524 -2.6239
18187TIP3   OH275975   1.582   3.151   3.430  0.2084  0.6046 -0.3852
18187TIP3    H175976   1.556   3.243   3.433 -1.1141  0.2829 -0.9965
18187TIP3    H275977   1.519   3.108   3.489  1.7138  0.2638  1.0393
18188TIP3   OH275978   0.227   2.578   2.428  0.1324  0.4739  0.5519
18188TIP3    H175979   0.245   2.488   2.454 -0.0153  0.8771  2.1652
18188TIP3    H275980   0.238   2.578   2.333  1.5552 -0.9012  0.6728
18189TIP3   OH275981   4.741   2.964   2.889 -0.0081 -0.4656  0.0489
18189TIP3    H175982   4.829   2.973   2.853  0.6669  0.3994  1.7945
18189TIP3    H275983   4.705   2.887   2.845  0.5650  0.7060 -2.6927
18190TIP3   OH275984   2.640   1.063  13.611 -0.4537 -1.0986  0.2268
18190TIP3    H175985   2.565   1.111  13.647 -0.1271  0.2142 -0.7868
18190TIP3    H275986   2.714   1.088  13.666 -0.2876 -0.4224 -0.2895
18191TIP3   OH275987   6.031   4.147   2.463  0.0511  0.1592 -0.1649
18191TIP3    H175988   6.114   4.193   2.473 -0.6565  1.8193 -1.3020
18191TIP3    H275989   5.965   4.209   2.495 -0.9505  0.0330 -1.8352
18192TIP3   OH275990   0.382   3.601  14.275  0.4052  0.3651 -0.0742
18192TIP3    H175991   0.348   3.690  14.266 -1.0593 -0.3403 -2.2778
18192TIP3    H275992   0.358   3.557  14.194  1.0354 -2.0874  0.9563
18193TIP3   OH275993   2.560   2.468   3.238  1.0552 -0.1208 -0.0903
18193TIP3    H175994   2.653   2.478   3.220  1.0564 -0.0475 -0.0467
18193TIP3    H275995   2.526   2.558   3.236  0.8734 -0.2000 -0.7062
18194TIP3   OH275996   4.602   6.672   2.924 -0.3651 -0.0659  0.2283
18194TIP3    H175997   4.547   6.667   2.846  0.5145 -3.1004 -0.3239
18194TIP3    H275998   4.683   6.629   2.899  0.0938 -0.7903  2.6959
18195TIP3   OH275999   6.039   3.022  17.011  0.3960  0.7579 -0.0189
18195TIP3    H176000   5.949   3.052  17.005  0.0884 -0.2721 -0.6743
18195TIP3    H276001   6.071   3.059  17.094 -0.5212  1.3722  0.0749
18196TIP3   OH276002   2.035   2.525  11.397 -0.3028  0.6670  0.1447
18196TIP3    H176003   1.964   2.582  11.367 -2.0214 -0.6211  1.5320
18196TIP3    H276004   2.097   2.585  11.439 -1.7201  1.6315  0.9579
18197TIP3   OH276005   0.802   1.865   2.571 -0.0486  0.4489 -0.0217
18197TIP3    H176006   0.843   1.951   2.560  0.6992  0.1747  0.5349
18197TIP3    H276007   0.722   1.882   2.620  0.6816  0.7015  1.1191
18198TIP3   OH276008   6.062   3.592  13.881 -0.2810  0.1937  0.1887
18198TIP3    H176009   6.137   3.542  13.911 -0.7938  0.7398  2.6011
18198TIP3    H276010   6.085   3.683  13.900 -0.3052  0.7385 -2.0099
18199TIP3   OH276011   6.230   0.024  12.345 -0.8715 -0.1292  0.0274
18199TIP3    H176012   6.157   0.060  12.294  0.3819  3.6197  0.5638
18199TIP3    H276013   6.298   0.008  12.279 -1.5059 -1.9139 -0.2425
18200TIP3   OH276014   1.746   4.361   4.220  0.2257  0.1367 -0.0785
18200TIP3    H176015   1.697   4.354   4.138  0.1322 -0.8274  0.0418
18200TIP3    H276016   1.820   4.418   4.200  1.1180 -1.3826 -1.3060
18201TIP3   OH276017   3.146   3.431  16.756  0.1681 -0.0146  0.2417
18201TIP3    H176018   3.239   3.416  16.773  0.1398  1.0478  1.4377
18201TIP3    H276019   3.126   3.512  16.802 -1.4794 -0.5083  0.4472
18202TIP3   OH276020   1.802   5.815   1.125  0.6295 -0.1183  0.2923
18202TIP3    H176021   1.757   5.845   1.046 -0.2719 -3.3192 -0.5517
18202TIP3    H276022   1.732   5.806   1.190  0.8412 -0.5538  0.4616
18203TIP3   OH276023   5.338   6.639   1.436  0.7482  0.1677  0.7013
18203TIP3    H176024   5.344   6.587   1.356  1.0981 -2.1212  2.1158
18203TIP3    H276025   5.414   6.697   1.432 -0.5264  1.8123 -1.6790
18204TIP3   OH276026   3.683   1.317   4.696 -0.3736 -0.0018  0.3315
18204TIP3    H176027   3.651   1.292   4.783  1.8486 -1.1621  0.8718
18204TIP3    H276028   3.674   1.413   4.694 -0.2592  0.0728  1.9305
18205TIP3   OH276029   4.162   3.533  11.848  0.0299  0.3532 -0.0775
18205TIP3    H176030   4.154   3.507  11.756 -3.0839 -0.2506  0.2504
18205TIP3    H276031   4.209   3.462  11.889 -0.6956 -0.5804 -0.8057
18206TIP3   OH276032   1.279   3.688   5.144 -0.3679 -0.0819 -0.0940
18206TIP3    H176033   1.289   3.619   5.209  2.4134  0.8636  0.6449
18206TIP3    H276034   1.343   3.666   5.076 -2.0524 -0.1530 -1.7200
18207TIP3   OH276035   1.333   0.427   5.925  0.5359 -0.2978 -0.5441
18207TIP3    H176036   1.358   0.345   5.883  0.5705 -0.3721 -0.3820
18207TIP3    H276037   1.271   0.400   5.994 -0.6858 -0.0374 -1.5120
18208TIP3   OH276038   5.994   0.567  12.715 -0.2769  0.2778 -0.5377
18208TIP3    H176039   6.000   0.612  12.799  1.4300 -1.3547  0.2928
18208TIP3    H276040   5.919   0.608  12.671 -2.6269 -0.2140  2.6228
18209TIP3   OH276041   0.235   3.841  15.835 -0.8627 -0.1402  0.7582
18209TIP3    H176042   0.139   3.839  15.828 -0.8636  0.7062  0.3150
18209TIP3    H276043   0.260   3.919  15.784  0.0532 -0.3168  0.9337
18210TIP3   OH276044   2.203   6.640  15.465 -0.0830  0.1762  0.0790
18210TIP3    H176045   2.178   6.655  15.374 -0.3785 -0.8693 -0.0330
18210TIP3    H276046   2.240   6.551  15.465  0.4658  0.3945  0.8715
18211TIP3   OH276047   3.724   1.923   5.635 -0.2485  0.0619 -0.1703
18211TIP3    H176048   3.765   1.869   5.568  1.4073  0.9820  0.0259
18211TIP3    H276049   3.639   1.882   5.651  1.0648 -2.7209  0.2843
18212TIP3   OH276050   0.227   6.369  14.712 -0.5470  0.0933 -0.6366
18212TIP3    H176051   0.279   6.395  14.789  0.1287 -1.8240 -0.3919
18212TIP3    H276052   0.138   6.361  14.744 -0.6475  1.3389 -0.5617
18213TIP3   OH276053   4.820   5.053   0.340  0.3033  0.0030  0.0745
18213TIP3    H176054   4.794   4.992   0.271  1.4316 -0.2546 -0.1408
18213TIP3    H276055   4.904   5.088   0.310 -0.0350  1.2153  0.4848
18214TIP3   OH276056   5.035   2.701  10.702  0.0666  0.1203 -0.1279
18214TIP3    H176057   5.101   2.672  10.766 -0.4539  0.0903  0.4118
18214TIP3    H276058   5.085   2.746  10.635  0.8170 -1.2380 -0.5340
18215TIP3   OH276059   3.654   1.819   3.999 -0.5631 -0.2616  0.0309
18215TIP3    H176060   3.662   1.744   4.058 -0.5094 -0.8188 -0.6773
18215TIP3    H276061   3.740   1.860   4.001 -0.7746  0.1743  0.9203
18216TIP3   OH276062   5.234   3.303   6.259  0.1248  0.6133 -0.0247
18216TIP3    H176063   5.323   3.336   6.269  0.7134 -1.0687  0.5629
18216TIP3    H276064   5.245   3.210   6.237 -1.4798  0.3146  0.3137
18217TIP3   OH276065   1.966   4.332   0.563 -0.4786 -0.4146 -0.3928
18217TIP3    H176066   1.889   4.375   0.527 -0.7683  0.5117  1.2307
18217TIP3    H276067   1.982   4.376   0.646  1.7363 -0.6754 -0.6090
18218TIP3   OH276068   0.866   3.654   4.200  0.3257 -0.2815 -0.2614
18218TIP3    H176069   0.822   3.725   4.246  0.7307  0.2433 -0.6716
18218TIP3    H276070   0.800   3.584   4.194 -0.2163  0.2267 -0.2512
18219TIP3   OH276071   6.252   5.538   6.355 -0.2919  0.0006 -0.2347
18219TIP3    H176072   6.219   5.462   6.404  2.1746 -2.9838 -2.7326
18219TIP3    H276073   6.210   5.531   6.269  1.0905  0.5144 -0.9831
18220TIP3   OH276074   1.944   0.930  10.626  0.6453  0.1300 -0.3048
18220TIP3    H176075   1.927   0.850  10.577  0.0402  0.1026 -0.0563
18220TIP3    H276076   1.858   0.974  10.631  1.0318  0.9673 -0.7512
18221TIP3   OH276077   2.732   0.801   0.406 -0.3070 -0.9241 -0.0697
18221TIP3    H176078   2.784   0.779   0.483 -0.0402  1.5037  0.4967
18221TIP3    H276079   2.718   0.895   0.411 -1.4450 -0.8948 -2.2964
18222TIP3   OH276080   4.584   6.564  15.937  0.4012  0.3903 -0.8525
18222TIP3    H176081   4.607   6.589  15.847  0.4300  0.3762 -0.8488
18222TIP3    H276082   4.493   6.593  15.946 -0.0818 -0.9148 -1.3703
18223TIP3   OH276083   3.748   2.031   6.117 -0.5225  0.3187 -0.2889
18223TIP3    H176084   3.696   1.974   6.173 -1.7378  0.9333 -0.7406
18223TIP3    H276085   3.838   2.002   6.128 -0.6648  0.6733  2.2637
18224TIP3   OH276086   2.948   2.443   1.587  0.2615 -0.6856  0.0205
18224TIP3    H176087   3.013   2.387   1.544 -0.4514 -2.5869  1.2998
18224TIP3    H276088   3.000   2.511   1.629  1.3169 -1.3410 -0.1677
18225TIP3   OH276089   1.942   0.610  11.629  0.1528  0.2313 -0.7473
18225TIP3    H176090   2.020   0.630  11.681 -0.3315 -1.4766  0.7376
18225TIP3    H276091   1.972   0.545  11.566  0.6866  2.1391 -2.5913
18226TIP3   OH276092   6.225   5.517   5.255  0.2038 -0.0055 -0.3583
18226TIP3    H176093   6.134   5.488   5.263  0.2258  0.1441  0.5322
18226TIP3    H276094   6.276   5.440   5.277  0.2967 -0.0524 -0.7316
18227TIP3   OH276095   1.551   2.011   5.051 -0.3506 -0.2267  0.8056
18227TIP3    H176096   1.495   1.973   4.983 -0.0791 -1.3268  1.1778
18227TIP3    H276097   1.491   2.029   5.124 -0.2115 -1.5709  1.2711
18228TIP3   OH276098   5.892   3.615  13.549 -0.5698  0.2030 -0.0953
18228TIP3    H176099   5.980   3.646  13.568 -1.5394  2.4437  1.2467
18228TIP3    H276100   5.864   3.665  13.472 -0.1384 -1.7215 -1.5705
18229TIP3   OH276101   2.506   3.519  11.038  0.4004  0.0847 -0.4150
18229TIP3    H176102   2.506   3.426  11.061 -0.9077  0.3722  0.9453
18229TIP3    H276103   2.582   3.530  10.982  1.2248 -1.6011  0.2962
18230TIP3   OH276104   5.784   6.014  14.510 -0.0268  0.1576 -0.2713
18230TIP3    H176105   5.799   5.931  14.555  0.5350  0.4650  0.1206
18230TIP3    H276106   5.703   6.000  14.461  0.1394 -0.6673 -0.3248
18231TIP3   OH276107   1.810   2.622  12.074 -0.1647 -0.4635  0.0183
18231TIP3    H176108   1.785   2.670  11.995  1.8136  2.2683  0.8640
18231TIP3    H276109   1.766   2.668  12.146  0.3155 -1.0939  0.7394
18232TIP3   OH276110   1.950   6.208  15.866 -0.7041  0.1878 -0.2054
18232TIP3    H176111   2.005   6.284  15.887 -1.3460  0.5195  0.3169
18232TIP3    H276112   1.865   6.246  15.842 -1.7908 -0.3883  2.3174
18233TIP3   OH276113   6.393   6.325   3.339 -0.5472  0.3321  0.1220
18233TIP3    H176114   6.362   6.409   3.306  2.1241  0.8808 -1.2655
18233TIP3    H276115   6.489   6.334   3.341 -0.2036 -2.5234  0.3831
18234TIP3   OH276116   0.323   3.327  13.612  0.4657 -0.6404 -0.2826
18234TIP3    H176117   0.264   3.368  13.548  1.2365  0.7733 -0.1184
18234TIP3    H276118   0.300   3.234  13.609 -1.6144 -0.1854 -0.3906
18235TIP3   OH276119   4.460   4.071   5.548 -0.2104 -0.9081 -0.4196
18235TIP3    H176120   4.513   4.149   5.533 -2.1546 -0.0704 -4.1416
18235TIP3    H276121   4.436   4.076   5.640  1.3065  1.8377 -0.0608
18236TIP3   OH276122   0.277   1.717  12.950 -0.4495 -0.1850 -0.4361
18236TIP3    H176123   0.213   1.721  12.880 -0.3548  1.5056 -0.4684
18236TIP3    H276124   0.294   1.809  12.973  0.7482 -0.6411  0.6668
18237TIP3   OH276125   4.608   5.498   4.499  0.9656  0.2396  0.0068
18237TIP3    H176126   4.669   5.455   4.440  1.2296 -2.2299  1.8937
18237TIP3    H276127   4.643   5.480   4.586 -0.0745  2.6558  1.0134
18238TIP3   OH276128   5.540   1.746  13.925 -0.2552 -0.1532  0.1684
18238TIP3    H176129   5.503   1.705  13.847 -1.0733 -1.2836  1.1220
18238TIP3    H276130   5.493   1.706  13.999  0.2310  1.1573  1.2351
18239TIP3   OH276131   3.156   4.044   3.786  0.3468 -0.1454  0.2084
18239TIP3    H176132   3.218   4.054   3.858 -1.4203  0.9388  1.6731
18239TIP3    H276133   3.105   3.967   3.809 -0.2362  0.2127  0.1428
18240TIP3   OH276134   6.348   0.978   1.026  0.7690  0.0045 -0.0701
18240TIP3    H176135   6.334   0.935   1.110  1.8329  1.4949  0.9124
18240TIP3    H276136   6.437   0.953   1.000  0.3635 -0.6507 -0.9176
18241TIP3   OH276137   4.120   3.344  11.503  0.5932  0.0250 -0.4935
18241TIP3    H176138   4.162   3.260  11.480  0.8853 -0.1134  0.5099
18241TIP3    H276139   4.157   3.406  11.440  1.2144 -0.3888 -0.5535
18242TIP3   OH276140   1.339   1.081   2.408  0.4320  0.4263 -0.2296
18242TIP3    H176141   1.340   1.167   2.365 -1.1683 -0.2662 -1.7649
18242TIP3    H276142   1.382   1.096   2.492  3.5858  1.8896 -1.9211
18243TIP3   OH276143   6.366   3.439  13.378 -0.1153  0.4503 -0.3674
18243TIP3    H176144   6.443   3.494  13.366 -0.9074  1.0687 -3.3260
18243TIP3    H276145   6.361   3.387  13.298 -4.3714  2.6172 -1.8123
18244TIP3   OH276146   4.564   5.255   0.162 -0.0989  0.2163  0.6418
18244TIP3    H176147   4.580   5.161   0.173 -0.5494  0.3158  2.4660
18244TIP3    H276148   4.487   5.260   0.106  0.7137 -0.4480 -0.5835
18245TIP3   OH276149   5.674   5.115  12.735  0.1332 -0.3568  0.1731
18245TIP3    H176150   5.730   5.117  12.812 -0.2103 -0.3902  0.4258
18245TIP3    H276151   5.588   5.089  12.768 -0.4919  1.4883  0.0805
18246TIP3   OH276152   0.711   1.256   5.108  0.5406 -0.7318 -0.6238
18246TIP3    H176153   0.658   1.188   5.151  1.7915 -0.7676  0.9521
18246TIP3    H276154   0.710   1.231   5.015 -0.0902 -2.1682 -0.2665
18247TIP3   OH276155   4.825   3.699   3.055 -0.0667 -0.0393  0.0963
18247TIP3    H176156   4.736   3.671   3.034 -0.0405 -1.1693  1.3300
18247TIP3    H276157   4.881   3.651   2.994 -0.2770  0.5111 -0.5407
18248TIP3   OH276158   5.397   0.288  13.783  0.1048 -0.0926  0.7763
18248TIP3    H176159   5.474   0.239  13.756  0.0436  0.5211 -0.5685
18248TIP3    H276160   5.429   0.351  13.848  0.8445  0.5172 -0.1625
18249TIP3   OH276161   2.335   6.612   1.474  0.0550  0.6287 -0.6335
18249TIP3    H176162   2.370   6.523   1.478  1.2642  1.0606 -1.3134
18249TIP3    H276163   2.411   6.669   1.480 -0.5975  1.6111 -1.2893
18250TIP3   OH276164   4.427   5.815  15.794 -0.2443  0.5196  0.1552
18250TIP3    H176165   4.470   5.884  15.844 -0.6954  1.8938 -1.2623
18250TIP3    H276166   4.333   5.830  15.808 -0.3886  1.0621 -1.1933
18251TIP3   OH276167   1.214   5.385  15.024  0.5061  0.3360 -0.1990
18251TIP3    H176168   1.302   5.379  14.986  1.1609  1.6076  1.0085
18251TIP3    H276169   1.178   5.467  14.989  0.3540  0.5197  0.3710
18252TIP3   OH276170   1.162   2.444   0.072  0.6106  0.0542  0.4830
18252TIP3    H176171   1.095   2.417   0.009 -0.3973 -0.3165  1.6792
18252TIP3    H276172   1.196   2.526   0.036  0.5130 -0.4591 -0.8607
18253TIP3   OH276173   5.643   4.293  15.127 -0.4682  0.2579  0.3971
18253TIP3    H176174   5.729   4.334  15.123 -0.7786  0.8909 -0.1463
18253TIP3    H276175   5.591   4.343  15.063 -1.5290  0.5838  1.4919
18254TIP3   OH276176   4.260   2.793  13.221 -0.3389  0.2444  0.5763
18254TIP3    H176177   4.315   2.736  13.168 -0.4445  2.4585 -2.1054
18254TIP3    H276178   4.170   2.763  13.204 -0.3900  1.1146 -0.7683
18255TIP3   OH276179   5.417   4.121  14.357  0.1301 -0.8686 -0.8233
18255TIP3    H176180   5.395   4.104  14.266  1.3075 -1.4033 -1.0248
18255TIP3    H276181   5.382   4.045  14.405 -2.7334  0.5750 -0.4290
18256TIP3   OH276182   1.986   1.928  13.087 -0.4567 -0.3017  0.1229
18256TIP3    H176183   1.989   1.913  13.181 -1.1469  1.0314  0.3871
18256TIP3    H276184   1.959   2.020  13.078 -0.5375 -0.4407 -1.3701
18257TIP3   OH276185   0.750   3.024  12.113  0.7348  0.4211  0.5157
18257TIP3    H176186   0.814   2.965  12.154  1.3210  0.0554 -0.8707
18257TIP3    H276187   0.761   3.010  12.019  0.7753  2.6414  0.1385
18258TIP3   OH276188   1.762   2.238  15.041  0.2960 -0.2289  0.4186
18258TIP3    H176189   1.821   2.287  15.098  0.2116  0.3228  0.0421
18258TIP3    H276190   1.677   2.281  15.051  0.0072 -0.8483  0.7480
18259TIP3   OH276191   6.717   1.340  15.699 -0.5514  0.0419 -0.4995
18259TIP3    H176192   6.672   1.424  15.708 -1.3424 -0.2822 -1.2383
18259TIP3    H276193   6.647   1.277  15.681 -0.0527 -0.9170  0.7776
18260TIP3   OH276194   2.735   3.850   2.179 -0.3233 -0.2058  0.3976
18260TIP3    H176195   2.752   3.757   2.163 -2.1927 -0.5174 -0.0345
18260TIP3    H276196   2.754   3.861   2.273 -2.1556 -1.5808  0.9951
18261TIP3   OH276197   3.555   4.250  12.822 -0.1597  0.0148 -0.1088
18261TIP3    H176198   3.561   4.345  12.830  0.3060 -0.1714  3.5049
18261TIP3    H276199   3.534   4.220  12.910  1.2212 -3.3523 -0.7746
18262TIP3   OH276200   1.189   0.666   0.040  0.1012  0.2003  0.4079
18262TIP3    H176201   1.233   0.581   0.046 -0.0569  0.1773  1.4071
18262TIP3    H276202   1.186   0.685  -0.054  1.9245  0.0365  0.2800
18263TIP3   OH276203   2.415   5.797  12.871  0.3294  0.1641 -0.1592
18263TIP3    H176204   2.415   5.811  12.966 -0.6223  0.0891 -0.1453
18263TIP3    H276205   2.346   5.732  12.856  0.2174  0.4560 -0.9471
18264TIP3   OH276206   4.087   5.137  15.767 -0.1910 -0.1150  0.4790
18264TIP3    H176207   4.154   5.173  15.826 -0.5502 -1.1302  1.5186
18264TIP3    H276208   4.005   5.175  15.798 -0.1973  0.6139 -0.3913
18265TIP3   OH276209   4.037   6.524   1.414  0.1888 -0.3107  0.0588
18265TIP3    H176210   4.005   6.612   1.392 -0.9796 -0.9882 -1.1304
18265TIP3    H276211   3.958   6.469   1.410  0.5351 -1.1064  2.7064
18266TIP3   OH276212   1.451   5.197   0.354  0.1108 -0.2965 -0.2867
18266TIP3    H176213   1.384   5.265   0.346  0.0902 -0.0704  1.4753
18266TIP3    H276214   1.479   5.200   0.446  1.1525 -1.6967 -0.5092
18267TIP3   OH276215   5.343   4.168   2.407  0.0274 -0.2811 -0.3590
18267TIP3    H176216   5.363   4.101   2.472  0.9878  1.1519  0.8890
18267TIP3    H276217   5.424   4.179   2.358  0.2680  0.8294  0.2702
18268TIP3   OH276218   0.752   3.242  13.059  0.5600  0.7714  0.4941
18268TIP3    H176219   0.797   3.249  12.975 -1.2481  2.1020 -0.4398
18268TIP3    H276220   0.749   3.148  13.077  3.7295  0.6064  0.7105
18269TIP3   OH276221   4.891   3.994  15.115  0.5611  0.4933  0.0050
18269TIP3    H176222   4.877   4.088  15.104  0.9104  0.4293 -1.0843
18269TIP3    H276223   4.888   3.980  15.210  1.1019  1.6929  0.2180
18270TIP3   OH276224   5.592   6.540  13.626 -0.1258  0.6779  0.8688
18270TIP3    H176225   5.598   6.445  13.623  1.1399  0.7620 -0.3350
18270TIP3    H276226   5.499   6.559  13.613 -0.5061 -0.3920  1.8492
18271TIP3   OH276227   1.440   4.151   1.206 -0.4457 -0.2917 -0.0100
18271TIP3    H176228   1.465   4.230   1.254 -1.0943 -0.4155  0.5480
18271TIP3    H276229   1.453   4.174   1.114 -2.0988  1.0320  0.0243
18272TIP3   OH276230   5.457   5.226  11.823  0.3028  0.0058  0.0179
18272TIP3    H176231   5.371   5.211  11.863 -0.0240  1.4177 -0.0984
18272TIP3    H276232   5.515   5.246  11.896 -0.3048  2.6323 -0.1206
18273TIP3   OH276233   0.356   0.930  15.873  0.0487 -0.9665  0.2670
18273TIP3    H176234   0.444   0.965  15.876 -0.4993  0.6574 -1.0307
18273TIP3    H276235   0.328   0.942  15.782 -1.5168 -1.3889  0.6522
18274TIP3   OH276236   5.795   2.145   0.042  0.4248  0.4617 -0.2040
18274TIP3    H176237   5.881   2.104   0.037  0.6475  0.9655 -0.5750
18274TIP3    H276238   5.804   2.213   0.109  0.0710 -0.0425  0.3726
18275TIP3   OH276239   4.666   1.046   2.374  0.4784 -0.0791  1.0404
18275TIP3    H176240   4.586   1.074   2.332  1.4355  1.8053  0.3758
18275TIP3    H276241   4.689   0.964   2.329 -0.5466 -0.1407  0.5968
18276TIP3   OH276242   4.930   5.619  16.593 -0.0860 -0.1888  0.1868
18276TIP3    H176243   4.850   5.599  16.642  0.0214 -0.4905  0.2428
18276TIP3    H276244   4.919   5.575  16.509  0.2197 -0.6161  0.3681
18277TIP3   OH276245   5.917   3.018  16.655  0.6749 -0.0186 -0.5622
18277TIP3    H176246   6.001   3.026  16.699  1.2073 -1.4418 -1.2662
18277TIP3    H276247   5.853   3.014  16.725  1.4480 -1.5811  0.1050
18278TIP3   OH276248   4.461   2.788  12.023  0.7716 -0.0327  0.2949
18278TIP3    H176249   4.426   2.819  12.107 -1.8741 -3.3011  0.6203
18278TIP3    H276250   4.414   2.838  11.957  1.2702  1.0326  0.7201
18279TIP3   OH276251   2.681   6.558  11.938  0.1873 -0.3716  0.0713
18279TIP3    H176252   2.750   6.494  11.921 -0.5701 -1.6696  1.5839
18279TIP3    H276253   2.725   6.628  11.987  0.5776 -0.8898  0.4799
18280TIP3   OH276254   0.714   0.563   4.032 -0.1881  0.4275  0.8109
18280TIP3    H176255   0.779   0.621   4.071  0.4765 -0.5852  1.2716
18280TIP3    H276256   0.646   0.556   4.099  0.1294  0.0428  1.1025
18281TIP3   OH276257   2.409   4.282  12.443 -0.4562  0.2071  0.1658
18281TIP3    H176258   2.396   4.189  12.425  0.1013  0.1210  0.1749
18281TIP3    H276259   2.498   4.287  12.477  0.9641  1.1635 -3.2309
18282TIP3   OH276260   6.337   6.292   2.028 -0.5238 -0.0077 -0.0925
18282TIP3    H176261   6.256   6.244   2.017 -1.4406  1.2552  0.8247
18282TIP3    H276262   6.406   6.227   2.018 -1.5981 -0.9400 -1.7777
18283TIP3   OH276263   2.132   4.708  12.726  0.4541  0.2403 -0.3842
18283TIP3    H176264   2.101   4.629  12.683 -2.3138  0.0422  1.7091
18283TIP3    H276265   2.227   4.709  12.709  0.6651 -3.5964 -0.3187
18284TIP3   OH276266   4.947   6.684  15.340 -0.0574  0.3439  0.1764
18284TIP3    H176267   4.903   6.625  15.278  0.6715 -0.6271  0.5672
18284TIP3    H276268   5.039   6.656  15.340 -0.1518 -0.1078  2.1882
18285TIP3   OH276269   4.223   3.691  10.862 -0.0933  0.0589  0.3492
18285TIP3    H176270   4.166   3.635  10.810 -1.5239  1.1116  0.7086
18285TIP3    H276271   4.173   3.707  10.943  2.1745 -1.8056  2.2850
18286TIP3   OH276272   0.573   5.265   4.521 -0.0468 -0.0398  0.0555
18286TIP3    H176273   0.607   5.179   4.496  0.6518 -0.2867  1.7180
18286TIP3    H276274   0.651   5.315   4.546 -0.6355  0.3232  1.2342
18287TIP3   OH276275   5.558   3.970  11.750  0.7867  0.1345 -0.0264
18287TIP3    H176276   5.614   3.997  11.678  1.1755  1.7912  0.8436
18287TIP3    H276277   5.597   3.888  11.781  1.7645  0.4215 -0.4639
18288TIP3   OH276278   2.062   5.100   1.239 -0.3369  0.2399 -0.3636
18288TIP3    H176279   2.009   5.023   1.259  2.2881 -1.3371  1.1851
18288TIP3    H276280   2.114   5.073   1.164  2.3897 -0.6357  1.6604
18289TIP3   OH276281   6.223   5.895  17.209  0.0975 -0.2205  0.0043
18289TIP3    H176282   6.233   5.982  17.248  1.0280 -0.3535  0.0800
18289TIP3    H276283   6.201   5.838  17.283  1.3650 -0.3808  0.2827
18290TIP3   OH276284   2.233   1.157  14.720  0.3101  0.0942  0.3816
18290TIP3    H176285   2.211   1.140  14.812 -1.7423 -0.4090 -0.1469
18290TIP3    H276286   2.223   1.072  14.677  1.3321  0.3104 -0.3093
18291TIP3   OH276287   6.418   3.518  16.925 -0.2038  0.7950  0.0776
18291TIP3    H176288   6.332   3.476  16.924  0.2645 -0.2344  1.1385
18291TIP3    H276289   6.481   3.447  16.911  0.5587  1.2176  1.1609
18292TIP3   OH276290   0.313   6.734  13.284  0.1471 -0.1379  0.1332
18292TIP3    H176291   0.315   6.668  13.354 -0.1613 -0.5773 -0.2699
18292TIP3    H276292   0.221   6.739  13.259 -0.2976  2.3299  1.9207
18293TIP3   OH276293   1.732   3.287  12.211 -0.4217  0.8813  0.0135
18293TIP3    H176294   1.678   3.209  12.221 -0.9933  1.3146  0.3908
18293TIP3    H276295   1.763   3.307  12.299 -0.3063  1.0986 -0.0740
18294TIP3   OH276296   3.665   6.443  15.904  0.2702  0.8230 -0.4790
18294TIP3    H176297   3.698   6.432  15.994 -0.1697 -1.1330 -0.5139
18294TIP3    H276298   3.576   6.478  15.916  0.1457  0.4085 -0.1156
18295TIP3   OH276299   4.003   5.277   2.883 -0.1645 -0.4238 -0.1302
18295TIP3    H176300   4.086   5.277   2.836  1.0152  0.5832  1.8177
18295TIP3    H276301   3.968   5.365   2.872  0.4319  0.0248  1.3033
18296TIP3   OH276302   1.167   0.389   2.405 -0.3343 -0.3707 -0.0705
18296TIP3    H176303   1.252   0.357   2.375  0.1305 -1.3742  2.1313
18296TIP3    H276304   1.138   0.324   2.468 -1.8999  0.9058  0.5961
18297TIP3   OH276305   5.405   1.362  11.699  0.0262 -0.5378 -0.0756
18297TIP3    H176306   5.445   1.276  11.687  1.1273 -0.1767  0.8572
18297TIP3    H276307   5.422   1.384  11.790 -1.8916 -0.1310  0.2119
18298TIP3   OH276308   6.373   2.830  14.731  0.6861  0.0751  0.3640
18298TIP3    H176309   6.305   2.897  14.732  0.4215 -0.1538 -0.9942
18298TIP3    H276310   6.447   2.871  14.775  0.0255  0.6900  0.9366
18299TIP3   OH276311   6.448   6.014   0.331 -0.0461 -0.4915  0.1227
18299TIP3    H176312   6.401   5.967   0.401  0.3809 -0.3257  0.5256
18299TIP3    H276313   6.517   6.062   0.377 -0.6649  0.7912 -0.2442
18300TIP3   OH276314   2.738   6.271   4.990  0.3958  0.0478 -0.5557
18300TIP3    H176315   2.749   6.298   5.081  2.2691  2.8186 -1.4738
18300TIP3    H276316   2.819   6.223   4.970  0.2531 -0.0433 -0.9169
18301TIP3   OH276317   0.091   4.437  13.036 -0.3875 -0.7373 -0.2209
18301TIP3    H176318   0.182   4.418  13.058 -0.9340 -1.4673  1.5862
18301TIP3    H276319   0.048   4.351  13.037 -1.4208 -0.2274  0.5850
18302TIP3   OH276320   3.435   4.747  15.769 -0.3816  0.3833 -0.0877
18302TIP3    H176321   3.344   4.720  15.786 -0.0141 -1.6266 -1.0012
18302TIP3    H276322   3.462   4.792  15.849 -1.6198 -0.5955  0.9309
18303TIP3   OH276323   6.682   2.837   2.293  0.2806 -0.6709 -0.1614
18303TIP3    H176324   6.760   2.867   2.341  1.6715 -0.5190 -2.3785
18303TIP3    H276325   6.678   2.743   2.310  0.4776 -0.5559  0.5742
18304TIP3   OH276326   3.623   4.140   2.631  0.3062 -0.2776  0.3053
18304TIP3    H176327   3.632   4.076   2.560  0.7948  0.1457 -0.0240
18304TIP3    H276328   3.713   4.156   2.659  0.1111 -0.5199  1.0981
18305TIP3   OH276329   0.158   6.429   0.310  0.3508 -0.3788 -0.2012
18305TIP3    H176330   0.123   6.514   0.282  0.6443 -0.4803 -0.9160
18305TIP3    H276331   0.106   6.405   0.387  2.3618  1.9698  2.0699
18306TIP3   OH276332   2.291   0.005   2.140  0.0955 -0.1242  0.5680
18306TIP3    H176333   2.224   0.037   2.080  0.4049  0.9484  0.7831
18306TIP3    H276334   2.303  -0.087   2.115  0.2197  0.2889 -1.0267
18307TIP3   OH276335   6.532   5.810  16.468  0.1241  0.1950 -0.0510
18307TIP3    H176336   6.613   5.766  16.443 -1.3605 -2.4274 -0.6830
18307TIP3    H276337   6.491   5.834  16.385 -1.0003 -1.0806  0.0907
18308TIP3   OH276338   1.873   5.037  15.199  0.0103 -1.0685 -0.4732
18308TIP3    H176339   1.853   4.991  15.281  3.5287  0.7262  1.6121
18308TIP3    H276340   1.813   5.111  15.197  1.1909  0.0474  1.7100
18309TIP3   OH276341   1.758   0.883   2.704 -0.1707  0.2331 -0.5090
18309TIP3    H176342   1.682   0.847   2.750 -0.0132 -0.7880 -1.0203
18309TIP3    H276343   1.727   0.903   2.616  0.2390 -0.5824 -0.8508
18310TIP3   OH276344   6.676   1.348   6.469  0.4164  0.6058 -0.2579
18310TIP3    H176345   6.745   1.352   6.535  0.2988 -0.1056 -0.0843
18310TIP3    H276346   6.656   1.440   6.449  0.2781  0.8344  0.8840
18311TIP3   OH276347   1.031   4.286   4.616 -0.2291 -0.0965  0.2551
18311TIP3    H176348   0.967   4.280   4.687 -2.2023  0.1375 -1.3977
18311TIP3    H276349   0.997   4.355   4.559  1.9569  0.5827 -0.3065
18312TIP3   OH276350   1.709   4.065  11.206 -0.1845 -0.0965 -0.5418
18312TIP3    H176351   1.749   4.005  11.144  0.7020 -2.5147  2.1241
18312TIP3    H276352   1.728   4.152  11.172 -0.1489 -1.2507 -3.7880
18313TIP3   OH276353   0.327   6.389   2.671 -0.6440 -0.4500 -0.3201
18313TIP3    H176354   0.412   6.431   2.656 -0.5020 -0.6693 -0.1231
18313TIP3    H276355   0.286   6.442   2.739 -0.1176 -1.1201  0.5313
18314TIP3   OH276356   1.695   6.098  16.976  0.0601  0.0010  0.4127
18314TIP3    H176357   1.604   6.084  16.950  0.1533 -2.2693  1.0657
18314TIP3    H276358   1.690   6.150  17.057 -0.7413 -0.9131  0.9732
18315TIP3   OH276359   1.345   2.095  16.180 -0.3734  0.3978  0.1819
18315TIP3    H176360   1.312   2.169  16.232 -0.7430  0.3275  0.0514
18315TIP3    H276361   1.284   2.024  16.199 -0.3738  0.3045 -0.1699
18316TIP3   OH276362   5.673   2.340  14.805  0.1595  0.0428 -0.7218
18316TIP3    H176363   5.705   2.425  14.837  1.3401 -1.5686  2.9946
18316TIP3    H276364   5.752   2.294  14.777  0.0491 -0.9700  0.5397
18317TIP3   OH276365   2.704   4.930   5.539 -0.3133  0.2319 -0.0603
18317TIP3    H176366   2.695   5.018   5.576  1.3401  0.2886  0.2902
18317TIP3    H276367   2.671   4.939   5.449 -1.7864  0.7620  0.4912
18318TIP3   OH276368   5.017   2.571  13.129  0.3420  0.2001 -0.8505
18318TIP3    H176369   5.105   2.606  13.139  0.7943 -1.2905  0.9422
18318TIP3    H276370   4.977   2.583  13.215 -1.2451  0.8794 -1.6423
18319TIP3   OH276371   4.048   2.973  14.771  0.4674 -0.2286 -0.0091
18319TIP3    H176372   4.064   2.901  14.709 -1.1995 -0.4690 -0.2209
18319TIP3    H276373   4.043   3.051  14.716 -0.5602 -0.3781 -0.1498
18320TIP3   OH276374   6.730   4.707  15.056  0.0632 -0.1485 -0.1881
18320TIP3    H176375   6.702   4.788  15.013 -0.6629 -0.1721  0.2225
18320TIP3    H276376   6.804   4.734  15.111  1.3340 -0.2124 -1.8016
18321TIP3   OH276377   0.092   5.576   4.855 -0.2494 -0.2138  0.1698
18321TIP3    H176378   0.020   5.639   4.857  0.1132  0.2020  1.4610
18321TIP3    H276379   0.063   5.508   4.793 -1.3617  0.3861  0.0041
18322TIP3   OH276380   0.486   5.542   4.875  0.6726  0.1526  0.2266
18322TIP3    H176381   0.411   5.598   4.895 -0.1350 -0.7249 -0.2673
18322TIP3    H276382   0.556   5.575   4.931  0.5173  2.2579 -0.7140
18323TIP3   OH276383   1.226   0.822  15.183  0.1468 -0.0328 -0.3541
18323TIP3    H176384   1.291   0.866  15.238 -1.2719  2.3537 -0.4807
18323TIP3    H276385   1.142   0.849  15.219 -0.8312 -1.9344 -1.0651
18324TIP3   OH276386   2.135   0.422  16.362 -0.5933 -0.5806 -0.3052
18324TIP3    H176387   2.090   0.366  16.425  0.6448 -3.6164 -1.8691
18324TIP3    H276388   2.102   0.394  16.277  0.3140  0.9037 -1.1979
18325TIP3   OH276389   3.356   6.056  10.800  0.3788  0.3923 -0.1363
18325TIP3    H176390   3.424   6.010  10.848  0.4381 -0.1197 -0.6983
18325TIP3    H276391   3.275   6.007  10.820  0.6099 -0.6620 -1.5975
18326TIP3   OH276392   3.040   4.683  16.167  0.1543  0.1715 -0.0958
18326TIP3    H176393   2.998   4.610  16.213  1.2862  0.2366  1.0833
18326TIP3    H276394   3.132   4.659  16.161  0.4577  1.2847 -0.1331
18327TIP3   OH276395   6.353   2.597  10.500 -0.0947 -0.5910 -0.1467
18327TIP3    H176396   6.335   2.504  10.512 -2.2827 -0.0753  1.3214
18327TIP3    H276397   6.399   2.623  10.580  0.9824 -0.4991 -0.7868
18328TIP3   OH276398   3.338   3.950  16.392  0.6507 -0.2513 -0.4384
18328TIP3    H176399   3.428   3.979  16.378  1.4085 -1.4906  1.4385
18328TIP3    H276400   3.345   3.876  16.453 -1.7887  1.2864  1.9865
18329TIP3   OH276401   2.459   5.259  13.762 -0.0072  0.7268 -0.2573
18329TIP3    H176402   2.446   5.344  13.720  0.2889  0.0236 -1.8728
18329TIP3    H276403   2.482   5.279  13.852 -0.2598  2.3448 -0.5307
18330TIP3   OH276404   5.494   1.012   5.531 -0.2301  0.5465 -0.0893
18330TIP3    H176405   5.470   1.070   5.458  0.1919 -0.6559 -1.2161
18330TIP3    H276406   5.465   0.925   5.504 -2.0064  0.3691  2.1359
18331TIP3   OH276407   0.548   4.874   5.403 -0.1604 -0.3617 -0.0991
18331TIP3    H176408   0.564   4.879   5.309 -0.0135  0.9084 -0.0181
18331TIP3    H276409   0.634   4.891   5.443 -0.7430  2.0359  0.2777
18332TIP3   OH276410   3.800   2.537  16.714 -0.1424  0.0563 -0.2876
18332TIP3    H176411   3.872   2.511  16.772 -0.3001  0.1101 -0.0656
18332TIP3    H276412   3.794   2.632  16.724 -0.0734  0.0852 -0.5085
18333TIP3   OH276413   3.923   2.181  13.279  0.3781  0.3831  0.4663
18333TIP3    H176414   3.998   2.166  13.221 -0.7674 -1.2340 -0.6764
18333TIP3    H276415   3.956   2.156  13.366  0.9087 -1.3977 -0.1933
18334TIP3   OH276416   4.582   2.550   1.910  0.5483 -0.5973 -0.3125
18334TIP3    H176417   4.563   2.478   1.851  2.5065 -0.3982 -1.2664
18334TIP3    H276418   4.596   2.625   1.853  1.8018 -0.2314  0.4392
18335TIP3   OH276419   6.265   0.827   1.279  0.4447  0.4926  0.1810
18335TIP3    H176420   6.248   0.908   1.328  0.6606  0.6433  0.0112
18335TIP3    H276421   6.220   0.759   1.329 -3.1932  1.2137 -1.7172
18336TIP3   OH276422   1.832   4.770   0.364 -0.0570 -0.0735  0.7367
18336TIP3    H176423   1.762   4.755   0.428 -1.7992  1.2993 -0.7292
18336TIP3    H276424   1.860   4.860   0.379 -0.2587  0.1569 -0.1893
18337TIP3   OH276425   4.140   0.933  15.526 -0.0401  0.5486 -0.1497
18337TIP3    H176426   4.090   0.936  15.444 -1.4395 -1.5983  0.5610
18337TIP3    H276427   4.140   0.841  15.552  3.3426  0.5849  0.5428
18338TIP3   OH276428   3.363   1.849  10.755 -0.0718 -0.3524  0.1539
18338TIP3    H176429   3.367   1.785  10.683 -1.6134 -0.9356  0.5720
18338TIP3    H276430   3.279   1.893  10.743 -1.8514 -2.5491  3.3050
18339TIP3   OH276431   1.954   6.402   3.069 -0.4028 -0.2855 -0.7956
18339TIP3    H176432   2.005   6.433   3.145 -0.9494  0.4817 -0.7295
18339TIP3    H276433   1.919   6.317   3.097  0.8374 -0.8386 -0.8475
18340TIP3   OH276434   5.335   4.692  13.095 -0.0028 -0.2642  0.1756
18340TIP3    H176435   5.338   4.735  13.010 -1.2696 -0.8648 -0.1972
18340TIP3    H276436   5.390   4.747  13.151 -0.8473  1.3505 -0.4977
18341TIP3   OH276437   6.697   0.793   4.933  0.0291 -0.6884  0.5875
18341TIP3    H176438   6.653   0.827   4.854  0.9275  0.5630  0.5896
18341TIP3    H276439   6.626   0.778   4.995 -0.8310 -2.8404 -0.8173
18342TIP3   OH276440   4.184   6.590   1.163  0.3718 -0.5919  0.0990
18342TIP3    H176441   4.152   6.549   1.244 -1.0960  0.0240 -0.1326
18342TIP3    H276442   4.277   6.605   1.179  0.1008 -0.4229  1.7052
18343TIP3   OH276443   2.091   5.713  14.537  0.6949  0.2880 -0.2560
18343TIP3    H176444   2.158   5.778  14.560 -0.7706  1.5176  0.7400
18343TIP3    H276445   2.096   5.647  14.606  0.8938  0.3704 -0.1909
18344TIP3   OH276446   2.122   4.993   4.259 -0.4653 -0.0282 -0.8553
18344TIP3    H176447   2.214   5.009   4.279 -1.0722  0.6179  1.7723
18344TIP3    H276448   2.100   5.058   4.193  0.6034  0.7992 -0.4310
18345TIP3   OH276449   1.023   4.359  11.303  0.1335  0.3542 -0.4926
18345TIP3    H176450   1.045   4.332  11.214  0.4418 -2.6872  0.3640
18345TIP3    H276451   0.930   4.337  11.312  0.7225 -2.0602  0.6649
18346TIP3   OH276452   4.304   3.746   4.724  0.1680  0.3531 -0.4531
18346TIP3    H176453   4.278   3.739   4.816  1.7361  0.4638  0.0334
18346TIP3    H276454   4.321   3.839   4.711  2.0550  0.0812 -0.2002
18347TIP3   OH276455   1.410   0.430  12.867 -0.1528  0.2375 -0.2224
18347TIP3    H176456   1.369   0.453  12.783  0.3106  2.5361  0.1231
18347TIP3    H276457   1.504   0.436  12.849 -0.0067 -1.0535  0.0262
18348TIP3   OH276458   5.705   5.909   6.908 -0.5433 -0.2470 -0.8209
18348TIP3    H176459   5.780   5.964   6.885 -0.5046  0.2164  0.3424
18348TIP3    H276460   5.743   5.823   6.924 -0.8458 -1.2970 -4.7302
18349TIP3   OH276461   0.959   5.319   5.254 -0.2462  0.6549  0.0620
18349TIP3    H176462   1.040   5.367   5.242 -0.1544  0.5245  0.1572
18349TIP3    H276463   0.942   5.278   5.169  0.9674 -1.1446  0.6190
18350TIP3   OH276464   1.265   1.944  14.423  0.1897 -0.1940  0.7188
18350TIP3    H176465   1.225   1.887  14.358  0.0031  0.1782  0.5045
18350TIP3    H276466   1.252   1.898  14.507  0.1925 -0.5427  0.5314
18351TIP3   OH276467   5.571   1.236   3.030  0.7981  0.0384 -0.0403
18351TIP3    H176468   5.599   1.284   2.952  1.9478  0.9119  0.8731
18351TIP3    H276469   5.650   1.190   3.059  0.2798 -0.5839  0.3999
18352TIP3   OH276470   5.643   2.635  11.995 -0.1560 -0.4474  0.6732
18352TIP3    H176471   5.605   2.629  11.907  1.1724 -1.4989  0.1370
18352TIP3    H276472   5.696   2.715  11.992 -0.3732 -0.3053  0.6204
18353TIP3   OH276473   5.375   3.692   0.283 -0.1170  0.3035  0.1813
18353TIP3    H176474   5.437   3.669   0.352  1.0347  2.3809 -0.0593
18353TIP3    H276475   5.292   3.705   0.329 -0.3542 -2.2037  0.5531
18354TIP3   OH276476   4.909   4.913  14.800  0.2184 -0.3716 -0.3267
18354TIP3    H176477   4.906   4.828  14.845 -2.0729  0.0395  0.4178
18354TIP3    H276478   4.915   4.977  14.870 -0.0846  0.1647 -0.7915
18355TIP3   OH276479   2.367   5.621   6.079  0.5459  0.1550 -0.0140
18355TIP3    H176480   2.411   5.536   6.089 -0.4712 -0.3013  0.7268
18355TIP3    H276481   2.297   5.604   6.016  0.3969  0.4726  0.0699
18356TIP3   OH276482   2.643   0.934  14.766 -0.1615 -0.2825  0.3896
18356TIP3    H176483   2.638   0.907  14.674 -1.8579  0.0621  0.3376
18356TIP3    H276484   2.566   0.894  14.806 -0.1574  0.6472  1.3614
18357TIP3   OH276485   2.441   5.283  11.601  0.5246  0.1563 -0.4528
18357TIP3    H176486   2.423   5.206  11.656  0.2939 -0.3530 -1.2297
18357TIP3    H276487   2.509   5.254  11.541 -0.3223  0.1994 -1.4684
18358TIP3   OH276488   2.501   0.437  13.537 -0.0539 -0.1716  0.3260
18358TIP3    H176489   2.450   0.361  13.562  1.6862 -1.2997  0.6096
18358TIP3    H276490   2.557   0.454  13.613 -1.6853  2.6020  1.0559
18359TIP3   OH276491   6.262   5.314  12.591 -0.4567  0.7262 -0.3723
18359TIP3    H176492   6.254   5.331  12.685 -0.5558  0.4523 -0.3289
18359TIP3    H276493   6.330   5.373  12.561 -0.9777  1.3775 -0.2827
18360TIP3   OH276494   5.476   4.810  16.974  0.0971  0.0637 -0.0932
18360TIP3    H176495   5.444   4.722  16.996 -1.2804 -0.2264 -2.8481
18360TIP3    H276496   5.550   4.794  16.916 -1.7177  0.5642 -2.7322
18361TIP3   OH276497   2.475   2.831   0.103  0.7666 -0.5984 -0.7866
18361TIP3    H176498   2.477   2.818   0.008 -1.6122 -2.4520 -0.7031
18361TIP3    H276499   2.481   2.742   0.139  2.8444  0.1580  0.8875
18362TIP3   OH276500   6.271   2.060  13.717 -0.3468  0.4461  0.1055
18362TIP3    H176501   6.213   1.984  13.726  0.4534 -0.0293  1.5971
18362TIP3    H276502   6.293   2.063  13.624 -1.9491  0.0371 -0.3120
18363TIP3   OH276503   4.057   6.544  13.643  0.1238 -0.2283 -0.2178
18363TIP3    H176504   4.015   6.557  13.728 -0.2000  0.5242 -0.4809
18363TIP3    H276505   4.106   6.462  13.652  0.0133 -0.2041  0.6562
18364TIP3   OH276506   0.733   5.843   5.578  0.3690  0.6689  0.0558
18364TIP3    H176507   0.676   5.871   5.650 -2.3373 -2.4856 -0.6152
18364TIP3    H276508   0.727   5.914   5.513  0.5385  2.2275  1.6841
18365TIP3   OH276509   2.504   4.461  12.115  0.7387  0.4202  0.4296
18365TIP3    H176510   2.520   4.377  12.072 -1.9680 -0.3105  0.6531
18365TIP3    H276511   2.591   4.491  12.142  1.7531 -2.7287  1.1232
18366TIP3   OH276512   4.303   5.488  17.042  0.2750  0.7906 -0.4654
18366TIP3    H176513   4.353   5.419  17.000 -0.5567 -0.2158  0.1467
18366TIP3    H276514   4.264   5.538  16.970  0.3992  0.2504 -0.9051
18367TIP3   OH276515   4.529   6.140  14.543 -0.6440  0.3819  0.2145
18367TIP3    H176516   4.496   6.091  14.468 -0.1355 -1.2734  1.0361
18367TIP3    H276517   4.593   6.200  14.506  0.7176 -1.4634 -0.5412
18368TIP3   OH276518   5.620   2.487  14.493 -0.1456 -0.3486  0.7289
18368TIP3    H176519   5.656   2.543  14.425  1.1912 -2.8485 -0.7644
18368TIP3    H276520   5.677   2.500  14.569  2.4671 -2.2520 -0.7551
18369TIP3   OH276521   0.311   0.299  13.007 -0.3436 -0.2843  0.2862
18369TIP3    H176522   0.268   0.222  12.970 -0.9967 -0.2452  0.9306
18369TIP3    H276523   0.399   0.299  12.970 -0.6552 -0.8064 -0.4589
18370TIP3   OH276524   1.642   4.795   2.599 -0.4759 -0.7310 -0.0431
18370TIP3    H176525   1.652   4.781   2.693  0.6584 -0.4903 -0.1114
18370TIP3    H276526   1.715   4.748   2.560  0.5178  1.1677 -0.6076
18371TIP3   OH276527   3.477   1.813   5.618 -0.5270  0.4929 -0.0493
18371TIP3    H176528   3.434   1.774   5.542  0.0050  0.0919 -0.1491
18371TIP3    H276529   3.406   1.856   5.666 -0.8068  1.0633 -0.9541
18372TIP3   OH276530   6.040   2.284   4.117  0.6817 -0.1683  0.7218
18372TIP3    H176531   6.041   2.380   4.119 -0.1412 -0.1526  2.1679
18372TIP3    H276532   5.991   2.259   4.196  1.4891 -1.7922  0.7612
18373TIP3   OH276533   2.425   2.058   3.139 -0.0861  0.0777  0.2302
18373TIP3    H176534   2.484   1.991   3.172  0.8395  0.9842  0.4674
18373TIP3    H276535   2.418   2.120   3.212 -0.8970  0.2613  0.0017
18374TIP3   OH276536   5.902   2.566  16.934 -0.1176 -0.4578 -0.6127
18374TIP3    H176537   5.960   2.491  16.923 -0.5436 -0.8569 -0.1584
18374TIP3    H276538   5.863   2.579  16.848  1.2909  0.3707 -1.1726
18375TIP3   OH276539   2.860   3.695  17.087  0.9151  0.1410  0.3042
18375TIP3    H176540   2.767   3.713  17.090  0.7628 -0.3448 -0.7959
18375TIP3    H276541   2.890   3.702  17.178 -0.4862 -1.3036  0.9102
18376TIP3   OH276542   5.493   3.062   3.275 -0.3148 -1.0619 -0.3319
18376TIP3    H176543   5.493   2.972   3.307  0.6669 -0.0078  2.9665
18376TIP3    H276544   5.461   3.114   3.348 -1.1876  1.2961 -2.2538
18377TIP3   OH276545   1.236   3.917  13.200 -0.6103 -0.0201  0.3952
18377TIP3    H176546   1.252   4.011  13.200  0.7268 -0.2099 -0.9063
18377TIP3    H276547   1.324   3.878  13.195 -1.1471 -1.3364  0.7046
18378TIP3   OH276548   4.527   4.712   4.766  0.6102  0.1961  0.0177
18378TIP3    H176549   4.470   4.637   4.746  0.1478  0.8409 -1.1612
18378TIP3    H276550   4.499   4.739   4.853 -0.7909  0.3807 -0.4583
18379TIP3   OH276551   1.064   6.187   0.729  0.0019  0.1341  0.1398
18379TIP3    H176552   1.015   6.222   0.655 -0.2935 -1.6124 -0.5421
18379TIP3    H276553   1.113   6.261   0.763  0.9567  0.7833 -2.4510
18380TIP3   OH276554   3.940   2.652  12.127  0.0053 -0.4828  0.2753
18380TIP3    H176555   3.897   2.593  12.066 -0.1955 -0.8759  0.7903
18380TIP3    H276556   3.949   2.734  12.078 -0.3872 -0.7088 -0.1915
18381TIP3   OH276557   3.821   3.334  13.616  0.6949  0.2110  0.2900
18381TIP3    H176558   3.886   3.306  13.552 -0.1877  0.0025 -0.5310
18381TIP3    H276559   3.741   3.288  13.591  0.8394 -1.6955  2.8886
18382TIP3   OH276560   2.052   2.210  13.330  0.2715  0.7748 -0.3326
18382TIP3    H176561   2.088   2.137  13.381 -0.9901  1.8032  2.2220
18382TIP3    H276562   2.100   2.208  13.247  2.3164 -1.1679  0.8026
18383TIP3   OH276563   2.541   4.239  11.976 -0.4121  0.4288  0.7049
18383TIP3    H176564   2.579   4.152  11.988  1.8231  1.3447  0.7520
18383TIP3    H276565   2.497   4.234  11.891 -0.0046 -0.6445  0.5435
18384TIP3   OH276566   5.068   3.435   2.580 -0.3524  0.4435  0.0491
18384TIP3    H176567   5.005   3.504   2.561 -1.3468 -0.5473 -0.3219
18384TIP3    H276568   5.115   3.422   2.497  0.2380  1.0614  0.2780
18385TIP3   OH276569   5.663   4.907   2.107 -0.2816  0.0640 -1.1419
18385TIP3    H176570   5.715   4.833   2.138  1.2500  1.3428 -0.4957
18385TIP3    H276571   5.647   4.888   2.014  1.8479 -0.1483 -1.5297
18386TIP3   OH276572   4.007   6.134   0.347 -0.0386  0.5026  0.0012
18386TIP3    H176573   3.973   6.044   0.346 -3.6111  1.7049 -0.7427
18386TIP3    H276574   4.102   6.123   0.339 -0.2403 -3.1944  0.6863
18387TIP3   OH276575   4.891   3.862   5.120 -0.0292 -0.2064 -0.3661
18387TIP3    H176576   4.814   3.812   5.145 -1.1456  0.9587 -1.3384
18387TIP3    H276577   4.898   3.931   5.187  1.0235 -1.1241  0.5098
18388TIP3   OH276578   2.998   5.234  15.934  0.1719 -0.2471  0.2811
18388TIP3    H176579   2.945   5.314  15.944 -1.1354 -0.7296 -2.0117
18388TIP3    H276580   2.952   5.169  15.986 -0.6976 -0.2860 -0.4971
18389TIP3   OH276581   3.567   1.813  13.399  0.3360 -0.2568  0.2872
18389TIP3    H176582   3.503   1.879  13.425  0.4442 -0.6102  1.5282
18389TIP3    H276583   3.574   1.755  13.475  0.6887 -1.3537 -0.5504
18390TIP3   OH276584   5.232   4.124   3.130 -0.1277  0.6005  0.0062
18390TIP3    H176585   5.187   4.104   3.212 -1.2638 -1.6202 -1.0732
18390TIP3    H276586   5.316   4.078   3.136  0.1747  1.1707  0.2552
18391TIP3   OH276587   2.839   2.045   5.624  0.3837  0.3891  0.1320
18391TIP3    H176588   2.805   1.969   5.577 -1.6159  2.2318 -1.6011
18391TIP3    H276589   2.863   2.011   5.710 -1.2803 -2.0288 -0.2577
18392TIP3   OH276590   4.112   3.747  14.435 -0.1331 -0.0344 -0.3637
18392TIP3    H176591   4.031   3.755  14.485  0.5120 -0.0182  0.7275
18392TIP3    H276592   4.119   3.829  14.386 -0.3865  0.2972  0.1473
18393TIP3   OH276593   0.666   4.072  13.860 -0.0132  0.0005  0.3618
18393TIP3    H176594   0.653   4.156  13.905 -0.8963  0.0132  0.1077
18393TIP3    H276595   0.578   4.047  13.832  0.1564 -1.3205  0.9708
18394TIP3   OH276596   5.739   1.401  12.525  0.1662  0.0069  0.2246
18394TIP3    H176597   5.690   1.454  12.587 -0.6215 -1.4659  0.9035
18394TIP3    H276598   5.674   1.342  12.487  0.6719  0.6511 -1.8173
18395TIP3   OH276599   4.288   1.467   0.557  0.7011  0.4591  0.2341
18395TIP3    H176600   4.307   1.467   0.463  1.0903  1.0099  0.3074
18395TIP3    H276601   4.366   1.506   0.597  1.1327 -1.0507  0.9088
18396TIP3   OH276602   5.089   2.336  13.707 -0.0162 -0.8486  0.3135
18396TIP3    H176603   5.153   2.407  13.700  0.1366 -0.9769  0.4117
18396TIP3    H276604   5.094   2.308  13.798 -0.0206 -1.0376  0.2553
18397TIP3   OH276605   3.042   5.672  14.773 -0.3617 -0.2274 -0.5311
18397TIP3    H176606   2.995   5.712  14.700 -0.8068 -1.8766 -1.1944
18397TIP3    H276607   3.071   5.587  14.739 -0.3811 -0.9419  1.1378
18398TIP3   OH276608   3.947   5.325   0.799 -0.1518  0.0323  0.7860
18398TIP3    H176609   3.944   5.406   0.749 -0.2833 -0.9857 -0.9665
18398TIP3    H276610   3.868   5.326   0.852  0.2295  1.3721  1.3630
18399TIP3   OH276611   4.013   4.078   0.593  0.2165  0.3888 -0.3584
18399TIP3    H176612   4.098   4.056   0.629  0.1417  0.2553 -0.2617
18399TIP3    H276613   3.962   4.110   0.668 -0.4366 -1.3232 -0.0133
18400TIP3   OH276614   1.485   5.443  14.592 -0.6176 -0.0568 -0.3197
18400TIP3    H176615   1.529   5.528  14.587 -0.2262 -0.3292 -2.0916
18400TIP3    H276616   1.550   5.384  14.629 -0.6425  0.2380  0.2103
18401TIP3   OH276617   3.647   4.257  11.896 -0.0528  0.1340 -0.0557
18401TIP3    H176618   3.642   4.348  11.867 -2.0161 -0.0250 -0.3749
18401TIP3    H276619   3.583   4.251  11.967  0.9206 -0.7328  0.7856
18402TIP3   OH276620   4.489   5.252   5.536 -0.5105 -0.0818  0.1711
18402TIP3    H176621   4.429   5.260   5.611  0.6354  0.5944  1.0523
18402TIP3    H276622   4.486   5.159   5.513 -2.5959  0.0849 -0.4306
18403TIP3   OH276623   1.963   0.502   3.619  0.4551  0.5585  0.0765
18403TIP3    H176624   2.021   0.550   3.559 -0.3523  1.9279  0.3552
18403TIP3    H276625   2.013   0.423   3.642  1.4234  0.7716 -1.1618
18404TIP3   OH276626   0.434   5.394   3.960 -1.0275  0.2389 -0.7784
18404TIP3    H176627   0.365   5.340   3.997 -2.7883  3.1817  0.6007
18404TIP3    H276628   0.465   5.448   4.033 -0.6967  2.3550 -2.3598
18405TIP3   OH276629   0.073   1.792   6.209 -0.3832 -0.0045 -0.3011
18405TIP3    H176630   0.159   1.749   6.205 -0.5251 -0.2117 -2.3940
18405TIP3    H276631   0.074   1.840   6.292  0.9947 -1.5332  0.6249
18406TIP3   OH276632   4.887   4.184  15.941 -0.2831 -0.4306  0.6198
18406TIP3    H176633   4.895   4.274  15.911 -0.0203 -0.5101  0.4423
18406TIP3    H276634   4.801   4.179  15.983 -2.2123 -1.1448 -3.0113
18407TIP3   OH276635   5.065   2.027   5.621 -0.0868 -0.0396 -0.2165
18407TIP3    H176636   5.019   2.103   5.585 -0.9350 -1.3985 -2.1956
18407TIP3    H276637   5.128   2.063   5.683  0.5485  2.3798 -2.1649
18408TIP3   OH276638   1.489   1.763   3.802  0.1940  0.0881  0.3535
18408TIP3    H176639   1.523   1.789   3.716 -1.7078 -0.2674 -0.5563
18408TIP3    H276640   1.556   1.706   3.838  0.2666 -1.2019 -1.6916
18409TIP3   OH276641   6.719   5.592  14.172  0.0170  0.1368 -0.2423
18409TIP3    H176642   6.643   5.570  14.117  1.1117 -0.4672 -1.5815
18409TIP3    H276643   6.736   5.512  14.222 -0.0740  0.1872 -0.1309
18410TIP3   OH276644   4.296   1.208  14.375  0.4245  0.0105 -0.1481
18410TIP3    H176645   4.221   1.154  14.400  0.3902 -0.0976 -0.4808
18410TIP3    H276646   4.359   1.146  14.339  0.4130  0.1814 -0.4685
18411TIP3   OH276647   5.368   3.348   4.329  0.1594 -0.6050 -0.1109
18411TIP3    H176648   5.286   3.317   4.292 -0.0357  0.0520 -0.2328
18411TIP3    H276649   5.359   3.334   4.423 -0.8206  1.0886  0.0847
18412TIP3   OH276650   5.994   1.102  10.964 -0.1114 -0.5470 -0.8024
18412TIP3    H176651   5.947   1.153  10.898  1.8250  1.5784 -0.6386
18412TIP3    H276652   6.073   1.071  10.919  0.9117  0.3790  0.2699
18413TIP3   OH276653   0.659   6.275   2.774  0.4359 -0.1696 -0.0437
18413TIP3    H176654   0.703   6.190   2.782  0.9846  0.0769 -0.3831
18413TIP3    H276655   0.606   6.282   2.853  0.0288 -1.0311 -0.2246
18414TIP3   OH276656   1.248   4.010  12.049  0.1115 -0.2022  0.3826
18414TIP3    H176657   1.191   4.081  12.019  1.2393  0.6892  0.2911
18414TIP3    H276658   1.313   4.000  11.980  0.8211 -0.3300  1.0520
18415TIP3   OH276659   2.614   1.160  11.525  0.1097  0.5267  0.4213
18415TIP3    H176660   2.524   1.137  11.548 -0.5723  1.1131 -1.4581
18415TIP3    H276661   2.623   1.252  11.549  0.6870  0.1037  1.8928
18416TIP3   OH276662   2.313   5.894   2.350  0.2748  0.4824 -0.0282
18416TIP3    H176663   2.299   5.819   2.408  0.5333  2.2487  2.4760
18416TIP3    H276664   2.237   5.893   2.291  0.7817 -2.2627 -0.7952
18417TIP3   OH276665   4.190   2.470   3.700  0.2190 -0.6746 -0.4059
18417TIP3    H176666   4.226   2.536   3.760 -2.0078  0.2514  0.0127
18417TIP3    H276667   4.191   2.389   3.750  0.4608 -0.3763  0.0788
18418TIP3   OH276668   5.802   6.120  16.404  0.3521 -0.0962  0.2011
18418TIP3    H176669   5.819   6.202  16.358 -0.8072 -0.1753 -0.4290
18418TIP3    H276670   5.714   6.094  16.374  1.3388 -2.4316 -0.9218
18419TIP3   OH276671   4.234   0.372  14.638 -0.3051 -0.6590  0.4534
18419TIP3    H176672   4.260   0.310  14.706 -0.9609 -1.2076  0.2182
18419TIP3    H276673   4.174   0.322  14.583 -0.6263  0.1119  0.1034
18420TIP3   OH276674   0.216   1.912   0.359  0.0656 -0.0676 -0.4566
18420TIP3    H176675   0.239   1.870   0.276  0.6772 -0.4070 -0.1185
18420TIP3    H276676   0.251   2.000   0.351 -1.6620  0.6009 -1.3743
18421TIP3   OH276677   5.308   3.627  16.566 -0.2993 -0.2701 -0.2293
18421TIP3    H176678   5.379   3.691  16.568  0.7436 -1.4005  0.5537
18421TIP3    H276679   5.233   3.673  16.604  0.4820  0.4283  0.5110
18422TIP3   OH276680   1.921   0.487   4.889  0.0351  0.4698 -0.5012
18422TIP3    H176681   1.945   0.507   4.798 -1.5411  0.9460 -0.8311
18422TIP3    H276682   1.885   0.399   4.886  0.3812  0.3183 -0.2588
18423TIP3   OH276683   3.654   3.783  11.155 -0.2689  0.3233 -0.0159
18423TIP3    H176684   3.725   3.746  11.208 -1.0731 -0.2305  0.7004
18423TIP3    H276685   3.695   3.854  11.106  0.6874  0.2859  0.7099
18424TIP3   OH276686   4.369   0.412  10.914 -0.1947 -0.0183  0.2877
18424TIP3    H176687   4.354   0.486  10.973 -0.9579 -0.7807  1.0816
18424TIP3    H276688   4.463   0.414  10.897  0.2846 -0.4973  2.5523
18425TIP3   OH276689   6.177   3.514   2.529 -0.5722  0.3667 -0.5375
18425TIP3    H176690   6.148   3.423   2.532 -1.4821  0.6668  0.8076
18425TIP3    H276691   6.269   3.511   2.555 -0.4716 -0.1965 -0.9370
18426TIP3   OH276692   0.273   5.040   2.895  0.1630 -0.0599  0.2996
18426TIP3    H176693   0.179   5.025   2.906 -0.0927  1.1995 -0.0839
18426TIP3    H276694   0.283   5.135   2.900  1.4889 -0.2138  0.8482
18427TIP3   OH276695   2.361   5.088  15.107  0.0154  0.2324 -0.4793
18427TIP3    H176696   2.414   5.089  15.187  0.3888 -2.2578 -0.6105
18427TIP3    H276697   2.391   5.163  15.057  2.6963 -0.4611 -0.0567
18428TIP3   OH276698   0.716   4.587   0.057  0.4726  0.0876  0.5642
18428TIP3    H176699   0.704   4.646  -0.018  0.2582 -0.0100  0.5183
18428TIP3    H276700   0.649   4.614   0.119 -0.3737 -0.8201  0.0811
18429TIP3   OH276701   6.074   2.281   2.922 -0.4481 -0.0127 -0.5507
18429TIP3    H176702   6.144   2.318   2.975 -0.6525 -0.7107  0.2354
18429TIP3    H276703   6.008   2.351   2.918 -0.1976  0.2397 -0.3421
18430TIP3   OH276704   2.052   6.601  14.164 -0.3151  0.0435  0.0957
18430TIP3    H176705   1.998   6.671  14.201 -0.9635 -0.8320  0.8221
18430TIP3    H276706   2.118   6.583  14.231 -0.1004  0.0034 -0.1228
18431TIP3   OH276707   1.932   2.011   4.460 -0.1496 -0.2813  0.0768
18431TIP3    H176708   1.874   2.032   4.387 -1.0193 -0.5146  0.6940
18431TIP3    H276709   1.874   1.995   4.534  0.6316 -1.7574  0.4104
18432TIP3   OH276710   4.650   4.289   1.487  0.3470  0.8986 -0.0393
18432TIP3    H176711   4.621   4.227   1.420  2.7215 -1.1241  0.6712
18432TIP3    H276712   4.737   4.317   1.458  0.4038  1.8849  1.0103
18433TIP3   OH276713   5.050   3.392  15.443 -0.0816 -0.0445  0.5575
18433TIP3    H176714   4.984   3.441  15.394  0.0144  1.2237  1.6459
18433TIP3    H276715   5.131   3.442  15.432  0.5841 -1.2453 -0.2416
18434TIP3   OH276716   6.421   3.810   3.112  0.2791  0.2405 -0.3589
18434TIP3    H176717   6.370   3.784   3.188 -0.6457  0.7288 -0.7938
18434TIP3    H276718   6.434   3.904   3.122 -0.9302  0.5489 -1.4057
18435TIP3   OH276719   5.124   1.439   1.738  0.0851 -0.1495  0.1255
18435TIP3    H176720   5.129   1.486   1.821 -1.2667  0.5426 -0.1564
18435TIP3    H276721   5.138   1.347   1.762  0.9527  0.1674  0.9264
18436TIP3   OH276722   0.253   4.198  10.488 -0.7291 -0.4104  0.0225
18436TIP3    H176723   0.231   4.190  10.581 -1.2104 -1.8985 -0.2011
18436TIP3    H276724   0.298   4.117  10.467  1.6928  0.9415 -0.4810
18437TIP3   OH276725   2.462   6.504  13.840  0.6973  0.6376  0.3016
18437TIP3    H176726   2.557   6.497  13.825  0.8066 -0.0003  1.2015
18437TIP3    H276727   2.454   6.567  13.912  0.5577 -0.4542  1.2756
18438TIP3   OH276728   5.201   2.797   2.710 -0.2058  0.6477  0.2355
18438TIP3    H176729   5.112   2.774   2.738 -1.3581  0.5228 -3.1689
18438TIP3    H276730   5.197   2.798   2.615  3.6867 -0.2381 -0.0980
18439TIP3   OH276731   0.195   1.919   2.957  0.2214  0.2314  0.0449
18439TIP3    H176732   0.114   1.897   2.910  0.5215  0.8346 -0.7813
18439TIP3    H276733   0.211   2.010   2.934  2.4447 -0.5368 -1.7980
18440TIP3   OH276734   2.971   2.972  15.944 -0.1846 -0.0301  0.1500
18440TIP3    H176735   3.025   3.019  16.008  0.4350 -2.0039  1.1728
18440TIP3    H276736   2.942   2.893  15.991 -0.9040 -0.8220 -1.5527
18441TIP3   OH276737   3.713   5.252  12.775 -0.1489 -0.6808  0.5866
18441TIP3    H176738   3.705   5.343  12.806 -1.0874 -0.1105 -1.1688
18441TIP3    H276739   3.795   5.221  12.813 -0.6433  0.3019  2.6324
18442TIP3   OH276740   1.953   4.098   0.157 -0.5015  0.6103  0.2008
18442TIP3    H176741   2.046   4.116   0.163 -0.4545  0.0912  1.6092
18442TIP3    H276742   1.917   4.170   0.107  0.7777  0.3140 -1.1927
18443TIP3   OH276743   1.581   2.699   2.843  0.0800 -0.2485 -0.1414
18443TIP3    H176744   1.603   2.792   2.853 -1.2768  0.2763 -1.5079
18443TIP3    H276745   1.664   2.654   2.852  0.7231  1.0617  0.8966
18444TIP3   OH276746   5.025   4.080  16.988  0.0610 -0.7121 -0.3219
18444TIP3    H176747   5.097   4.125  17.033  0.0802 -0.4776 -0.5837
18444TIP3    H276748   5.041   4.095  16.895 -1.2606  0.8518 -0.3617
18445TIP3   OH276749   1.447   6.150   2.825 -0.1946  0.7613  0.3953
18445TIP3    H176750   1.541   6.169   2.821 -0.4858  2.6561  1.3904
18445TIP3    H276751   1.437   6.069   2.775  1.8415  0.9707 -0.4701
18446TIP3   OH276752   0.368   2.519   0.594 -0.4343  0.1369  0.7315
18446TIP3    H176753   0.303   2.525   0.524  0.9312 -1.9274 -0.8331
18446TIP3    H276754   0.355   2.598   0.646 -1.9192  1.4695 -1.5135
18447TIP3   OH276755   0.038   0.242   0.257 -0.3867  0.4945 -0.9366
18447TIP3    H176756  -0.023   0.251   0.330 -0.4958 -1.2730 -0.7731
18447TIP3    H276757  -0.014   0.208   0.185  0.0779  0.5256 -1.2938
18448TIP3   OH276758   3.051   4.453   6.708  0.2464 -0.3909  0.2062
18448TIP3    H176759   3.117   4.511   6.746 -0.5513 -0.0026  1.0303
18448TIP3    H276760   3.022   4.498   6.629  1.0663 -0.6384 -0.2511
18449TIP3   OH276761   5.757   3.447  16.148 -0.2553  0.2030  0.8392
18449TIP3    H176762   5.811   3.377  16.185  0.8876  0.8383  0.4410
18449TIP3    H276763   5.788   3.526  16.193 -1.4580  0.4775  1.2097
18450TIP3   OH276764   5.130   2.715   6.492  0.5110 -0.3307  0.4379
18450TIP3    H176765   5.185   2.711   6.570  0.7557  1.8585  0.4380
18450TIP3    H276766   5.045   2.682   6.521  1.3197 -2.1778  0.8576
18451TIP3   OH276767   3.684   3.561  14.417  0.1292 -0.0327  0.0827
18451TIP3    H176768   3.615   3.502  14.385 -0.2939  0.7088 -0.4065
18451TIP3    H276769   3.760   3.504  14.426  0.1767 -0.3922 -1.9222
18452TIP3   OH276770   0.716   0.337  12.953 -0.2476 -0.1339  0.1226
18452TIP3    H176771   0.679   0.421  12.929 -0.5539 -0.1541  0.5014
18452TIP3    H276772   0.664   0.273  12.905  0.9785 -0.0454 -1.3779
18453TIP3   OH276773   0.106   2.233   0.332  0.8687 -0.4160  0.3212
18453TIP3    H176774   0.030   2.268   0.378  0.6189 -0.4194 -0.0831
18453TIP3    H276775   0.175   2.298   0.347 -0.1887  1.4844 -2.2757
18454TIP3   OH276776   1.917   3.007  15.562  0.2644  0.2019 -0.5214
18454TIP3    H176777   1.855   3.078  15.579 -0.3128 -0.5492  0.6282
18454TIP3    H276778   1.865   2.941  15.515  0.4119 -0.0593 -0.3221
18455TIP3   OH276779   1.718   3.941  11.694 -0.3535  0.0733 -0.0795
18455TIP3    H176780   1.761   3.908  11.616 -0.5892  2.6933 -1.4195
18455TIP3    H276781   1.781   4.001  11.734 -0.8995  0.1163  0.7583
18456TIP3   OH276782   0.699   3.949  11.395  0.4547 -0.3943  0.0636
18456TIP3    H176783   0.776   3.901  11.367  2.4734  2.1051  0.9343
18456TIP3    H276784   0.660   3.981  11.313  1.6318  0.1430 -0.3024
18457TIP3   OH276785   3.294   5.813   6.839  0.6795 -0.3515  0.6864
18457TIP3    H176786   3.286   5.720   6.818  0.1657 -0.1900  0.1164
18457TIP3    H276787   3.209   5.837   6.875  0.2096  0.2568 -0.7316
18458TIP3   OH276788   2.677   0.117  15.414 -0.5266 -0.0649  0.3299
18458TIP3    H176789   2.585   0.131  15.439 -0.6302  2.0292 -0.9624
18458TIP3    H276790   2.685   0.160  15.329  1.3810 -1.2873 -0.1670
18459TIP3   OH276791   4.694   3.928   1.098  0.2082  0.6017  0.2830
18459TIP3    H176792   4.659   3.841   1.117  1.5727 -0.5004 -1.8600
18459TIP3    H276793   4.657   3.951   1.012  1.8598  0.9482 -0.3798
18460TIP3   OH276794   2.683   2.343   2.555 -0.2583 -0.2388 -0.6879
18460TIP3    H176795   2.667   2.328   2.462  1.0787  0.3020 -1.0246
18460TIP3    H276796   2.609   2.395   2.584 -1.1817 -1.2205 -1.2052
18461TIP3   OH276797   2.208   0.585  10.880 -0.1886  0.1105 -0.4214
18461TIP3    H176798   2.158   0.577  10.961 -0.5717  2.3672 -0.3702
18461TIP3    H276799   2.284   0.527  10.893 -0.8213 -0.4505  1.0481
18462TIP3   OH276800   0.499   1.901  15.919  0.0305  0.3516  0.3878
18462TIP3    H176801   0.436   1.944  15.976  0.3565 -0.4507  1.3982
18462TIP3    H276802   0.450   1.878  15.841 -0.5004  1.2381  0.4549
18463TIP3   OH276803   0.902   3.912   6.226 -0.6251 -0.2095  0.3995
18463TIP3    H176804   0.972   3.927   6.163 -0.2051 -0.4372  0.8101
18463TIP3    H276805   0.941   3.856   6.294 -1.3566 -0.8107  0.3456
18464TIP3   OH276806   6.660   2.493   3.990 -0.7925  0.2759 -0.3714
18464TIP3    H176807   6.566   2.484   4.006 -0.4742  1.4173  3.1452
18464TIP3    H276808   6.692   2.543   4.066  2.2262  2.4383 -2.8023
18465TIP3   OH276809   4.074   4.881   3.217  0.4145  0.1899 -0.1442
18465TIP3    H176810   4.032   4.960   3.182  0.4011  0.7417  1.0684
18465TIP3    H276811   4.130   4.913   3.288 -1.0740 -1.0409  1.6912
18466TIP3   OH276812   6.191   0.539   1.553  0.0102 -0.4267  0.2413
18466TIP3    H176813   6.132   0.575   1.620 -1.8101 -2.7019  0.0048
18466TIP3    H276814   6.268   0.596   1.555 -2.1230  2.7402  0.6103
18467TIP3   OH276815   3.522   1.701   1.965 -0.4545 -0.4688 -0.4027
18467TIP3    H176816   3.447   1.680   1.909 -2.0305  1.9036  0.6710
18467TIP3    H276817   3.490   1.690   2.054  1.0394 -1.0737  0.1003
18468TIP3   OH276818   2.730   5.256  16.987  0.5402  0.0885 -0.4123
18468TIP3    H176819   2.741   5.227  17.078 -2.7093  0.0121  0.0869
18468TIP3    H276820   2.783   5.335  16.981  1.0038 -0.0175  1.4838
18469TIP3   OH276821   4.497   1.907  16.600  0.5256 -0.1575 -0.1161
18469TIP3    H176822   4.425   1.869  16.651  1.1607 -0.9924  0.1723
18469TIP3    H276823   4.539   1.968  16.660  0.8259 -0.6018  0.1287
18470TIP3   OH276824   5.959   0.240   1.602 -0.1922 -0.4426 -0.7797
18470TIP3    H176825   5.962   0.157   1.555 -0.8816 -1.6287  1.1176
18470TIP3    H276826   5.988   0.218   1.691 -0.4517  1.3429 -0.2125
18471TIP3   OH276827   3.756   5.046  16.973  0.2422 -0.1133 -0.0404
18471TIP3    H176828   3.767   4.954  16.998 -1.5183  0.2989  2.5441
18471TIP3    H276829   3.707   5.042  16.891 -0.0966 -1.4914  0.1910
18472TIP3   OH276830   4.865   1.904  14.712 -0.0035  0.0514 -0.4285
18472TIP3    H176831   4.937   1.967  14.715 -0.2370  0.2959  0.3516
18472TIP3    H276832   4.898   1.828  14.760  0.3535 -0.5224 -1.5417
18473TIP3   OH276833   6.088   2.905  12.245 -0.3804 -0.1982  0.4336
18473TIP3    H176834   6.108   2.938  12.158 -2.7321 -2.3644 -1.0932
18473TIP3    H276835   6.015   2.959  12.275 -0.0127  0.1095  0.7882
18474TIP3   OH276836   2.692   4.556   2.446 -0.1535 -0.8083  0.0513
18474TIP3    H176837   2.672   4.561   2.539  0.1009  3.1860  0.0789
18474TIP3    H276838   2.781   4.521   2.442  0.8726  1.3978  1.6129
18475TIP3   OH276839   4.333   4.192  13.149  0.8156  0.1039 -0.0358
18475TIP3    H176840   4.315   4.137  13.226 -0.3195 -1.0291 -1.0466
18475TIP3    H276841   4.248   4.200  13.106  0.6678  3.7421  0.6814
18476TIP3   OH276842   6.735   0.387  13.077  0.2392  0.4748  0.1143
18476TIP3    H176843   6.767   0.444  13.008 -1.2474  0.2446 -0.8228
18476TIP3    H276844   6.662   0.435  13.116  1.8902  1.1988  2.4981
18477TIP3   OH276845   4.280   6.538   0.305 -0.2871  0.2779 -0.2716
18477TIP3    H176846   4.324   6.464   0.348  0.6742  0.0562 -1.5506
18477TIP3    H276847   4.239   6.587   0.376 -0.2942 -1.0663  0.6841
18478TIP3   OH276848   4.909   2.983   4.326  0.0697 -0.0111  0.1141
18478TIP3    H176849   4.823   2.970   4.367 -0.6908 -0.4577 -1.5288
18478TIP3    H276850   4.903   3.068   4.284  0.9221  0.5379  1.0485
18479TIP3   OH276851   1.944   4.124  14.604  0.2677  0.1242  0.1816
18479TIP3    H176852   1.856   4.102  14.574  0.1759 -1.2199  1.3142
18479TIP3    H276853   2.002   4.072  14.549  0.2822  0.1646  0.1592
18480TIP3   OH276854   3.006   2.552   0.970 -0.1035 -0.1510 -1.2161
18480TIP3    H176855   3.073   2.618   0.954  1.0747 -1.3804 -1.5255
18480TIP3    H276856   2.946   2.593   1.032  1.4608  0.6732 -0.1745
18481TIP3   OH276857   2.315   2.811   2.336 -0.0245  0.5207 -0.5889
18481TIP3    H176858   2.230   2.848   2.361 -0.4293 -2.2938  3.0344
18481TIP3    H276859   2.376   2.883   2.345 -1.3884  1.5027  1.6402
18482TIP3   OH276860   0.765   6.042   2.660  0.3323  0.1808 -0.1161
18482TIP3    H176861   0.855   6.032   2.630  0.3056 -0.7564  0.0993
18482TIP3    H276862   0.713   6.040   2.580  0.3734 -0.9609 -0.1269
18483TIP3   OH276863   0.473   0.707  14.986  0.0394  0.2448  0.3224
18483TIP3    H176864   0.537   0.738  14.922 -2.1927  2.2335 -1.1493
18483TIP3    H276865   0.405   0.665  14.933 -1.2561  0.7862  1.5063
18484TIP3   OH276866   2.488   6.355   2.673  0.1925  0.0259  0.4311
18484TIP3    H176867   2.465   6.439   2.712  1.3464  1.0687 -1.0430
18484TIP3    H276868   2.538   6.310   2.741 -0.6225  0.4199  1.3138
18485TIP3   OH276869   3.806   4.892   1.842  0.5028  0.2907  0.0910
18485TIP3    H176870   3.835   4.944   1.767  1.0847 -2.4767 -1.7534
18485TIP3    H276871   3.840   4.804   1.825 -2.6965 -1.4319  1.5606
18486TIP3   OH276872   5.001   3.175  14.264  0.2290 -0.5149  0.1961
18486TIP3    H176873   4.933   3.107  14.257  2.3400 -2.9232  1.5282
18486TIP3    H276874   5.073   3.141  14.210  1.5420  0.3958  1.3425
18487TIP3   OH276875   6.625   0.757   0.453  0.1721 -0.5220  0.3266
18487TIP3    H176876   6.557   0.721   0.510 -1.0118 -0.2844 -0.8752
18487TIP3    H276877   6.675   0.680   0.424 -0.5923 -0.9008 -0.0226
18488TIP3   OH276878   6.234   4.122  16.519 -0.1855  0.4160 -0.5696
18488TIP3    H176879   6.241   4.113  16.615 -1.1192 -0.0580 -0.5360
18488TIP3    H276880   6.144   4.152  16.505 -1.3976 -3.2213 -1.5073
18489TIP3   OH276881   3.671   4.921  11.602  0.7474  0.0526 -0.4568
18489TIP3    H176882   3.725   5.000  11.605  0.1284  0.6975 -3.4190
18489TIP3    H276883   3.582   4.953  11.586 -0.0028 -1.1569  1.0475
18490TIP3   OH276884   4.292   5.690  11.101  0.5141 -0.5079 -0.0972
18490TIP3    H176885   4.353   5.621  11.126  1.0169 -0.4575 -1.1319
18490TIP3    H276886   4.217   5.643  11.064 -0.2336 -0.5828  1.4211
18491TIP3   OH276887   4.466   2.527  12.355  0.3155 -0.2758 -0.3118
18491TIP3    H176888   4.477   2.620  12.334 -1.0882 -0.0405 -0.1086
18491TIP3    H276889   4.528   2.511  12.426 -0.0544  0.7394  0.2643
18492TIP3   OH276890   2.012   6.154  13.057 -0.4205 -0.3234  0.6861
18492TIP3    H176891   1.968   6.093  13.116 -0.1958 -0.1762  1.0101
18492TIP3    H276892   2.050   6.220  13.115  2.1602 -1.6486  0.6261
18493TIP3   OH276893   0.098   1.152  16.450 -0.1571 -0.5096  0.1996
18493TIP3    H176894   0.012   1.181  16.421  0.0723 -0.8956 -0.9010
18493TIP3    H276895   0.107   1.063  16.415  0.2247 -0.9235  1.2864
18494TIP3   OH276896   2.387   2.497   5.468 -0.1152 -0.0621  0.1876
18494TIP3    H176897   2.466   2.456   5.432  1.2058 -1.8207  4.3665
18494TIP3    H276898   2.417   2.582   5.499 -0.0429 -0.3678  0.9838
18495TIP3   OH276899   4.303   2.638   3.116  0.1866  0.1275 -0.3776
18495TIP3    H176900   4.309   2.666   3.025  1.6166 -2.1787 -1.0707
18495TIP3    H276901   4.218   2.671   3.146  0.1981  1.9559 -2.1321
18496TIP3   OH276902   6.486   4.665   2.800 -0.4839 -0.3325  0.0566
18496TIP3    H176903   6.494   4.739   2.739 -2.0624 -0.1860  0.0024
18496TIP3    H276904   6.522   4.591   2.751  0.8684  0.3042  0.0103
18497TIP3   OH276905   2.225   4.858   0.379 -0.3907 -0.4600 -0.0900
18497TIP3    H176906   2.184   4.803   0.312 -1.8773 -0.0518  0.4480
18497TIP3    H276907   2.199   4.947   0.356  1.0421 -0.0635 -0.2887
18498TIP3   OH276908   2.267   3.109  15.238  0.0379 -0.1430  0.2423
18498TIP3    H176909   2.268   3.014  15.232 -0.6151 -0.0673 -1.6407
18498TIP3    H276910   2.358   3.135  15.225 -0.1864 -0.4229 -2.3071
18499TIP3   OH276911   1.469   3.013   6.632  0.1311 -0.0641 -0.0405
18499TIP3    H176912   1.487   2.993   6.723 -0.0150  2.5295  0.6390
18499TIP3    H276913   1.554   3.031   6.593  0.3676 -2.6807 -0.8987
18500TIP3   OH276914   0.280   1.024  13.242  0.0153 -0.0226 -0.1482
18500TIP3    H176915   0.198   0.988  13.208  0.8525 -2.3366  0.0883
18500TIP3    H276916   0.331   1.045  13.163 -0.3206  0.2393 -0.2990
18501TIP3   OH276917   2.614   5.185   1.781 -0.2932 -0.5087 -0.3526
18501TIP3    H176918   2.535   5.131   1.773 -0.3113 -0.5903  0.3354
18501TIP3    H276919   2.616   5.235   1.700 -1.5528  0.1604 -0.0086
18502TIP3   OH276920   4.197   0.122  13.105 -0.1493 -0.1792 -0.5120
18502TIP3    H176921   4.159   0.136  13.018  1.1934 -0.5188 -1.1786
18502TIP3    H276922   4.285   0.161  13.099  0.9362 -2.4249 -0.1293
18503TIP3   OH276923   3.785   0.675   4.243  0.4101  0.2944 -0.0147
18503TIP3    H176924   3.835   0.606   4.288 -0.8714 -0.5593  0.1354
18503TIP3    H276925   3.778   0.644   4.153  2.8772  1.9501 -0.9051
18504TIP3   OH276926   1.558   2.246  15.861  0.9484  0.0923 -0.1501
18504TIP3    H176927   1.515   2.302  15.796 -0.5654  1.2826  1.7604
18504TIP3    H276928   1.572   2.303  15.936 -3.4123 -2.5026  3.1140
18505TIP3   OH276929   4.761   5.973  16.331  0.3179 -0.1585 -0.1914
18505TIP3    H176930   4.801   6.013  16.409  0.0559 -0.1761 -0.0442
18505TIP3    H276931   4.831   5.922  16.291  0.4880 -0.0492 -0.0328
18506TIP3   OH276932   2.545   1.058   2.685  0.5331  0.0851 -0.1074
18506TIP3    H176933   2.541   0.995   2.757  1.7667 -0.0988 -0.1862
18506TIP3    H276934   2.592   1.012   2.615  0.7695  0.8235 -0.4462
18507TIP3   OH276935   0.963   4.026  13.155 -0.3944 -0.6174  0.9131
18507TIP3    H176936   0.964   3.985  13.069  2.3373 -2.9328  1.8731
18507TIP3    H276937   1.045   4.076  13.158 -1.0004  0.3796  1.8110
18508TIP3   OH276938   1.071   3.131   3.017 -0.0160  0.3223 -0.5607
18508TIP3    H176939   1.113   3.125   2.931 -0.2531 -1.3790 -0.5838
18508TIP3    H276940   0.981   3.104   3.002 -0.2074  0.5705  0.1239
18509TIP3   OH276941   4.103   0.234   6.601  0.7819 -0.6566 -0.3186
18509TIP3    H176942   4.072   0.183   6.527  0.7115 -2.8623  1.1242
18509TIP3    H276943   4.048   0.206   6.674 -0.8281  3.2496  0.1773
18510TIP3   OH276944   0.536   1.686  13.663 -0.1493 -0.3695 -0.2736
18510TIP3    H176945   0.602   1.756  13.665 -0.6443  0.1096 -0.3060
18510TIP3    H276946   0.559   1.632  13.588 -0.9666  0.9759 -1.5689
18511TIP3   OH276947   4.082   1.358  12.892  0.2303 -0.0805  0.7457
18511TIP3    H176948   4.050   1.438  12.850  0.8398 -0.4466 -0.4338
18511TIP3    H276949   4.113   1.303  12.820 -2.7974 -2.6298  1.1951
18512TIP3   OH276950   0.831   6.447  17.050 -0.6696 -0.1269  0.3446
18512TIP3    H176951   0.919   6.454  17.014 -0.9870 -1.4969 -0.7767
18512TIP3    H276952   0.805   6.538  17.066  0.7095  0.3370  0.1552
18513TIP3   OH276953   2.589   1.114  16.198  0.7674  0.2449 -0.3069
18513TIP3    H176954   2.656   1.061  16.153 -0.9182  0.6154 -3.5055
18513TIP3    H276955   2.510   1.060  16.195 -0.1783  1.6224 -0.6404
18514TIP3   OH276956   5.002   3.897  14.111  0.4392 -0.5559  0.3979
18514TIP3    H176957   5.004   3.930  14.022 -1.0346  1.0716  0.9167
18514TIP3    H276958   5.042   3.966  14.164 -0.6342 -0.5228  1.2266
18515TIP3   OH276959   0.312   5.814  15.972 -0.6230  0.6224 -0.0187
18515TIP3    H176960   0.370   5.845  16.041 -1.3282 -1.8382  1.8461
18515TIP3    H276961   0.365   5.751  15.923 -0.0203  2.6038 -2.0456
18516TIP3   OH276962   4.571   2.154   0.705 -0.2286  0.4698  0.2122
18516TIP3    H176963   4.659   2.143   0.670 -0.4581 -0.9962  0.0516
18516TIP3    H276964   4.513   2.143   0.630 -0.6366 -0.8106  0.6896
18517TIP3   OH276965   2.249   2.573  14.782  0.1986  0.1443  0.2699
18517TIP3    H176966   2.248   2.505  14.714 -1.1706  1.2279 -0.8578
18517TIP3    H276967   2.229   2.654  14.735  0.2206  1.0916  1.8301
18518TIP3   OH276968   5.490   1.065  13.450  0.5233  0.1775 -0.0047
18518TIP3    H176969   5.398   1.039  13.442  0.4095  0.4235  0.4754
18518TIP3    H276970   5.536   1.008  13.388  0.0467  0.0675 -0.2653
18519TIP3   OH276971   4.682   5.775   0.265  0.7160  0.3766  0.1684
18519TIP3    H176972   4.619   5.706   0.246  2.9007 -1.5480 -0.5122
18519TIP3    H276973   4.634   5.856   0.249 -1.7642 -0.9500  0.4086
18520TIP3   OH276974   4.058   2.011   3.298 -0.4251  0.4194  0.1957
18520TIP3    H176975   4.119   2.085   3.289  0.3536 -0.4250 -1.9112
18520TIP3    H276976   4.082   1.951   3.229 -2.7840 -0.6116  0.1738
18521TIP3   OH276977   1.973   2.295  11.523 -0.0704  0.3095 -0.1616
18521TIP3    H176978   2.000   2.299  11.615  1.7789  0.5976 -0.6920
18521TIP3    H276979   1.980   2.384  11.491 -1.4207  0.3498 -0.4285
18522TIP3   OH276980   4.077   4.483   2.669 -0.0466 -0.1403  0.2750
18522TIP3    H176981   4.049   4.574   2.680 -1.3084 -0.5999  1.1933
18522TIP3    H276982   4.142   4.486   2.599 -0.5461  1.3727 -0.1735
18523TIP3   OH276983   2.328   0.613   0.673 -0.6122  0.0631 -0.5356
18523TIP3    H176984   2.381   0.654   0.605  0.3446  1.0266  0.7392
18523TIP3    H276985   2.299   0.686   0.727 -2.5187 -0.5410 -0.6696
18524TIP3   OH276986   4.918   3.622  15.316 -0.0797  0.3917  0.1599
18524TIP3    H176987   4.938   3.656  15.229  0.5780 -2.7377 -1.0444
18524TIP3    H276988   4.823   3.608  15.315 -0.0619  0.2834 -0.1103
18525TIP3   OH276989   1.777   2.745   5.542  0.8096 -0.0732  0.0481
18525TIP3    H176990   1.804   2.797   5.466  0.3024  0.9785  0.5649
18525TIP3    H276991   1.754   2.660   5.506  0.1747  0.5379 -1.0515
18526TIP3   OH276992   5.706   5.257   1.301  0.6534 -0.0376  0.4506
18526TIP3    H176993   5.780   5.310   1.331 -0.0580 -0.3595  3.0392
18526TIP3    H276994   5.741   5.168   1.299  0.3870 -0.1897  1.6726
18527TIP3   OH276995   3.638   1.958   2.644 -0.6183 -0.3586 -0.2901
18527TIP3    H176996   3.584   1.882   2.661 -1.5948  0.0182 -1.5280
18527TIP3    H276997   3.582   2.017   2.592 -0.3543  1.7876  1.6932
18528TIP3   OH276998   2.290   2.323   2.401  0.3951  0.4543  0.3058
18528TIP3    H176999   2.323   2.393   2.345  4.2998 -1.4301 -0.1065
18528TIP3    H277000   2.245   2.263   2.341 -0.2311  1.0637  0.1521
18529TIP3   OH277001   1.057   5.971   5.864  0.4264  0.2125  0.1261
18529TIP3    H177002   0.988   5.905   5.856  0.0193  0.5942  0.4041
18529TIP3    H277003   1.037   6.035   5.797 -1.2409  1.8538  2.0500
18530TIP3   OH277004   4.308   3.469  11.337  0.0873  0.0651 -0.4713
18530TIP3    H177005   4.390   3.426  11.363 -0.1675 -1.7453 -2.3863
18530TIP3    H277006   4.337   3.546  11.289  0.6713 -0.3877 -0.8681
18531TIP3   OH277007   3.376   4.662  12.401  0.8651  0.3641  0.2058
18531TIP3    H177008   3.298   4.612  12.375  0.0128  1.1095  1.2198
18531TIP3    H277009   3.434   4.658  12.325 -0.6689  0.7932 -1.0350
18532TIP3   OH277010   2.217   5.741  15.741 -0.5189 -0.5215  0.2875
18532TIP3    H177011   2.166   5.802  15.793 -1.4517 -1.3696  0.3999
18532TIP3    H277012   2.251   5.677  15.804 -0.7935 -0.9655 -0.0090
18533TIP3   OH277013   2.318   4.300  16.053 -0.3936 -0.1936  1.1005
18533TIP3    H177014   2.228   4.332  16.047 -0.5013 -0.7705 -0.8932
18533TIP3    H277015   2.370   4.363  16.002 -0.7215 -3.2415 -3.5956
18534TIP3   OH277016   1.768   1.597   5.766  0.3077 -0.2787 -0.3390
18534TIP3    H177017   1.752   1.537   5.693 -1.8681 -0.3308  0.0913
18534TIP3    H277018   1.764   1.540   5.844  2.0716 -0.1415 -0.1116
18535TIP3   OH277019   6.222   0.312   4.330  0.4537 -0.1145  0.1467
18535TIP3    H177020   6.186   0.226   4.352  0.4947  0.6260  3.6498
18535TIP3    H277021   6.147   0.363   4.302 -0.1091 -0.4503  1.0159
18536TIP3   OH277022   1.676   0.875  15.988  0.0225 -0.0648 -0.5219
18536TIP3    H177023   1.624   0.800  16.016 -1.4776  0.4853 -1.7107
18536TIP3    H277024   1.743   0.885  16.055 -2.0004 -0.1865  1.6275
18537TIP3   OH277025   6.259   0.783   2.279  0.2002 -0.0136 -0.4880
18537TIP3    H177026   6.267   0.812   2.370  0.1495 -0.9353 -0.1819
18537TIP3    H277027   6.248   0.688   2.285  2.7134 -0.4496 -1.5446
18538TIP3   OH277028   6.612   5.793  14.467  0.5921 -0.7117 -0.1727
18538TIP3    H177029   6.611   5.881  14.504  0.7312 -0.8808  0.2356
18538TIP3    H277030   6.526   5.783  14.426  0.7636 -0.2020 -0.6592
18539TIP3   OH277031   2.993   5.962  13.311  0.3218  0.1065  0.4333
18539TIP3    H177032   2.963   5.974  13.221 -1.0825 -0.0572  0.8650
18539TIP3    H277033   2.996   5.867  13.322 -0.9245  0.1155  0.9953
18540TIP3   OH277034   0.390   2.527   6.235 -0.8025  0.2328  0.1514
18540TIP3    H177035   0.321   2.482   6.188  0.3509 -1.1595 -0.2820
18540TIP3    H277036   0.360   2.618   6.241 -2.5868 -0.3008 -0.1184
18541TIP3   OH277037   4.991   1.340  14.516 -0.1922  0.0131 -0.1417
18541TIP3    H177038   5.064   1.346  14.454  0.5058 -2.5620  0.3224
18541TIP3    H277039   4.935   1.414  14.494  2.5696  2.1616 -0.4610
18542TIP3   OH277040   2.658   1.310   4.719  0.0438  0.4841  0.4825
18542TIP3    H177041   2.604   1.232   4.737  0.8686 -0.3342 -0.4637
18542TIP3    H277042   2.595   1.377   4.694 -0.5689 -0.4624 -0.6250
18543TIP3   OH277043   4.036   1.551   3.522  0.1466 -0.0978 -0.3694
18543TIP3    H177044   4.083   1.545   3.438  2.2043 -1.7826  0.8242
18543TIP3    H277045   4.100   1.588   3.583 -1.1215  0.5181  0.6439
18544TIP3   OH277046   6.411   3.953  14.703  0.1130  0.5970  0.3425
18544TIP3    H177047   6.477   3.891  14.670 -0.9281 -0.1534 -0.4443
18544TIP3    H277048   6.329   3.902  14.702 -0.4213  1.3913  1.6292
18545TIP3   OH277049   1.669   5.549   5.477  0.2344 -0.1311  0.0056
18545TIP3    H177050   1.655   5.497   5.555  0.1390 -1.2956 -0.7639
18545TIP3    H277051   1.748   5.600   5.496 -0.6606  0.8000  1.4413
18546TIP3   OH277052   5.110   1.663  12.725 -0.1868 -0.0595  1.1971
18546TIP3    H177053   5.187   1.702  12.767 -0.1723  0.7326  0.4777
18546TIP3    H277054   5.065   1.738  12.685 -0.0017 -0.8093 -0.4989
18547TIP3   OH277055   4.244   4.370   0.194  0.4329  0.6942  0.2419
18547TIP3    H177056   4.193   4.290   0.177 -0.3452  1.0455  0.8284
18547TIP3    H277057   4.330   4.352   0.156 -0.1102  0.0603 -0.7475
18548TIP3   OH277058   0.521   6.035   2.026 -0.1334 -0.4127  0.1080
18548TIP3    H177059   0.577   6.031   1.949 -0.4444  0.3984 -0.1722
18548TIP3    H277060   0.581   6.038   2.100  0.1691 -1.8290 -0.0480
18549TIP3   OH277061   3.044   1.296  11.377  0.3095  0.5959  0.2369
18549TIP3    H177062   3.139   1.307  11.382  0.5400  0.0594 -1.9540
18549TIP3    H277063   3.030   1.242  11.299 -1.8906  2.0563 -0.4819
18550TIP3   OH277064   3.372   1.395   6.452 -0.4178 -0.1168 -0.1984
18550TIP3    H177065   3.343   1.341   6.526 -2.1278  1.0896  0.0982
18550TIP3    H277066   3.329   1.356   6.376  0.3170 -0.6066 -0.3664
18551TIP3   OH277067   3.583   2.589  11.137  0.1252 -0.7244 -0.2620
18551TIP3    H177068   3.536   2.605  11.219 -0.5052 -0.3077 -0.6922
18551TIP3    H277069   3.575   2.495  11.122  1.6097 -1.0857  0.9548
18552TIP3   OH277070   5.357   1.375  11.106  0.7207  0.3242 -0.5337
18552TIP3    H177071   5.391   1.314  11.041 -0.5802 -0.9860 -0.0417
18552TIP3    H277072   5.366   1.328  11.189 -1.1899  0.3898 -0.2574
18553TIP3   OH277073   5.483   6.202   0.584 -0.6330 -0.0399  0.0369
18553TIP3    H177074   5.456   6.145   0.512  0.3357 -0.3239 -0.1180
18553TIP3    H277075   5.578   6.205   0.578 -0.6524  1.6143  0.0414
18554TIP3   OH277076   2.868   6.715  12.067 -0.9611 -0.4162  0.4259
18554TIP3    H177077   2.946   6.659  12.068  0.0327  0.8696 -0.5219
18554TIP3    H277078   2.884   6.775  11.994 -1.2302  2.0737  2.3016
18555TIP3   OH277079   4.221   6.233   3.098 -0.0235  0.8084  0.0933
18555TIP3    H177080   4.191   6.309   3.148 -2.0191 -0.8033  1.5397
18555TIP3    H277081   4.311   6.254   3.074 -0.7391  3.9035 -0.2262
18556TIP3   OH277082   1.615   2.265   0.269 -0.6664 -0.0131 -0.1992
18556TIP3    H177083   1.535   2.316   0.285 -1.7549 -1.5936 -0.3842
18556TIP3    H277084   1.599   2.182   0.313  1.6537  0.2705  1.3083
18557TIP3   OH277085   4.546   5.010  15.219 -0.6438 -0.7118 -0.0860
18557TIP3    H177086   4.455   5.014  15.247 -0.6126  0.4024 -0.0860
18557TIP3    H277087   4.572   5.102  15.210  0.8038 -0.9868  0.9691
18558TIP3   OH277088   3.293   3.355   3.838  0.3944  0.1693 -0.2226
18558TIP3    H177089   3.296   3.330   3.746 -0.4502 -0.4431 -0.0870
18558TIP3    H277090   3.291   3.272   3.886  0.0515  0.4821  0.3208
18559TIP3   OH277091   1.482   4.567  12.912 -0.4853 -0.5380 -0.0107
18559TIP3    H177092   1.459   4.613  12.832 -1.7677 -0.9596  0.0859
18559TIP3    H277093   1.491   4.636  12.978  0.4854 -0.1990 -0.4906
18560TIP3   OH277094   5.415   0.188   2.114 -0.3627 -0.0251 -0.0712
18560TIP3    H177095   5.367   0.107   2.096 -1.1628  0.4557 -0.1337
18560TIP3    H277096   5.499   0.159   2.148  0.0830 -0.9276 -1.7996
18561TIP3   OH277097   5.049   3.486  14.900  0.5662  0.2071  0.3119
18561TIP3    H177098   5.144   3.496  14.898  0.6532 -0.6337 -0.5286
18561TIP3    H277099   5.016   3.567  14.861  0.9894  0.0822 -0.3370
18562TIP3   OH277100   5.225   0.249   4.466 -0.3692  0.2789  0.1544
18562TIP3    H177101   5.153   0.224   4.524 -0.4455  1.6332  0.6759
18562TIP3    H277102   5.187   0.242   4.378 -1.4104  1.7181  0.4580
18563TIP3   OH277103   2.681   5.594   1.543 -0.4324 -0.4786  0.4671
18563TIP3    H177104   2.772   5.564   1.540 -0.8787 -1.8832  0.2253
18563TIP3    H277105   2.666   5.615   1.635  0.1374 -0.2374  0.5119
18564TIP3   OH277106   2.930   2.916  12.782 -0.4651 -0.1105 -0.3895
18564TIP3    H177107   2.847   2.960  12.765 -0.6924 -0.5763 -0.5078
18564TIP3    H277108   2.988   2.985  12.815 -0.6532  0.3792 -1.0720
18565TIP3   OH277109   3.619   3.483  11.964  0.1568 -0.1146  0.4228
18565TIP3    H177110   3.659   3.435  11.891 -0.0258 -0.4673  0.5519
18565TIP3    H277111   3.671   3.562  11.972 -1.1477  1.0018 -1.5141
18566TIP3   OH277112   6.365   4.920  14.121  0.1602 -0.1253 -0.1730
18566TIP3    H177113   6.371   4.830  14.153  0.2010 -0.5577 -1.3467
18566TIP3    H277114   6.276   4.926  14.084  0.1747  0.2945 -0.1434
18567TIP3   OH277115   1.916   2.460   4.373  0.3793  0.3246  0.1098
18567TIP3    H177116   1.827   2.479   4.346  0.9001  0.7791 -1.3847
18567TIP3    H277117   1.908   2.386   4.433 -1.0759  0.9838  0.7665
18568TIP3   OH277118   0.095   3.170  15.743 -0.2408  0.8288  0.3202
18568TIP3    H177119   0.063   3.254  15.776  1.2373  1.0437  1.2595
18568TIP3    H277120   0.098   3.182  15.648 -1.3277  1.3494  0.3279
18569TIP3   OH277121   0.984   4.846  11.924  0.2354  0.1299 -0.0851
18569TIP3    H177122   1.010   4.754  11.929  1.1884  0.3337 -0.8684
18569TIP3    H277123   1.044   4.891  11.984 -1.8232 -0.0214  2.2328
18570TIP3   OH277124   3.257   0.896  13.394  0.8179 -0.2695 -0.3375
18570TIP3    H177125   3.210   0.862  13.470  0.1181  0.2973 -0.5133
18570TIP3    H277126   3.301   0.975  13.426 -0.6934  0.8159 -0.8768
18571TIP3   OH277127   4.226   0.510   4.039 -0.2422 -0.6104  0.7205
18571TIP3    H177128   4.303   0.513   4.095 -1.1511 -0.2626  2.0099
18571TIP3    H277129   4.244   0.572   3.969  0.5461 -0.3651  1.1288
18572TIP3   OH277130   3.188   5.179   3.683  0.1052  0.1078 -0.5565
18572TIP3    H177131   3.263   5.232   3.711  1.5838 -1.5163 -1.2556
18572TIP3    H277132   3.224   5.119   3.617 -1.6885 -1.0900 -0.5188
18573TIP3   OH277133   0.579   4.369   1.069  0.3307 -0.1440 -0.3687
18573TIP3    H177134   0.524   4.293   1.085  0.2024 -0.5564 -2.4337
18573TIP3    H277135   0.551   4.401   0.983  1.1440  1.5614 -0.0311
18574TIP3   OH277136   3.827   0.009  14.877  0.1686  0.1395  0.0538
18574TIP3    H177137   3.825  -0.009  14.784 -0.4877 -1.0812  0.2869
18574TIP3    H277138   3.908   0.060  14.890  0.9121 -0.7339 -0.9947
18575TIP3   OH277139   1.976   0.388   2.872 -0.4646 -0.1424 -0.4355
18575TIP3    H177140   2.013   0.326   2.934  0.6950  0.4648 -0.4888
18575TIP3    H277141   2.021   0.370   2.790 -0.2117  0.6461 -0.4848
18576TIP3   OH277142   1.204   6.609  15.052  0.2810 -0.5280 -0.0689
18576TIP3    H177143   1.152   6.532  15.077  0.3655 -0.4814  0.2465
18576TIP3    H277144   1.154   6.649  14.981 -0.3900 -0.1850  0.5814
18577TIP3   OH277145   3.802   4.808   4.562 -0.2427  0.1952  0.0527
18577TIP3    H177146   3.720   4.807   4.610  0.2615  1.6792  0.9977
18577TIP3    H277147   3.836   4.719   4.571 -1.2512 -0.1538  0.5050
18578TIP3   OH277148   6.380   3.620  16.159 -0.3964 -0.4478 -0.3633
18578TIP3    H177149   6.379   3.716  16.163 -2.0760 -0.4537 -0.2136
18578TIP3    H277150   6.376   3.592  16.250 -1.8018 -0.6409 -0.4699
18579TIP3   OH277151   3.688   6.673  12.447 -0.3397  0.0167  0.5158
18579TIP3    H177152   3.699   6.640  12.536 -1.3611 -0.2025  0.5716
18579TIP3    H277153   3.698   6.595  12.391 -0.5253  0.0010  0.5018
18580TIP3   OH277154   3.789   1.395  14.859 -0.3542  0.0082  0.1869
18580TIP3    H177155   3.763   1.311  14.821 -0.9460 -0.1544  0.9076
18580TIP3    H277156   3.745   1.397  14.944 -0.1421  0.9394  0.2899
18581TIP3   OH277157   1.937   2.955  12.043 -0.9191  0.6970 -0.2517
18581TIP3    H177158   1.903   3.037  12.007  0.2201  1.1240 -0.3989
18581TIP3    H277159   1.893   2.887  11.993 -1.3892  1.2348 -0.5808
18582TIP3   OH277160   5.320   2.688   1.802  0.1092  0.3665  0.2546
18582TIP3    H177161   5.242   2.647   1.839  0.5278  0.0011  0.7464
18582TIP3    H277162   5.291   2.722   1.717 -0.2561 -0.9680 -0.1895
18583TIP3   OH277163   0.321   4.552  15.966  0.3250 -0.3138 -0.3011
18583TIP3    H177164   0.315   4.630  15.911 -0.3771 -0.1793 -0.0360
18583TIP3    H277165   0.414   4.548  15.990  0.1840  1.1092  0.6455
18584TIP3   OH277166   6.395   2.008  13.963  0.0437 -0.7366 -0.7565
18584TIP3    H177167   6.346   2.021  13.882 -2.1546  2.4705  0.8479
18584TIP3    H277168   6.486   2.026  13.939 -0.3610 -1.0346 -2.6887
18585TIP3   OH277169   4.963   2.905  11.282 -0.1560 -0.5018  0.2533
18585TIP3    H177170   4.912   2.879  11.360  0.4595 -2.6778  0.0077
18585TIP3    H277171   5.052   2.874  11.300 -0.1051 -1.5104 -1.4792
18586TIP3   OH277172   5.560   4.743  11.325 -0.1139 -0.4666  0.0324
18586TIP3    H177173   5.596   4.822  11.366 -0.6052 -1.0888  1.7617
18586TIP3    H277174   5.489   4.717  11.384 -0.2378 -1.9543 -0.7496
18587TIP3   OH277175   2.180   1.839  13.307 -0.0831 -0.0780 -0.1100
18587TIP3    H177176   2.163   1.752  13.343 -0.5307  0.5113  1.1543
18587TIP3    H277177   2.276   1.847  13.310 -0.1451  0.3240  1.9173
18588TIP3   OH277178   6.578   0.558  17.201  0.0313 -0.5879 -0.1537
18588TIP3    H177179   6.570   0.566  17.296 -2.4414  1.1279 -0.3969
18588TIP3    H277180   6.505   0.501  17.175 -1.2687  1.4153 -1.1969
18589TIP3   OH277181   4.723   3.759   5.629  0.3849 -0.3965 -0.3813
18589TIP3    H177182   4.757   3.802   5.550 -0.3079  0.3103 -0.3116
18589TIP3    H277183   4.659   3.697   5.596  2.4167 -2.5056 -0.5944
18590TIP3   OH277184   3.213   6.207   2.659  0.0121  0.0624  0.6919
18590TIP3    H177185   3.118   6.200   2.647 -0.0976  1.0909  0.9353
18590TIP3    H277186   3.249   6.155   2.587 -0.7207  1.1487 -0.5102
18591TIP3   OH277187   1.428   3.363   1.324 -0.0276 -0.0054 -0.5645
18591TIP3    H177188   1.436   3.436   1.263  0.2212  1.7452  1.4279
18591TIP3    H277189   1.483   3.388   1.398 -3.6441  0.2166  2.3753
18592TIP3   OH277190   0.940   6.566   0.048 -0.1394 -0.6495  0.1236
18592TIP3    H177191   0.885   6.549  -0.029 -0.4826  0.5798  0.0834
18592TIP3    H277192   1.014   6.616   0.014 -1.2405  1.5704  0.8558
18593TIP3   OH277193   3.992   4.141   4.256  0.0085  0.5503 -0.6425
18593TIP3    H177194   3.964   4.172   4.342 -1.7932  1.0740 -1.3766
18593TIP3    H277195   4.085   4.121   4.268 -0.1982  0.5372  1.4299
18594TIP3   OH277196   2.225   3.053  15.519 -0.0635 -0.1994  0.0678
18594TIP3    H177197   2.227   3.116  15.447  1.6439 -0.8382 -0.5025
18594TIP3    H277198   2.134   3.025  15.524  0.1571 -2.3610 -3.9069
18595TIP3   OH277199   5.186   0.580   6.114 -0.2445  0.0544 -0.2951
18595TIP3    H177200   5.108   0.526   6.098 -0.8207  0.6237  0.5079
18595TIP3    H277201   5.168   0.661   6.067 -0.6334  0.5958  0.7445
18596TIP3   OH277202   1.704   4.385   1.259  0.0383 -0.4460 -0.6797
18596TIP3    H177203   1.719   4.298   1.221 -0.6449 -0.8513 -0.0334
18596TIP3    H277204   1.680   4.368   1.350  0.8324  0.4763 -0.2862
18597TIP3   OH277205   5.622   0.382   2.584  0.0250  0.3398  0.1250
18597TIP3    H177206   5.708   0.421   2.566 -0.0076 -0.0842 -0.9993
18597TIP3    H277207   5.594   0.344   2.501 -0.1015 -1.8054  1.0811
18598TIP3   OH277208   0.844   5.355   2.995 -0.3907 -0.4117 -0.5544
18598TIP3    H177209   0.801   5.280   3.036 -1.8132  0.2557 -0.7958
18598TIP3    H277210   0.910   5.382   3.059 -1.7419 -0.1472  0.7757
18599TIP3   OH277211   6.449   0.928  10.640  0.2502  0.4120  0.3319
18599TIP3    H177212   6.378   0.924  10.577  0.4632  0.8246  0.0655
18599TIP3    H277213   6.495   0.845  10.629 -0.5202 -0.1077  0.9037
18600TIP3   OH277214   2.104   3.374   4.325 -0.0571  0.0465 -0.0607
18600TIP3    H177215   2.151   3.456   4.337  2.1824 -1.0290 -1.0331
18600TIP3    H277216   2.015   3.393   4.357  0.3452  2.8420 -0.3409
18601TIP3   OH277217   3.175   6.686   3.854  0.7005 -0.1179  0.1072
18601TIP3    H177218   3.151   6.774   3.825  0.2612  0.1121  1.1004
18601TIP3    H277219   3.198   6.698   3.946  0.1624 -1.1150  0.3824
18602TIP3   OH277220   3.341   1.982  11.049  0.0710 -0.2314  0.2648
18602TIP3    H177221   3.317   1.935  10.970  2.2838 -1.3183  0.1679
18602TIP3    H277222   3.419   2.033  11.024 -0.0945  0.5998  1.3547
18603TIP3   OH277223   0.513   3.495   5.227  0.2666  0.2960  0.0704
18603TIP3    H177224   0.540   3.486   5.318 -0.2018 -0.9226  0.1115
18603TIP3    H277225   0.531   3.409   5.188 -1.8559 -0.0302 -0.3454
18604TIP3   OH277226   2.875   6.736  12.363  0.0824  0.8277  0.1971
18604TIP3    H177227   2.883   6.740  12.267  1.7436 -1.9580  0.1398
18604TIP3    H277228   2.792   6.691  12.378  0.2328  0.5055  0.0595
18605TIP3   OH277229   5.240   4.858   1.899  0.6471  0.1172 -0.0310
18605TIP3    H177230   5.191   4.831   1.822  1.8704  1.2517 -1.2571
18605TIP3    H277231   5.173   4.890   1.960 -0.2712 -0.0626 -0.9321
18606TIP3   OH277232   2.775   1.391   4.429  0.3668  0.1788  0.5829
18606TIP3    H177233   2.859   1.403   4.384  0.2445 -0.2340  0.2379
18606TIP3    H277234   2.764   1.472   4.480  0.8502  0.3454  0.4328
18607TIP3   OH277235   6.633   2.582  15.189 -0.5519  0.1711  0.2548
18607TIP3    H177236   6.660   2.616  15.274 -2.9457  0.2206  1.0550
18607TIP3    H277237   6.616   2.660  15.136  1.0758  0.1423 -0.3789
18608TIP3   OH277238   1.632   1.041  16.629  0.5179  0.5017  0.0096
18608TIP3    H177239   1.602   1.010  16.544  1.1990 -0.5397  0.1268
18608TIP3    H277240   1.665   0.962  16.673  2.5619  1.4083  0.2222
18609TIP3   OH277241   1.290   1.305  13.513  0.1635 -0.0745  0.0136
18609TIP3    H177242   1.248   1.227  13.477 -0.9812  0.3940  0.3092
18609TIP3    H277243   1.311   1.358  13.437  0.9583 -0.6580 -0.1909
18610TIP3   OH277244   4.845   3.367  13.948  0.0714 -0.2977  0.2274
18610TIP3    H177245   4.931   3.392  13.981  0.8172 -2.3483 -0.0018
18610TIP3    H277246   4.783   3.405  14.010  1.3120 -1.7832  2.5360
18611TIP3   OH277247   5.716   2.283  12.218 -0.0058  0.1817 -0.0243
18611TIP3    H177248   5.703   2.194  12.249  1.1006 -0.4435 -1.2696
18611TIP3    H277249   5.629   2.313  12.193 -0.2899 -0.8261 -0.2936
18612TIP3   OH277250   5.624   4.096  15.305  0.0389  0.1446  0.2040
18612TIP3    H177251   5.689   4.108  15.374 -0.3472 -0.5192  0.6987
18612TIP3    H277252   5.626   4.178  15.255  0.7977  0.3720  0.5964
18613TIP3   OH277253   3.360   5.197   0.188  0.1641  0.0613  0.1452
18613TIP3    H177254   3.426   5.256   0.225  2.7875 -2.5465  0.0431
18613TIP3    H277255   3.345   5.132   0.258 -2.4112  0.5836  0.1677
18614TIP3   OH277256   3.318   5.817   5.376  0.0119  0.3590 -0.4244
18614TIP3    H177257   3.255   5.877   5.417  0.4914  0.7910 -0.3078
18614TIP3    H277258   3.397   5.825   5.430  0.3176  0.1644 -0.8368
18615TIP3   OH277259   6.079   1.291  11.131 -0.2600 -0.3769  0.0399
18615TIP3    H177260   6.028   1.236  11.072 -0.7235 -0.2561  0.3200
18615TIP3    H277261   6.014   1.350  11.171  0.4650  1.6907 -1.6663
18616TIP3   OH277262   4.441   3.715   5.043  0.1721  0.2033 -0.5724
18616TIP3    H177263   4.420   3.809   5.039  0.2294  0.2775  0.4848
18616TIP3    H277264   4.533   3.711   5.015  0.0217  0.4022 -1.1017
18617TIP3   OH277265   2.921   6.025   5.255  0.0976 -0.0509  0.6930
18617TIP3    H177266   2.966   6.110   5.255  1.6972 -0.8672  0.7667
18617TIP3    H277267   2.881   6.019   5.341  0.3963  0.4143  0.8689
18618TIP3   OH277268   2.137   0.603  14.624  0.1575 -0.4973  0.1228
18618TIP3    H177269   2.117   0.586  14.716  1.4402  1.1466  0.7631
18618TIP3    H277270   2.052   0.603  14.580 -0.7313  0.7653  1.7116
18619TIP3   OH277271   1.873   0.336   1.935 -1.2039 -0.4659 -0.3373
18619TIP3    H177272   1.944   0.285   1.895 -2.3331 -2.0505 -0.4383
18619TIP3    H277273   1.805   0.339   1.868 -1.4156  0.6434 -0.0820
18620TIP3   OH277274   1.702   0.944  15.241  0.0588  0.2463  0.4282
18620TIP3    H177275   1.690   1.033  15.274  2.2977  0.9404 -0.4071
18620TIP3    H277276   1.744   0.956  15.156  0.2998 -1.6152  0.2482
18621TIP3   OH277277   5.317   6.363  16.904  0.1697 -0.0833 -0.5711
18621TIP3    H177278   5.282   6.452  16.903  2.4944  0.9512 -2.7800
18621TIP3    H277279   5.259   6.314  16.846 -1.1605 -0.0965  0.7048
18622TIP3   OH277280   5.387   0.083   5.301 -0.0658  0.5336  0.0822
18622TIP3    H177281   5.460   0.030   5.269  1.4588  1.3075  2.0956
18622TIP3    H277282   5.389   0.162   5.246  0.5561  0.5108  0.0685
18623TIP3   OH277283   0.969   4.679  15.350 -0.0772  0.8096 -0.1489
18623TIP3    H177284   0.883   4.640  15.334  0.5142 -0.3322 -0.6651
18623TIP3    H277285   0.975   4.750  15.287  0.0420 -0.2166 -1.3337
18624TIP3   OH277286   0.192   3.930   6.042 -0.0355 -0.2886 -0.5072
18624TIP3    H177287   0.165   3.969   5.959 -0.5011  0.2363 -0.1141
18624TIP3    H277288   0.218   3.841   6.019  0.4744  0.0595 -1.3189
18625TIP3   OH277289   6.610   2.134   1.365  0.2690  0.0357 -0.2396
18625TIP3    H177290   6.618   2.078   1.289 -0.2514  0.0146 -0.2813
18625TIP3    H277291   6.680   2.198   1.355  0.7072 -0.4502 -0.3196
18626TIP3   OH277292   6.420   2.906  11.762  0.1497  0.6604  0.0314
18626TIP3    H177293   6.393   2.988  11.803 -0.3453  0.3547  0.3282
18626TIP3    H277294   6.495   2.930  11.708 -0.5183  1.4626 -0.5552
18627TIP3   OH277295   5.359   1.713   0.201  0.0473  0.3557 -0.0433
18627TIP3    H177296   5.421   1.687   0.269 -0.5335  1.6667  1.0421
18627TIP3    H277297   5.407   1.702   0.119  1.2260  0.0027  0.6667
18628TIP3   OH277298   6.278   4.031  14.007 -0.7963  0.0208 -0.2793
18628TIP3    H177299   6.366   4.050  13.975 -0.4748 -2.1388 -0.8945
18628TIP3    H277300   6.280   4.053  14.100  0.1174  0.8205 -0.4843
18629TIP3   OH277301   6.252   0.611   3.221  0.6077  0.3454 -0.0079
18629TIP3    H177302   6.307   0.646   3.291 -0.3934  0.4229  0.7701
18629TIP3    H277303   6.306   0.545   3.178  0.5125 -1.3798  2.3175
18630TIP3   OH277304   6.607   0.767  15.085 -0.2004 -0.0875  0.0035
18630TIP3    H177305   6.634   0.856  15.061 -1.0987  0.1228 -0.2698
18630TIP3    H277306   6.634   0.713  15.011  0.2768 -0.0378  0.1355
18631TIP3   OH277307   6.072   3.600   0.966  0.4189  0.0974 -0.0791
18631TIP3    H177308   6.054   3.529   1.028 -0.4357  0.5146  0.1550
18631TIP3    H277309   5.988   3.618   0.924  0.8734  0.1917 -0.9864
18632TIP3   OH277310   0.445   1.821  11.548 -0.6676 -0.0510  0.3875
18632TIP3    H177311   0.502   1.862  11.613 -0.7182 -0.8594  0.9717
18632TIP3    H277312   0.484   1.841  11.464 -0.3570  0.6611  0.6979
18633TIP3   OH277313   4.619   5.851  14.625  0.0768 -0.1360 -0.2395
18633TIP3    H177314   4.597   5.793  14.551  0.9037  0.2215 -0.7766
18633TIP3    H277315   4.628   5.938  14.586 -1.4567  0.4482  0.6110
18634TIP3   OH277316   6.091   4.875  12.494 -0.1165  0.0965 -0.2967
18634TIP3    H177317   6.054   4.949  12.543 -0.8836  0.4213 -1.3042
18634TIP3    H277318   6.175   4.907  12.461 -0.3573  0.4689 -0.5639
18635TIP3   OH277319   1.573   3.320   1.755 -0.1961  0.1074  0.0265
18635TIP3    H177320   1.584   3.380   1.829 -1.3063 -0.1898  0.4515
18635TIP3    H277321   1.547   3.376   1.682  1.2934  0.4540 -0.2630
18636TIP3   OH277322   3.723   4.573   3.151 -0.0187  0.3271  0.1962
18636TIP3    H177323   3.704   4.482   3.173 -1.6951  0.3254 -1.1136
18636TIP3    H277324   3.675   4.589   3.070  2.6255  1.5123 -1.2859
18637TIP3   OH277325   4.409   6.732  11.704  0.1578  0.5371 -0.0024
18637TIP3    H177326   4.456   6.653  11.730  1.0079  1.4230  1.2909
18637TIP3    H277327   4.366   6.762  11.785 -1.3526  0.6196 -0.8066
18638TIP3   OH277328   3.248   3.215  11.545 -0.3835  0.1895  0.5062
18638TIP3    H177329   3.185   3.284  11.527 -0.3091  0.3069  0.6895
18638TIP3    H277330   3.307   3.217  11.470 -0.2074  0.5257  0.6480
18639TIP3   OH277331   0.668   6.282   2.489  0.1496  0.0420  0.1940
18639TIP3    H177332   0.596   6.220   2.494 -1.0777  1.4406  0.5976
18639TIP3    H277333   0.717   6.269   2.570 -0.8391  0.4525  0.8732
18640TIP3   OH277334   4.626   3.636  14.394  0.7469  0.9651 -0.1488
18640TIP3    H177335   4.684   3.561  14.383  1.7054  1.4142  1.5535
18640TIP3    H277336   4.566   3.631  14.319  0.1266 -2.0815  0.4209
18641TIP3   OH277337   3.835   1.062   5.552  0.3552  0.0246  0.2963
18641TIP3    H177338   3.746   1.028   5.548  0.3552  0.1014 -0.6342
18641TIP3    H277339   3.872   1.025   5.632 -0.6420  0.3312  0.9150
18642TIP3   OH277340   2.569   4.325   4.089  0.4721  0.2695  0.0250
18642TIP3    H177341   2.643   4.280   4.047  0.0222 -0.0144 -0.4708
18642TIP3    H277342   2.526   4.257   4.141  0.6918  0.4907  0.5041
18643TIP3   OH277343   0.146   2.336   0.632 -0.3863  0.5433  0.2277
18643TIP3    H177344   0.193   2.268   0.584 -1.0412 -1.6180  2.4256
18643TIP3    H277345   0.205   2.411   0.632  1.1703 -0.6255 -0.7460
18644TIP3   OH277346   3.541   4.646  13.904  0.2987  0.5209  0.2906
18644TIP3    H177347   3.475   4.577  13.910  0.0581  0.4792 -2.0180
18644TIP3    H277348   3.623   4.601  13.925  0.0009 -0.1930 -0.0198
18645TIP3   OH277349   1.163   1.546   3.162 -0.0529 -0.6494 -0.2183
18645TIP3    H177350   1.205   1.475   3.210  0.9095 -0.4763 -0.7705
18645TIP3    H277351   1.178   1.524   3.070  0.2082  0.2327 -0.3980
18646TIP3   OH277352   5.827   3.341  12.449  0.5226 -0.2397  0.0131
18646TIP3    H177353   5.745   3.391  12.454  0.7416  0.3501 -1.7315
18646TIP3    H277354   5.857   3.335  12.540 -0.6712  0.8482  0.5063
18647TIP3   OH277355   5.806   0.738  14.754 -0.3508 -0.0099  0.3282
18647TIP3    H177356   5.770   0.665  14.703 -1.7206  1.6216 -1.1485
18647TIP3    H277357   5.894   0.751  14.718 -0.9493  0.5002 -0.9963
18648TIP3   OH277358   5.133   3.952  13.598  0.0289  0.3416 -0.1624
18648TIP3    H177359   5.177   4.033  13.626  1.3975 -0.0741 -0.9905
18648TIP3    H277360   5.203   3.900  13.558 -1.2958 -0.1673 -1.9606
18649TIP3   OH277361   4.078   5.075   1.351 -0.4912 -0.1935  0.1831
18649TIP3    H177362   4.103   5.152   1.299  1.7804 -0.8376  0.2044
18649TIP3    H277363   4.104   5.000   1.298 -2.1175 -0.9750  0.4249
18650TIP3   OH277364   6.408   4.367   5.481  0.6169 -0.5690 -0.7215
18650TIP3    H177365   6.453   4.287   5.453 -0.7998 -1.1684 -1.4255
18650TIP3    H277366   6.317   4.339   5.493  0.4528  0.5415  0.8302
18651TIP3   OH277367   3.198   2.511  14.975  0.4269 -0.5642  0.5509
18651TIP3    H177368   3.130   2.575  14.958  0.8858 -0.0700  0.5364
18651TIP3    H277369   3.178   2.477  15.062  0.6575  0.2320  0.9297
18652TIP3   OH277370   0.323   3.275   3.422 -0.1485  0.3867 -0.7930
18652TIP3    H177371   0.281   3.313   3.499 -0.7539  0.0643 -0.9552
18652TIP3    H277372   0.398   3.227   3.457  0.3414  1.3272 -0.5451
18653TIP3   OH277373   0.925   0.146   3.017 -0.3452  0.1350  1.0495
18653TIP3    H177374   0.834   0.142   2.989  0.6953 -1.2782 -2.7995
18653TIP3    H277375   0.944   0.240   3.024 -1.1716  0.6545 -2.0511
18654TIP3   OH277376   0.846   5.284  11.264  0.0946 -0.2715 -0.6465
18654TIP3    H177377   0.818   5.270  11.174  0.9186 -1.4053 -0.7458
18654TIP3    H277378   0.774   5.334  11.304 -1.0514 -1.2145 -1.4649
18655TIP3   OH277379   6.521   2.425   1.788  0.5124 -0.3864  0.2082
18655TIP3    H177380   6.498   2.386   1.704  1.1257  0.9557 -0.6158
18655TIP3    H277381   6.448   2.483   1.808 -0.3791 -1.8501  1.4084
18656TIP3   OH277382   1.757   2.543  15.245  0.1066 -0.1733 -0.2239
18656TIP3    H177383   1.733   2.453  15.268  0.2415 -0.5831 -1.5809
18656TIP3    H277384   1.691   2.570  15.182  1.4996 -0.2802 -1.7969
18657TIP3   OH277385   1.239   1.820  12.489 -0.8801 -0.1712  0.1932
18657TIP3    H177386   1.232   1.736  12.534 -1.4031  0.0277  0.5009
18657TIP3    H277387   1.165   1.823  12.430 -0.8694  0.0751  0.1881
18658TIP3   OH277388   5.041   2.621   3.893 -0.6293 -0.0671 -0.0147
18658TIP3    H177389   5.042   2.716   3.907 -0.8350  0.2015 -1.6675
18658TIP3    H277390   5.132   2.598   3.876 -0.5530 -0.2136  0.5520
18659TIP3   OH277391   4.538   5.359  10.957 -0.2006  0.1200  0.0138
18659TIP3    H177392   4.542   5.454  10.952  1.1558  0.0807  0.0686
18659TIP3    H277393   4.522   5.331  10.866  0.4520  0.3603 -0.1796
18660TIP3   OH277394   4.015   2.078  13.011 -0.6301 -0.2679 -0.2820
18660TIP3    H177395   4.035   2.001  13.065 -1.0172 -1.3515 -1.6474
18660TIP3    H277396   4.075   2.072  12.937 -0.9747  0.4953 -0.6353
18661TIP3   OH277397   6.396   1.240  12.662  0.0396 -0.1279  0.1770
18661TIP3    H177398   6.340   1.317  12.653 -0.7256 -0.6439  0.4875
18661TIP3    H277399   6.336   1.168  12.680  0.5607 -1.1687 -1.9914
18662TIP3   OH277400   4.975   3.145   0.222  0.1949  0.2278 -0.1416
18662TIP3    H177401   4.904   3.206   0.200 -0.8353 -0.4290  1.2024
18662TIP3    H277402   4.931   3.060   0.231  1.1537 -0.1817  0.7753
18663TIP3   OH277403   2.064   6.298   1.394  0.3005 -0.2821  0.4097
18663TIP3    H177404   2.124   6.232   1.360  1.0394  0.2679  0.6211
18663TIP3    H277405   2.020   6.256   1.468  2.1087  0.0539  1.7231
18664TIP3   OH277406   3.829   3.384  13.258 -0.2739 -0.5227  0.5069
18664TIP3    H177407   3.822   3.313  13.195  0.1325 -0.5040  0.4335
18664TIP3    H277408   3.901   3.357  13.316  2.8147  1.6159 -1.9491
18665TIP3   OH277409   0.020   0.576   0.230  0.5304 -0.4910 -0.7148
18665TIP3    H177410   0.076   0.627   0.290 -0.8049  1.1535 -0.7850
18665TIP3    H277411   0.035   0.485   0.256  1.1372  0.0695  1.1204
18666TIP3   OH277412   0.969   2.604  14.998  0.0496  0.7729  0.0071
18666TIP3    H177413   0.898   2.649  15.043  1.2961  0.8678  1.9908
18666TIP3    H277414   0.950   2.511  15.009  1.7601  0.6724  3.4201
18667TIP3   OH277415   2.734   0.881  16.171 -0.1148  0.0415  0.7032
18667TIP3    H177416   2.662   0.859  16.112 -0.4367 -1.4970  1.6097
18667TIP3    H277417   2.810   0.891  16.114 -0.5013 -1.0381 -0.0294
18668TIP3   OH277418   0.343   0.585   5.961  0.0441  0.8251  0.4131
18668TIP3    H177419   0.302   0.578   5.875 -1.0391  1.2201  0.8793
18668TIP3    H277420   0.370   0.496   5.983  0.6989  0.7880 -0.4971
18669TIP3   OH277421   5.526   3.690  13.014 -0.0307 -0.4898  0.7500
18669TIP3    H177422   5.477   3.741  12.950 -2.4139  0.4092  3.1166
18669TIP3    H277423   5.614   3.683  12.977 -1.3820 -0.4951 -2.8114
18670TIP3   OH277424   0.777   0.555  10.773 -0.0114  0.9713 -0.0178
18670TIP3    H177425   0.857   0.573  10.724  0.0185  0.9187  0.0107
18670TIP3    H277426   0.769   0.459  10.772 -0.4851  1.0082 -0.6691
18671TIP3   OH277427   6.296   5.473  15.120  0.2674  0.1339 -0.4950
18671TIP3    H177428   6.307   5.565  15.096 -1.0157  0.1139 -1.2569
18671TIP3    H277429   6.221   5.473  15.180  0.7845 -0.3235  0.1531
18672TIP3   OH277430   6.111   6.478  16.806 -0.5767 -0.3119  0.2206
18672TIP3    H177431   6.031   6.428  16.826  0.7757 -2.8984 -0.3568
18672TIP3    H277432   6.166   6.466  16.883 -1.2573  2.8737  1.3530
18673TIP3   OH277433   5.304   5.485  13.892 -0.1705  1.0858 -0.6982
18673TIP3    H177434   5.288   5.397  13.859  0.7630  0.5373  0.2662
18673TIP3    H277435   5.397   5.500  13.877 -0.1143  1.5224  0.0379
18674TIP3   OH277436   6.038   0.677  15.599  0.2803  0.5896 -0.2716
18674TIP3    H177437   6.099   0.651  15.668  0.7458  1.3710 -0.3776
18674TIP3    H277438   6.078   0.644  15.518  0.4709  0.9436 -0.3219
18675TIP3   OH277439   4.108   6.225   4.349  0.3084  0.2099 -0.1680
18675TIP3    H177440   4.026   6.273   4.341  0.2228 -0.0615 -1.0961
18675TIP3    H277441   4.171   6.291   4.379  0.1966  0.9332 -1.4341
18676TIP3   OH277442   5.266   2.486   5.162  0.3592 -0.9879 -0.1865
18676TIP3    H177443   5.231   2.506   5.075  0.2281  0.4978  0.1787
18676TIP3    H277444   5.273   2.571   5.205  0.2436 -1.7178  1.3361
18677TIP3   OH277445   2.320   4.468   3.121 -0.3506  0.6498  0.2701
18677TIP3    H177446   2.252   4.403   3.108 -0.6126  1.0690 -0.4782
18677TIP3    H277447   2.275   4.552   3.118  0.1202  0.9092  0.2763
18678TIP3   OH277448   0.423   5.966  16.420 -0.1985 -0.1226 -0.2324
18678TIP3    H177449   0.398   5.894  16.479 -3.8002 -0.4797 -1.9104
18678TIP3    H277450   0.450   5.922  16.340 -1.9915  0.2687 -1.1116
18679TIP3   OH277451   4.696   2.617  15.974  0.3880 -0.0231  0.8961
18679TIP3    H177452   4.759   2.634  15.904 -0.9374  0.8201 -0.1384
18679TIP3    H277453   4.748   2.578  16.044  1.8253 -0.5745 -0.4157
18680TIP3   OH277454   6.556   1.765   3.788  0.2908 -0.5139 -0.2393
18680TIP3    H177455   6.626   1.828   3.769  1.5742 -0.8149  2.9609
18680TIP3    H277456   6.534   1.781   3.880 -1.8514 -2.4074 -0.3484
18681TIP3   OH277457   2.824   3.596   5.131  0.0686 -0.0962 -0.2249
18681TIP3    H177458   2.764   3.569   5.201  1.8495 -0.0715  1.4190
18681TIP3    H277459   2.809   3.533   5.061  0.4023 -2.1772  1.4547
18682TIP3   OH277460   0.411   0.783  15.235  0.3921 -0.4686 -0.2984
18682TIP3    H177461   0.444   0.765  15.147 -0.8799  2.3860 -1.4870
18682TIP3    H277462   0.316   0.786  15.225  0.2930  2.2260  0.5387
18683TIP3   OH277463   2.986   1.288   5.507  0.3791 -0.0396  0.3173
18683TIP3    H177464   3.020   1.304   5.595  0.5505  1.1797  0.0343
18683TIP3    H277465   2.932   1.364   5.487  3.7471  1.9158 -2.2913
18684TIP3   OH277466   5.913   3.825   6.496 -0.7650 -0.3737  0.6802
18684TIP3    H177467   5.975   3.776   6.442 -0.6135  0.4552  0.0725
18684TIP3    H277468   5.839   3.765   6.509 -1.0914 -0.3859 -0.9964
18685TIP3   OH277469   1.408   5.008   3.735 -0.6052 -0.1515  0.5900
18685TIP3    H177470   1.337   5.016   3.670  1.3927 -0.3626 -1.7533
18685TIP3    H277471   1.436   5.098   3.751 -0.4735 -0.1591  0.4079
18686TIP3   OH277472   4.801   2.583   4.825 -0.2492 -0.5492  0.1073
18686TIP3    H177473   4.782   2.526   4.900 -0.7492 -1.4238 -0.6588
18686TIP3    H277474   4.895   2.571   4.809  0.1677  0.6963  1.4166
18687TIP3   OH277475   1.153   2.076  12.563  0.2755  0.0895 -0.3448
18687TIP3    H177476   1.213   2.005  12.541  1.2407  1.0353 -0.8535
18687TIP3    H277477   1.103   2.093  12.483 -0.6783 -0.6690  0.0650
18688TIP3   OH277478   1.552   6.739  11.363 -0.2716  0.7078 -0.6004
18688TIP3    H177479   1.496   6.686  11.307 -0.1307 -0.4251  0.3026
18688TIP3    H277480   1.633   6.688  11.373  0.2163  1.4915 -0.4207
18689TIP3   OH277481   4.940   5.011   4.755  0.5038  0.2522  0.3927
18689TIP3    H177482   4.859   5.057   4.733  0.5700  0.8309  1.3431
18689TIP3    H277483   4.918   4.958   4.832  0.5422 -1.0080 -0.4234
18690TIP3   OH277484   2.619   4.222   4.547 -0.1082 -0.1505  0.2129
18690TIP3    H177485   2.670   4.303   4.543  0.0809 -0.2662  0.2563
18690TIP3    H277486   2.620   4.198   4.640  1.5012 -1.2463 -0.0399
18691TIP3   OH277487   6.725   3.862   5.006 -0.5038 -0.1122  0.2193
18691TIP3    H177488   6.684   3.883   4.921 -1.6586  2.1506  1.2401
18691TIP3    H277489   6.652   3.838   5.062  0.2004 -1.1170  0.7251
18692TIP3   OH277490   1.233   6.317   2.505 -0.2135  0.3795  0.1776
18692TIP3    H177491   1.229   6.345   2.414  0.6794  0.4771  0.1610
18692TIP3    H277492   1.261   6.225   2.501 -1.7384 -0.1059  0.2921
18693TIP3   OH277493   0.802   0.339   4.358  0.4660 -0.4295 -0.3370
18693TIP3    H177494   0.816   0.433   4.373 -0.0400 -0.2992 -0.6530
18693TIP3    H277495   0.884   0.298   4.385  0.3866  0.0193  0.6169
18694TIP3   OH277496   2.894   5.303  13.289 -0.0116  0.0060  0.2858
18694TIP3    H177497   2.906   5.347  13.373  0.0671  2.0506 -0.7209
18694TIP3    H277498   2.799   5.286  13.284 -0.3071  1.5578  0.0511
18695TIP3   OH277499   0.181   1.412   4.214 -0.1074 -0.0257 -0.0262
18695TIP3    H177500   0.222   1.444   4.134 -0.1379 -0.9761 -0.4303
18695TIP3    H277501   0.249   1.419   4.281 -0.3638  1.6577  0.1073
18696TIP3   OH277502   0.046   4.291  12.264  0.3466 -0.1704  0.0819
18696TIP3    H177503   0.140   4.273  12.260  0.2726 -0.5421  0.0302
18696TIP3    H277504   0.013   4.265  12.178 -0.0682 -1.5484  0.6325
18697TIP3   OH277505   1.891   0.313  15.182 -0.0088  0.1414  0.1542
18697TIP3    H177506   1.883   0.250  15.110  1.4269  0.8446 -0.6551
18697TIP3    H277507   1.939   0.267  15.250 -0.4518 -0.1764  0.2587
18698TIP3   OH277508   2.267   2.036  16.132  0.3668  0.4937  0.4541
18698TIP3    H177509   2.234   2.057  16.220 -0.6751 -2.4628  0.8694
18698TIP3    H277510   2.360   2.058  16.137  0.8266 -1.4825  3.0629
18699TIP3   OH277511   5.316   1.343  11.972 -0.4670 -0.3375 -0.2290
18699TIP3    H177512   5.253   1.285  11.929  1.6338 -1.8777 -1.4401
18699TIP3    H277513   5.362   1.285  12.033 -1.0454  1.0513  1.5924
18700TIP3   OH277514   6.748   0.065   1.979  0.4266  0.2623 -0.4528
18700TIP3    H177515   6.778  -0.022   2.008  0.1057  0.7860  1.6314
18700TIP3    H277516   6.829   0.111   1.957  0.5735 -0.6761 -2.0574
18701TIP3   OH277517   3.452   3.027   3.773  0.3199  0.4477 -0.1153
18701TIP3    H177518   3.505   3.097   3.734  0.1502 -0.0338 -1.2560
18701TIP3    H277519   3.484   3.020   3.863  0.6057  1.7201 -0.0967
18702TIP3   OH277520   1.488   1.943  16.467 -0.7926 -0.8169 -0.4581
18702TIP3    H177521   1.405   1.938  16.515 -1.7298  2.3250 -1.5198
18702TIP3    H277522   1.468   1.907  16.381 -0.8069 -0.9083 -0.4157
18703TIP3   OH277523   6.446   3.792  17.037 -0.2327  0.6181  0.0069
18703TIP3    H177524   6.441   3.853  16.964  0.3453  0.7331  0.0637
18703TIP3    H277525   6.411   3.710  17.002 -0.5957  0.8551 -0.1931
18704TIP3   OH277526   2.727   1.365  14.268  0.3267  0.0479 -0.0589
18704TIP3    H177527   2.737   1.271  14.256  0.1378  0.1245 -0.9056
18704TIP3    H277528   2.741   1.379  14.362 -1.1786 -1.0238  0.3752
18705TIP3   OH277529   4.221   5.778  14.269 -0.2495  0.1818  0.3990
18705TIP3    H177530   4.302   5.828  14.262 -0.1772  0.4938  2.7095
18705TIP3    H277531   4.210   5.762  14.363 -1.2585 -2.5450 -0.0775
18706TIP3   OH277532   0.193   5.626   5.761  0.7138  0.0070  0.6635
18706TIP3    H177533   0.235   5.589   5.683 -0.8369 -3.4954  1.2803
18706TIP3    H277534   0.106   5.587   5.762 -0.0065  1.4413  3.1608
18707TIP3   OH277535   3.854   4.298   1.450  0.5391 -0.0608 -0.0994
18707TIP3    H177536   3.810   4.369   1.404  0.8826 -1.0044 -2.0099
18707TIP3    H277537   3.869   4.331   1.539  0.4424  2.1106 -0.8472
18708TIP3   OH277538   0.608   4.488   1.742 -0.4137 -0.2097 -0.0439
18708TIP3    H177539   0.608   4.514   1.834  0.8842  0.9880 -0.3422
18708TIP3    H277540   0.700   4.477   1.720 -0.7272 -0.8835 -1.0973
18709TIP3   OH277541   1.196   1.007  12.880 -0.6125 -0.4037  0.3422
18709TIP3    H177542   1.150   0.942  12.828  0.1533  0.1129 -1.0147
18709TIP3    H277543   1.245   1.060  12.817  1.1058 -0.3394  1.6282
18710TIP3   OH277544   3.780   2.794   3.431 -1.0826  0.3557  0.2242
18710TIP3    H177545   3.706   2.824   3.485 -1.1832  0.9126 -0.2136
18710TIP3    H277546   3.850   2.856   3.450 -0.4182 -0.6873  1.3138
18711TIP3   OH277547   4.807   5.169  15.412  0.2821  0.2412 -0.8940
18711TIP3    H177548   4.883   5.224  15.392  0.9884 -0.4318 -0.2075
18711TIP3    H277549   4.843   5.100  15.469 -1.0466  0.4924  0.3104
18712TIP3   OH277550   3.492   3.788  16.066  0.0218 -0.2936 -0.5883
18712TIP3    H177551   3.446   3.784  15.982 -0.0334 -1.3470 -0.5223
18712TIP3    H277552   3.447   3.725  16.121 -0.3240  0.8281  0.4463
18713TIP3   OH277553   4.240   2.238   5.112  0.1337 -0.2648  0.3292
18713TIP3    H177554   4.236   2.216   5.205 -0.9192 -1.0206  0.1142
18713TIP3    H277555   4.317   2.190   5.079 -1.4538 -2.8461  0.1094
18714TIP3   OH277556   2.979   4.360  13.262 -0.4948  0.3051 -0.4370
18714TIP3    H177557   2.967   4.270  13.232 -1.3500  1.0125 -2.3962
18714TIP3    H277558   2.916   4.370  13.333  0.7416 -1.0766  0.9319
18715TIP3   OH277559   1.175   5.991   6.535 -0.0508 -0.0342  0.5473
18715TIP3    H177560   1.222   5.910   6.553  0.3833 -0.0459 -0.5579
18715TIP3    H277561   1.082   5.967   6.541  0.0787 -0.5269  0.5762
18716TIP3   OH277562   0.365   2.780  16.939 -0.5696  0.1710  0.0946
18716TIP3    H177563   0.306   2.846  16.974  1.5808  2.0644  0.3753
18716TIP3    H277564   0.413   2.824  16.869  1.6225 -0.7413  0.9152
18717TIP3   OH277565   3.179   3.938  11.027 -0.3881  0.1459 -0.0612
18717TIP3    H177566   3.229   3.888  10.963 -0.1832 -0.3635  0.4887
18717TIP3    H277567   3.176   4.027  10.992 -1.1553 -0.3422 -1.2925
18718TIP3   OH277568   1.326   5.740   0.392 -0.4272 -0.1581 -0.2279
18718TIP3    H177569   1.277   5.763   0.313  0.1955  1.0392 -0.2809
18718TIP3    H277570   1.337   5.822   0.439 -0.9719 -0.8790  1.2410
18719TIP3   OH277571   0.229   5.987  12.663  0.0051  0.0503 -0.3669
18719TIP3    H177572   0.209   5.894  12.649 -0.8431  0.3987 -1.6647
18719TIP3    H277573   0.155   6.020  12.714  0.3576 -0.0055  0.1831
18720TIP3   OH277574   6.506   0.841   4.761 -0.5606 -0.5144 -0.1018
18720TIP3    H177575   6.432   0.792   4.727  0.0415  0.1684 -2.6163
18720TIP3    H277576   6.568   0.844   4.688  0.2268  2.3161  0.5661
18721TIP3   OH277577   1.657   2.157  16.540 -0.2484 -0.1752 -0.0140
18721TIP3    H177578   1.615   2.073  16.521 -0.7107 -0.0300  0.3292
18721TIP3    H277579   1.593   2.222  16.509  0.3781  0.0538 -0.8545
18722TIP3   OH277580   5.677   4.203   4.388  0.1104  0.1984  0.0437
18722TIP3    H177581   5.675   4.297   4.410  0.8039  0.2311  0.0046
18722TIP3    H277582   5.721   4.199   4.303 -0.5821 -0.1085 -0.3017
18723TIP3   OH277583   2.842   6.723   5.758  0.2581 -0.0159  0.8737
18723TIP3    H177584   2.894   6.700   5.681 -1.2975  0.6261 -0.4341
18723TIP3    H277585   2.890   6.795   5.799  0.4834  0.4885 -0.2296
18724TIP3   OH277586   1.279   0.893  15.764 -0.3845  0.0012 -0.1173
18724TIP3    H177587   1.244   0.897  15.675  0.0905  0.2030 -0.2989
18724TIP3    H277588   1.205   0.865  15.818 -0.4942 -0.8039 -0.6733
18725TIP3   OH277589   0.281   0.532  11.595  0.2670  0.0668 -0.3822
18725TIP3    H177590   0.245   0.618  11.575 -1.4159 -0.4652  0.1718
18725TIP3    H277591   0.271   0.522  11.689  0.0077 -0.9027 -0.4960
18726TIP3   OH277592   6.181   5.781  11.805  0.1555 -0.0773 -0.2191
18726TIP3    H177593   6.268   5.781  11.766  0.3028 -0.7352  0.1041
18726TIP3    H277594   6.169   5.872  11.834  0.5543  0.1183 -0.6404
18727TIP3   OH277595   5.840   3.702   5.064 -0.6110 -0.4146 -0.4404
18727TIP3    H177596   5.805   3.638   5.001 -0.8598 -0.2956 -0.4217
18727TIP3    H277597   5.935   3.690   5.059 -0.5709  0.2033 -1.4943
18728TIP3   OH277598   2.948   3.008  14.698  0.4051 -0.1152 -0.3428
18728TIP3    H177599   2.910   2.932  14.742  2.0038 -0.6172  0.2325
18728TIP3    H277600   2.987   2.973  14.618 -1.2564  0.5747 -1.4975
18729TIP3   OH277601   6.203   1.492  13.984  0.2787 -0.8444 -0.0582
18729TIP3    H177602   6.132   1.555  13.968 -1.5107 -2.7964 -0.2747
18729TIP3    H277603   6.276   1.525  13.932 -1.4851 -0.4414 -2.4934
18730TIP3   OH277604   2.815   1.412  11.553 -0.5860 -0.1052 -0.2570
18730TIP3    H177605   2.787   1.481  11.493  0.7999  1.1773  0.5028
18730TIP3    H277606   2.885   1.366  11.506  0.7842  1.1583  0.4520
18731TIP3   OH277607   0.580   4.120  16.204 -0.0583  0.3618  0.4417
18731TIP3    H177608   0.633   4.154  16.132 -0.8454  0.0490 -0.2984
18731TIP3    H277609   0.513   4.066  16.161 -2.0193  2.0530  1.2185
18732TIP3   OH277610   1.606   3.729   4.617  0.0601 -0.5690  0.5691
18732TIP3    H177611   1.605   3.744   4.522  0.1066  2.1852  0.9251
18732TIP3    H277612   1.638   3.639   4.626 -0.6395 -1.1803 -2.0243
18733TIP3   OH277613   1.177   3.658   2.622  0.3803 -1.1688 -0.0084
18733TIP3    H177614   1.236   3.607   2.677 -0.2232 -0.7875  1.0177
18733TIP3    H277615   1.094   3.660   2.670  0.7115  1.8005  0.6426
18734TIP3   OH277616   4.384   1.020   5.449  0.5078 -0.4555 -0.0807
18734TIP3    H177617   4.426   1.028   5.364  2.8281  1.3797  1.1235
18734TIP3    H277618   4.345   1.106   5.466  1.2081 -0.3685  1.2295
18735TIP3   OH277619   2.643   5.471   0.641  0.8426 -0.2922  0.1538
18735TIP3    H177620   2.645   5.554   0.689 -1.8733 -1.1091  1.9506
18735TIP3    H277621   2.696   5.411   0.694  0.3215 -0.4305  0.5308
18736TIP3   OH277622   5.117   1.416   2.020  0.2488  0.0608  0.4454
18736TIP3    H177623   5.022   1.415   2.010  0.2690  0.2038  0.2320
18736TIP3    H277624   5.134   1.360   2.096 -0.0194  0.1919  0.6019
18737TIP3   OH277625   6.174   2.527  16.057 -0.0456  0.3722 -0.2919
18737TIP3    H177626   6.124   2.473  16.118 -0.9284 -0.1206 -1.4275
18737TIP3    H277627   6.188   2.471  15.981 -0.2408  1.4478 -1.1453
18738TIP3   OH277628   3.311   0.432   5.331  0.1519 -0.1483 -0.1151
18738TIP3    H177629   3.302   0.387   5.247 -2.0575 -1.1777  0.5927
18738TIP3    H277630   3.354   0.369   5.388 -1.0182 -0.6094  0.2923
18739TIP3   OH277631   5.573   0.823   1.759  0.3242  0.4909  0.2929
18739TIP3    H177632   5.606   0.790   1.675  0.2051  1.3527 -0.1026
18739TIP3    H277633   5.494   0.772   1.775  0.5870  0.0139  0.1060
18740TIP3   OH277634   2.151   2.625  12.708  0.4954 -0.2701  0.2422
18740TIP3    H177635   2.163   2.632  12.803 -0.7978 -0.2522  0.4214
18740TIP3    H277636   2.069   2.577  12.698 -0.7645  1.9440 -0.8291
18741TIP3   OH277637   0.254   0.889   1.075 -0.6013 -0.2992 -0.3430
18741TIP3    H177638   0.231   0.920   1.163  0.3136 -0.3193 -0.0915
18741TIP3    H277639   0.324   0.948   1.047 -3.6000  2.5008 -2.7950
18742TIP3   OH277640   0.826   3.138   0.216 -0.4463 -0.2920 -0.4750
18742TIP3    H177641   0.796   3.155   0.127 -0.6611 -2.0418 -0.7850
18742TIP3    H277642   0.870   3.053   0.210 -0.7928 -0.6192  1.1409
18743TIP3   OH277643   0.885   2.822  12.205 -0.6649  0.6597 -0.5971
18743TIP3    H177644   0.960   2.824  12.264 -1.0833  2.0506 -0.0767
18743TIP3    H277645   0.923   2.814  12.118  0.1353  1.7498 -0.3681
18744TIP3   OH277646   0.767   3.356  14.138 -0.0025 -0.1190  0.3417
18744TIP3    H177647   0.803   3.357  14.049 -0.5430 -0.6394  0.1097
18744TIP3    H277648   0.835   3.398  14.191  0.7178 -0.6067 -0.1667
18745TIP3   OH277649   2.914   0.627  14.878  0.2269 -0.1177  0.2393
18745TIP3    H177650   2.835   0.654  14.925 -0.4285 -0.9384 -0.3713
18745TIP3    H277651   2.985   0.671  14.924 -0.5287  0.1747  1.1575
18746TIP3   OH277652   4.536   4.854   1.239  0.3655  0.6727  0.3639
18746TIP3    H177653   4.609   4.814   1.193 -0.3204  1.6529 -1.6847
18746TIP3    H277654   4.467   4.864   1.173 -0.0794  3.6962  1.1061
18747TIP3   OH277655   6.199   3.439   3.993 -0.7898 -0.2797 -0.2515
18747TIP3    H177656   6.260   3.462   3.922  0.3313 -2.1215  0.0464
18747TIP3    H277657   6.137   3.379   3.952 -1.8107  0.7800 -0.2955
18748TIP3   OH277658   4.054   4.762   1.531  0.5275 -0.4832  0.0597
18748TIP3    H177659   4.125   4.794   1.587 -0.3502 -0.8312  1.4200
18748TIP3    H277660   4.065   4.810   1.449  1.2046  0.8736  0.9027
18749TIP3   OH277661   5.105   4.815  12.579  0.1989  0.0253 -0.1473
18749TIP3    H177662   5.009   4.815  12.587  0.2976  0.1166  1.2159
18749TIP3    H277663   5.136   4.856  12.660  1.4271 -1.1442  0.0039
18750TIP3   OH277664   0.511   0.368   1.169  0.1270  0.4152  0.6677
18750TIP3    H177665   0.425   0.383   1.209 -1.2158 -4.9979  0.5160
18750TIP3    H277666   0.493   0.360   1.075  0.4648 -1.7680  0.7329
18751TIP3   OH277667   1.605   0.309  16.652 -0.2461  0.0540  0.6153
18751TIP3    H177668   1.648   0.392  16.634  0.8311 -0.9597 -1.9872
18751TIP3    H277669   1.518   0.318  16.613  0.1210 -0.2536 -0.2931
18752TIP3   OH277670   6.116   4.812   1.279  0.1494  0.4337 -0.3671
18752TIP3    H177671   6.170   4.733   1.273 -2.0916 -1.2139 -0.3047
18752TIP3    H277672   6.101   4.838   1.189 -1.6207 -1.1261 -0.5876
18753TIP3   OH277673   5.726   5.767  13.429  0.3545 -0.1941  0.1768
18753TIP3    H177674   5.683   5.683  13.413  1.1795 -1.2638  3.0321
18753TIP3    H277675   5.655   5.830  13.430 -0.7875 -1.4224  1.4921
18754TIP3   OH277676   2.983   0.604  16.909 -0.4584  0.3593  0.4107
18754TIP3    H177677   2.977   0.566  16.821 -0.8452  0.1124  0.5368
18754TIP3    H277678   2.895   0.639  16.926 -0.0052  1.6541  0.1504
18755TIP3   OH277679   3.053   2.968   0.586 -0.1243  0.0863  0.3939
18755TIP3    H177680   3.130   3.017   0.559 -0.6619  0.1224 -1.1667
18755TIP3    H277681   2.992   3.035   0.619  0.2119  0.1391  0.9156
18756TIP3   OH277682   5.645   3.451   6.139  0.0931 -0.4015  0.0687
18756TIP3    H177683   5.711   3.519   6.155  1.0937 -1.0717 -1.0283
18756TIP3    H277684   5.598   3.481   6.061  0.8866 -1.1845 -0.7355
18757TIP3   OH277685   2.979   2.322  11.252 -0.4100  0.1072  0.1906
18757TIP3    H177686   2.928   2.323  11.170 -0.8446  0.0468  0.4539
18757TIP3    H277687   3.017   2.234  11.255 -0.2886  0.1522 -0.0087
18758TIP3   OH277688   1.635   6.171   3.343 -0.4323 -0.3112  0.0107
18758TIP3    H177689   1.656   6.252   3.297 -1.3034 -0.2471 -0.2875
18758TIP3    H277690   1.568   6.196   3.408  1.8792 -0.0588  2.4931
18759TIP3   OH277691   2.151   5.108   2.406  0.3239  0.3623  0.2389
18759TIP3    H177692   2.088   5.044   2.372  0.6089 -0.1949  0.7413
18759TIP3    H277693   2.128   5.190   2.363 -2.6005  0.8772  2.4582
18760TIP3   OH277694   0.156   5.600   4.244  0.5368  0.2491  0.1353
18760TIP3    H177695   0.080   5.645   4.280  1.4842  1.5487  0.5958
18760TIP3    H277696   0.120   5.530   4.190 -1.0618  2.2970 -1.6023
18761TIP3   OH277697   1.204   5.714  12.779  0.7355 -0.2857  0.0468
18761TIP3    H177698   1.201   5.667  12.696  2.0034  0.7221 -0.6080
18761TIP3    H277699   1.131   5.678  12.830 -0.0812 -0.8995 -1.4998
18762TIP3   OH277700   1.934   2.293   0.701 -0.0253 -0.4892 -1.0053
18762TIP3    H177701   1.946   2.270   0.609  0.0227  0.2858 -1.2000
18762TIP3    H277702   2.023   2.298   0.736  0.2398  2.6945 -1.8114
18763TIP3   OH277703   6.736   6.293   2.011  0.6988  0.5865  0.4703
18763TIP3    H177704   6.792   6.287   2.088  1.7721  2.2474 -0.1086
18763TIP3    H277705   6.663   6.349   2.039 -1.1644 -2.1187  1.4271
18764TIP3   OH277706   1.011   5.717  12.188  0.2993  0.3506 -0.1702
18764TIP3    H177707   1.030   5.627  12.164 -2.3911 -0.2454 -0.3729
18764TIP3    H277708   1.092   5.765  12.168  1.2351 -1.6994 -1.6768
18765TIP3   OH277709   4.745   1.234  15.129 -0.0802  0.1015 -0.0980
18765TIP3    H177710   4.664   1.186  15.112 -0.0218  0.0483 -0.2314
18765TIP3    H277711   4.802   1.210  15.056  0.6845 -1.2227  0.8902
18766TIP3   OH277712   2.742   2.023  10.824  0.1313  0.7022  0.0503
18766TIP3    H177713   2.778   1.995  10.740 -0.1647  0.7488 -0.0909
18766TIP3    H277714   2.769   2.114  10.832  1.0426  0.4128  0.4829
18767TIP3   OH277715   2.913   0.927   4.824 -0.2057 -0.3525 -0.4390
18767TIP3    H177716   2.945   0.838   4.811  0.5469 -0.4216  1.6716
18767TIP3    H277717   2.839   0.918   4.883 -0.6173  0.3756 -0.8222
18768TIP3   OH277718   2.875   2.023  12.074  0.4173  0.2813  0.0191
18768TIP3    H177719   2.917   2.001  11.990 -2.4352 -1.5298 -1.0631
18768TIP3    H277720   2.877   2.119  12.077  0.8289  0.3856 -1.9833
18769TIP3   OH277721   5.392   1.281  10.620 -0.3739  0.0787  0.4441
18769TIP3    H177722   5.412   1.212  10.556 -1.1143 -1.7445  2.0748
18769TIP3    H277723   5.475   1.325  10.634 -0.1084  0.2742 -1.4489
18770TIP3   OH277724   3.065   3.120   5.620 -0.5192 -0.6315 -0.0660
18770TIP3    H177725   3.130   3.053   5.642  2.2250  1.1175 -2.2208
18770TIP3    H277726   3.045   3.105   5.528 -1.5888  0.1802  0.0083
18771TIP3   OH277727   0.592   0.413  13.373  0.0194  0.0345 -0.1594
18771TIP3    H177728   0.509   0.405  13.327  0.0619  0.2571 -0.2762
18771TIP3    H277729   0.655   0.365  13.319  0.0367  0.1596 -0.2497
18772TIP3   OH277730   6.036   3.781   5.308 -0.1821 -0.1517 -0.3909
18772TIP3    H177731   5.946   3.761   5.337 -0.2069  1.4051  0.6857
18772TIP3    H277732   6.091   3.755   5.382  0.0658  0.7304 -0.2567
18773TIP3   OH277733   4.710   0.940  13.673 -0.6099 -0.3963 -0.1514
18773TIP3    H177734   4.677   0.893  13.749 -0.5232  0.2001  0.2558
18773TIP3    H277735   4.710   1.032  13.699  2.7291 -0.4483  0.3900
18774TIP3   OH277736   1.571   0.869   1.456 -0.3963 -0.3287  0.4293
18774TIP3    H177737   1.599   0.921   1.532  1.3843  0.1284 -0.4750
18774TIP3    H277738   1.541   0.935   1.392  1.1793 -0.4040 -0.4467
18775TIP3   OH277739   6.778   1.901   6.463 -0.6886  0.0269  0.2801
18775TIP3    H177740   6.722   1.973   6.436 -0.8574 -0.2690 -0.1657
18775TIP3    H277741   6.727   1.854   6.529 -0.4460  0.4970  0.8230
18776TIP3   OH277742   4.111   4.400   5.561  0.3231  0.3309 -0.8821
18776TIP3    H177743   4.066   4.347   5.495  0.2010 -0.7268  0.0183
18776TIP3    H277744   4.198   4.416   5.524 -0.3462  1.3661 -2.1032
18777TIP3   OH277745   3.972   4.540   4.563  0.6922 -0.0450  0.2160
18777TIP3    H177746   4.021   4.570   4.640  2.0561  0.1908 -0.7162
18777TIP3    H277747   4.022   4.573   4.488 -1.9186  1.9274 -0.8419
18778TIP3   OH277748   6.559   6.768   2.648  0.4835 -0.5894  0.0113
18778TIP3    H177749   6.558   6.700   2.580  0.2161 -0.9257  0.3447
18778TIP3    H277750   6.640   6.816   2.633 -0.0520 -0.0306 -1.1556
18779TIP3   OH277751   0.480   3.001  16.435 -0.5396  0.1458 -0.7215
18779TIP3    H177752   0.458   3.086  16.475 -1.3437  0.1775 -1.2207
18779TIP3    H277753   0.455   3.010  16.344  0.4213 -0.2587 -1.0344
18780TIP3   OH277754   2.215   2.792   1.352  0.5736  0.0425 -0.3492
18780TIP3    H177755   2.151   2.819   1.286  1.2879 -0.2337 -1.1662
18780TIP3    H277756   2.270   2.728   1.308  0.7979 -0.4761  0.6521
18781TIP3   OH277757   1.443   6.004  14.720 -0.6975  0.2624  0.1486
18781TIP3    H177758   1.423   5.912  14.703 -1.0790  0.3645  0.0350
18781TIP3    H277759   1.537   6.005  14.741 -0.8194 -0.2298  0.7315
18782TIP3   OH277760   0.517   6.761  16.963 -0.4715 -0.7773  0.8290
18782TIP3    H177761   0.550   6.754  16.873  1.7531 -1.2827  1.6409
18782TIP3    H277762   0.430   6.721  16.959 -1.4655  1.3384 -1.5734
18783TIP3   OH277763   5.681   0.096   1.641  0.4254  0.4025 -0.2624
18783TIP3    H177764   5.672   0.177   1.691  1.1108  0.3311 -0.0084
18783TIP3    H277765   5.596   0.052   1.651 -0.0822  1.2588 -0.7218
18784TIP3   OH277766   5.093   0.253  14.702  0.6067 -0.2881  0.0251
18784TIP3    H177767   5.030   0.324  14.698  1.4798  0.7021  2.4505
18784TIP3    H277768   5.096   0.219  14.612 -0.9393  1.7248 -0.8651
18785TIP3   OH277769   0.838   6.027  15.603  0.1526 -0.2879 -0.3730
18785TIP3    H177770   0.891   6.053  15.529 -0.0415 -1.4844 -0.9521
18785TIP3    H277771   0.875   6.075  15.677  1.2883 -0.2170 -0.9670
18786TIP3   OH277772   5.059   6.081  15.681  0.0753  0.2551  0.5812
18786TIP3    H177773   4.985   6.032  15.643  0.3127  1.4109 -1.4965
18786TIP3    H277774   5.018   6.142  15.743 -0.3376 -1.5578  2.1907
18787TIP3   OH277775   5.928   2.772  14.088  0.4495 -0.6439  0.6436
18787TIP3    H177776   5.875   2.839  14.132  0.2251 -1.4540  1.6342
18787TIP3    H277777   6.016   2.809  14.088 -0.1009  0.8927 -1.3698
18788TIP3   OH277778   6.777   1.104  14.440 -0.5492 -0.1767  0.0803
18788TIP3    H177779   6.773   1.193  14.474  1.5805 -0.3309  0.9021
18788TIP3    H277780   6.704   1.059  14.482 -1.0278  0.9015  0.4456
18789TIP3   OH277781   2.397   2.304  16.556 -0.3757 -0.3172  0.5213
18789TIP3    H177782   2.484   2.341  16.566 -0.9640  1.2600  0.0614
18789TIP3    H277783   2.352   2.326  16.638 -0.6712 -0.1646  0.3217
18790TIP3   OH277784   2.195   2.106  15.848 -0.2497  0.1748  0.3105
18790TIP3    H177785   2.269   2.114  15.787 -0.6847  1.0618 -0.1261
18790TIP3    H277786   2.236   2.098  15.934  0.3683 -0.5789 -0.0449
18791TIP3   OH277787   2.904   3.992  14.106 -0.6308 -0.0033  0.1587
18791TIP3    H177788   2.985   4.005  14.156 -0.3304 -0.5895 -0.1702
18791TIP3    H277789   2.848   4.065  14.132 -0.1096  0.2380  0.6185
18792TIP3   OH277790   5.715   2.827  12.823 -0.4041 -0.0207  0.1651
18792TIP3    H177791   5.699   2.897  12.759 -1.1013  0.4220  0.8152
18792TIP3    H277792   5.775   2.767  12.778 -1.0865  0.1452 -0.9975
18793TIP3   OH277793   2.116   1.185  10.652  0.3650  0.4881 -0.3022
18793TIP3    H177794   2.057   1.241  10.600 -0.2075  0.2371  0.0701
18793TIP3    H277795   2.069   1.102  10.659  1.4740 -0.2617 -1.3733
18794TIP3   OH277796   2.555   4.793   0.757 -0.4775 -0.8168  0.0734
18794TIP3    H177797   2.548   4.824   0.667  0.1528  1.4339  0.7428
18794TIP3    H277798   2.602   4.863   0.804 -1.4490 -1.5545  2.3063
18795TIP3   OH277799   0.028   3.333  13.718 -0.1384 -1.0817  0.1919
18795TIP3    H177800   0.088   3.405  13.696 -0.9251 -0.6427 -0.5584
18795TIP3    H277801   0.053   3.262  13.658  1.1357 -1.7388  1.4334
18796TIP3   OH277802   6.594   2.898  14.199 -0.2896  0.0858 -0.2238
18796TIP3    H177803   6.666   2.892  14.262 -0.8084 -0.6386  0.3188
18796TIP3    H277804   6.617   2.972  14.144  0.2744  0.6213  0.6978
18797TIP3   OH277805   5.340   6.472  12.702 -0.4105  0.3576  0.4481
18797TIP3    H177806   5.401   6.417  12.652 -0.5773 -0.5718  1.2225
18797TIP3    H277807   5.264   6.481  12.646 -0.8052 -1.0972  0.6942
18798TIP3   OH277808   3.912   4.153   5.108 -0.1734  0.1275  0.2397
18798TIP3    H177809   3.858   4.181   5.033  0.6303 -0.1354 -0.4585
18798TIP3    H277810   3.887   4.062   5.123  1.5160 -0.6913 -1.4574
18799TIP3   OH277811   1.616   0.471   3.102  0.3403 -0.2560  0.8288
18799TIP3    H177812   1.525   0.478   3.074  0.1992  1.9848  1.6525
18799TIP3    H277813   1.628   0.378   3.121 -1.2116 -0.9166 -1.0186
18800TIP3   OH277814   5.990   2.070   1.258  0.2250 -0.0563  0.2591
18800TIP3    H177815   5.972   2.125   1.182 -1.9074 -0.9850  0.0355
18800TIP3    H277816   6.082   2.044   1.247  0.1674  0.3745 -1.6221
18801TIP3   OH277817   6.251   1.888   5.722 -0.4724 -0.8941  0.5758
18801TIP3    H177818   6.223   1.918   5.635 -0.6235  0.8647  1.2030
18801TIP3    H277819   6.336   1.929   5.736 -1.1223  0.0917  1.8584
18802TIP3   OH277820   0.518   0.100   2.167 -0.1602  0.4160  0.4739
18802TIP3    H177821   0.553   0.183   2.134  0.5131 -0.5190 -1.2730
18802TIP3    H277822   0.430   0.093   2.129  0.5355 -0.5657 -1.0171
18803TIP3   OH277823   0.046   0.644  13.396  0.1794  0.6503  0.1628
18803TIP3    H177824   0.105   0.689  13.335 -1.1819  2.2945 -0.0323
18803TIP3    H277825   0.093   0.645  13.479  1.3235 -0.0373 -0.4482
18804TIP3   OH277826   1.253   1.832  16.525 -1.0749 -0.3372 -0.3776
18804TIP3    H177827   1.252   1.794  16.437 -1.0729 -1.2408  0.0010
18804TIP3    H277828   1.210   1.766  16.580 -0.0808 -0.2821  0.4923
18805TIP3   OH277829   6.356   0.325  15.854 -0.5762  0.5453 -0.0295
18805TIP3    H177830   6.423   0.386  15.885  0.9478  0.1748 -2.3206
18805TIP3    H277831   6.392   0.239  15.874 -1.0380  0.3648  0.0130
18806TIP3   OH277832   2.760   3.228  13.087  0.1951  0.8645  0.2798
18806TIP3    H177833   2.688   3.165  13.081  0.2292  0.8900 -0.7156
18806TIP3    H277834   2.726   3.307  13.043  0.9353  0.7606 -0.5076
18807TIP3   OH277835   2.407   1.649   2.487 -0.6835  0.0938 -0.2548
18807TIP3    H177836   2.333   1.668   2.429 -1.0715 -3.1086 -0.9776
18807TIP3    H277837   2.369   1.649   2.575 -1.1083  0.3571 -0.4334
18808TIP3   OH277838   0.457   1.071   3.512  0.1661  0.2605 -0.2334
18808TIP3    H177839   0.419   1.132   3.575  0.6775 -0.7297  1.1150
18808TIP3    H277840   0.532   1.118   3.475  0.8212  0.3329  1.1103
18809TIP3   OH277841   0.002   5.296   2.716  0.0095 -0.0955  0.0877
18809TIP3    H177842  -0.042   5.217   2.749  2.0114 -1.1466  0.3785
18809TIP3    H277843  -0.043   5.317   2.635 -0.5660 -1.5397  0.0109
18810TIP3   OH277844   0.148   3.539  13.508 -0.1158 -0.7602 -0.2718
18810TIP3    H177845   0.107   3.537  13.422  0.1270 -1.8187 -0.3742
18810TIP3    H277846   0.155   3.632  13.529 -1.7804 -0.5211 -0.6204
18811TIP3   OH277847   1.309   3.905   3.985  0.3805  0.2122  0.3202
18811TIP3    H177848   1.270   3.979   4.031  0.6944  0.8136 -0.3789
18811TIP3    H277849   1.324   3.840   4.054  1.3036  1.2905  1.1582
18812TIP3   OH277850   2.567   0.465   0.097 -0.2889  0.3753 -0.0579
18812TIP3    H177851   2.601   0.548   0.131  0.6669 -0.4103  0.9378
18812TIP3    H277852   2.473   0.482   0.085 -0.4858  1.0657  1.9401
18813TIP3   OH277853   5.341   5.878  16.242  0.0134  0.5294 -0.4658
18813TIP3    H177854   5.299   5.821  16.178 -0.9024  0.6589 -0.0018
18813TIP3    H277855   5.269   5.912  16.295  0.6204  1.4966 -0.2327
18814TIP3   OH277856   4.930   1.050  11.645 -0.2482  0.6991  0.3326
18814TIP3    H177857   4.905   0.961  11.620  0.6957  0.4644  0.1750
18814TIP3    H277858   5.012   1.066  11.598  0.0325  1.3286  1.0150
18815TIP3   OH277859   0.638   2.533  16.795  0.0026  0.0445 -0.4260
18815TIP3    H177860   0.678   2.620  16.798  0.0867  0.0096 -0.5315
18815TIP3    H277861   0.595   2.530  16.710  0.5982 -0.2815 -0.7212
18816TIP3   OH277862   6.694   0.138  11.471 -0.0929 -0.0013  0.4512
18816TIP3    H177863   6.783   0.157  11.501  0.4096  1.2033 -1.5854
18816TIP3    H277864   6.670   0.215  11.419 -1.4370 -1.2679 -0.8957
18817TIP3   OH277865   3.800   5.781  15.969 -0.3207  0.4192  0.3407
18817TIP3    H177866   3.831   5.871  15.967 -1.2460  0.7514 -1.3295
18817TIP3    H277867   3.808   5.751  15.879 -0.0863 -1.1673  0.8558
18818TIP3   OH277868   6.568   3.935  15.715  0.6182 -0.4492 -0.8334
18818TIP3    H177869   6.504   3.970  15.777  1.7127 -0.7392  0.5100
18818TIP3    H277870   6.551   3.983  15.633 -0.4234  0.4339 -0.1321
18819TIP3   OH277871   5.157   3.990   1.909 -0.5586  0.3040  0.9013
18819TIP3    H177872   5.091   3.953   1.850  0.0440 -0.0027  0.4082
18819TIP3    H277873   5.189   3.915   1.959  0.2779  0.2291  0.2796
18820TIP3   OH277874   6.441   1.232  13.616  0.2695  0.3209 -0.5436
18820TIP3    H177875   6.455   1.165  13.684  0.3319  0.6747 -0.2056
18820TIP3    H277876   6.518   1.288  13.622 -0.1069  0.8237 -0.3634
18821TIP3   OH277877   1.536   1.979   6.243  1.3678  0.1674  0.5600
18821TIP3    H177878   1.597   2.042   6.203  0.2988  0.8543 -0.0124
18821TIP3    H277879   1.511   1.920   6.172  1.3695 -0.1280  0.7997
18822TIP3   OH277880   5.936   1.880   5.532  0.7845  0.0037 -0.2209
18822TIP3    H177881   5.968   1.799   5.493 -0.0124  0.8422 -2.7765
18822TIP3    H277882   5.880   1.851   5.604  2.8367 -1.5847  0.8297
18823TIP3   OH277883   3.785   5.832  14.355 -0.3224 -0.3063  0.3612
18823TIP3    H177884   3.826   5.789  14.281 -1.2115 -0.6876  0.0758
18823TIP3    H277885   3.851   5.893  14.387 -0.1097  0.2659 -1.0844
18824TIP3   OH277886   3.332   5.384  17.109  0.4314  0.1904  0.2119
18824TIP3    H177887   3.375   5.302  17.131  1.9197 -0.2285 -3.5316
18824TIP3    H277888   3.385   5.451  17.152  0.5258 -0.6640  1.4779
18825TIP3   OH277889   2.570   3.364   1.082 -0.3418 -0.1976  0.1409
18825TIP3    H177890   2.638   3.429   1.060  0.1389 -0.6407  0.3007
18825TIP3    H277891   2.616   3.299   1.134 -1.1463  0.0621  1.2040
18826TIP3   OH277892   2.462   2.736   3.639 -0.0960  0.2516 -0.2455
18826TIP3    H177893   2.397   2.672   3.666 -1.4804  2.1503  1.1650
18826TIP3    H277894   2.530   2.731   3.706 -0.4315  0.5438  0.1254
18827TIP3   OH277895   3.821   0.564  14.525 -0.1337 -0.6699 -0.4968
18827TIP3    H177896   3.734   0.557  14.566 -0.9400  0.8291 -1.8604
18827TIP3    H277897   3.851   0.652  14.549 -0.5732  0.2053 -2.9050
18828TIP3   OH277898   6.554   1.341   3.671  0.2068 -0.4046 -0.3712
18828TIP3    H177899   6.477   1.291   3.645 -0.0706  0.0351 -0.3900
18828TIP3    H277900   6.521   1.410   3.727  0.2499  1.3588 -2.4009
18829TIP3   OH277901   3.929   5.234  14.012  0.5529  0.5611  0.3378
18829TIP3    H177902   3.939   5.252  14.106 -1.9513  0.6376  0.6483
18829TIP3    H277903   3.869   5.160  14.008  0.5395  0.6289 -1.2233
18830TIP3   OH277904   2.718   3.916  11.727 -0.4651  0.0584 -0.5428
18830TIP3    H177905   2.744   3.850  11.791 -0.7124 -0.1553 -0.6623
18830TIP3    H277906   2.657   3.871  11.669  0.5715 -0.0378 -1.5832
18831TIP3   OH277907   4.639   2.757  13.029  0.3521 -0.0953 -0.3305
18831TIP3    H177908   4.553   2.717  13.041 -1.2328  2.1457 -2.8565
18831TIP3    H277909   4.659   2.798  13.113 -1.5857  0.1944  0.0339
18832TIP3   OH277910   6.488   2.389   4.278 -0.0198 -0.1454  0.1715
18832TIP3    H177911   6.487   2.385   4.374  0.2179 -2.7540  0.1270
18832TIP3    H277912   6.565   2.338   4.253 -1.7038 -2.0589 -1.4283
18833TIP3   OH277913   5.580   0.369  11.901  0.5689  0.1680 -0.3763
18833TIP3    H177914   5.614   0.427  11.831  0.4886 -0.6844 -1.1397
18833TIP3    H277915   5.496   0.408  11.925  0.4303  0.2728 -1.0088
18834TIP3   OH277916   5.650   1.095   5.764 -0.3934  0.2015 -0.3655
18834TIP3    H177917   5.686   1.182   5.745 -0.7919  0.1673 -1.3414
18834TIP3    H277918   5.608   1.069   5.683  0.9508 -1.5350 -0.5429
18835TIP3   OH277919   0.587   3.651  17.085 -0.1383 -0.0620  0.1046
18835TIP3    H177920   0.580   3.565  17.126  1.1951 -0.9951 -1.4946
18835TIP3    H277921   0.501   3.665  17.044 -0.4050 -0.5722  0.4853
18836TIP3   OH277922   5.222   5.943  15.852  0.2263  0.4491  0.6204
18836TIP3    H177923   5.302   5.914  15.807 -0.0757  1.0267 -0.3187
18836TIP3    H277924   5.164   5.973  15.782 -0.6014  0.5671  1.3363
18837TIP3   OH277925   0.715   3.606  14.480  0.0569 -0.5458 -0.2828
18837TIP3    H177926   0.683   3.683  14.434 -1.4252 -1.2308 -0.4845
18837TIP3    H277927   0.807   3.599  14.456  0.3431  1.3712  0.0792
18838TIP3   OH277928   2.071   3.308   3.959 -0.1305 -0.1529 -0.2088
18838TIP3    H177929   2.100   3.293   3.869 -1.4185 -2.0851 -0.3535
18838TIP3    H277930   2.121   3.245   4.012  1.6433  1.8803  0.7154
18839TIP3   OH277931   3.795   3.478   2.897 -0.7249 -0.1846  0.3749
18839TIP3    H177932   3.875   3.500   2.945 -1.9509  0.0164  2.4421
18839TIP3    H277933   3.733   3.547   2.921 -1.9443 -1.0728 -0.0941
18840TIP3   OH277934   4.767   6.472   4.683  0.0019  0.1087 -0.1955
18840TIP3    H177935   4.682   6.446   4.648  0.4712 -1.4902 -0.2545
18840TIP3    H277936   4.797   6.542   4.624 -1.4866  1.0926  0.1649
18841TIP3   OH277937   1.717   1.672   6.212 -0.0537 -0.1028  0.4667
18841TIP3    H177938   1.625   1.664   6.238 -0.4051 -0.8783 -0.9105
18841TIP3    H277939   1.743   1.583   6.188  0.8236  0.2400  0.1080
18842TIP3   OH277940   2.917   3.312   3.559 -0.1548  0.5231  0.6479
18842TIP3    H177941   2.940   3.234   3.610 -1.6490 -0.9357 -0.7632
18842TIP3    H277942   2.878   3.372   3.623  0.7403  0.0134  1.7142
18843TIP3   OH277943   0.720   3.101  14.823  0.0973 -0.5623  0.1302
18843TIP3    H177944   0.797   3.151  14.849  1.1997 -1.4299 -1.2628
18843TIP3    H277945   0.747   3.009  14.832 -1.0984 -0.8950  0.4952
18844TIP3   OH277946   0.041   6.259  14.379 -0.3633  0.4514 -0.3364
18844TIP3    H177947   0.086   6.177  14.359 -0.5165  0.5663 -1.2021
18844TIP3    H277948  -0.010   6.240  14.458 -0.6942 -0.3937 -0.7447
18845TIP3   OH277949   1.969   4.308   5.211 -0.2810  0.3124 -0.2106
18845TIP3    H177950   1.890   4.363   5.207  0.2970  1.0855 -1.5041
18845TIP3    H277951   2.038   4.363   5.173  1.4221  0.5040  2.8454
18846TIP3   OH277952   6.350   5.202  11.260  0.0176  0.0530  0.1342
18846TIP3    H177953   6.356   5.186  11.166  0.2750 -1.6874  0.4275
18846TIP3    H277954   6.276   5.149  11.289 -0.1662  0.7018  0.9127
18847TIP3   OH277955   3.777   2.458  11.657  0.1170  0.0986 -0.1424
18847TIP3    H177956   3.717   2.532  11.643 -0.1176  0.0836  0.6907
18847TIP3    H277957   3.839   2.463  11.585 -1.4930 -0.4884 -1.6279
18848TIP3   OH277958   5.207   5.889  12.647  0.5080  1.2614 -0.1076
18848TIP3    H177959   5.188   5.935  12.566 -0.7732  2.0466  0.6035
18848TIP3    H277960   5.156   5.808  12.643  1.1144  0.8884 -0.4428
18849TIP3   OH277961   2.137   1.412   0.375  0.0205 -0.5041 -0.1920
18849TIP3    H177962   2.099   1.406   0.463  2.1316  2.1502  1.0636
18849TIP3    H277963   2.215   1.357   0.379  0.3132 -0.0991 -0.2839
18850TIP3   OH277964   4.791   3.138  12.657 -0.2030  0.5512  0.1491
18850TIP3    H177965   4.886   3.143  12.662 -0.1621  0.8107 -0.7468
18850TIP3    H277966   4.769   3.053  12.694  0.3203  0.7719  0.9838
18851TIP3   OH277967   3.260   6.510  16.558 -0.0514 -0.1123 -0.5434
18851TIP3    H177968   3.353   6.524  16.573 -0.2392  1.7107 -0.8425
18851TIP3    H277969   3.217   6.563  16.625 -0.9610 -3.3889  1.6999
18852TIP3   OH277970   5.069   3.748  16.696  0.5159  0.0692  0.2013
18852TIP3    H177971   5.034   3.809  16.631  0.6054 -0.2104 -0.1160
18852TIP3    H277972   5.015   3.761  16.774 -0.3112 -0.3665 -0.2896
18853TIP3   OH277973   6.312   1.591  13.031 -0.4711  0.3371  0.0404
18853TIP3    H177974   6.330   1.502  13.060  2.7319  0.9312  0.2677
18853TIP3    H277975   6.345   1.647  13.101 -1.1249  1.7307 -0.7084
18854TIP3   OH277976   5.624   5.154  16.365  0.0062  0.1094 -0.0836
18854TIP3    H177977   5.556   5.221  16.375 -1.1938 -1.0420 -0.2293
18854TIP3    H277978   5.700   5.201  16.332 -0.8116  1.3923 -0.1950
18855TIP3   OH277979   4.879   3.525   0.088 -0.2825 -0.0081 -0.2125
18855TIP3    H177980   4.853   3.437   0.115  1.2212 -0.2363  0.6335
18855TIP3    H277981   4.891   3.573   0.170 -1.8186  1.2515 -0.6695
18856TIP3   OH277982   3.410   1.684  17.197 -0.2750  0.5660  0.3554
18856TIP3    H177983   3.385   1.697  17.288  0.6877  3.1504  0.3452
18856TIP3    H277984   3.375   1.761  17.151  0.5659  0.0904 -1.1525
18857TIP3   OH277985   1.891   1.575   4.502  0.4918 -0.6775 -0.1755
18857TIP3    H177986   1.859   1.615   4.421 -1.2387 -0.2877  0.6459
18857TIP3    H277987   1.986   1.579   4.495  0.3911  1.3038 -1.2344
18858TIP3   OH277988   5.271   1.084  14.870  0.2044  0.4766  0.0714
18858TIP3    H177989   5.271   1.040  14.955  1.3242  0.1477 -0.0847
18858TIP3    H277990   5.263   1.013  14.807 -1.3679  0.7724 -0.1043
18859TIP3   OH277991   0.988   4.814  15.127  0.2921  0.1670  0.5860
18859TIP3    H177992   0.960   4.904  15.145  0.1450  0.3792 -0.6084
18859TIP3    H277993   1.046   4.822  15.052 -1.5239 -0.9537 -1.0220
18860TIP3   OH277994   1.334   3.265  14.788 -0.1376  0.3842 -0.0487
18860TIP3    H177995   1.355   3.274  14.881  0.0306  0.4479 -0.0940
18860TIP3    H277996   1.321   3.355  14.758 -0.5754  0.3427  0.0024
18861TIP3   OH277997   3.172   3.889   0.889 -0.6169 -0.2709  0.0969
18861TIP3    H177998   3.084   3.920   0.867 -0.9304 -1.1546  0.0748
18861TIP3    H277999   3.227   3.967   0.882 -1.1603  0.0099 -1.2270
18862TIP3   OH278000   3.671   2.718   6.295 -0.0525  0.3962  0.3079
18862TIP3    H178001   3.660   2.709   6.389 -0.5926  0.8041  0.2866
18862TIP3    H278002   3.766   2.724   6.282  0.0067  0.7458  0.8656
18863TIP3   OH278003   4.410   0.466  17.262 -0.5534  0.2220 -0.5503
18863TIP3    H178004   4.501   0.449  17.285 -0.0530  0.9134 -1.8911
18863TIP3    H278005   4.378   0.524  17.331 -0.5076 -1.3042  0.8226
18864TIP3   OH278006   2.333   5.632  11.489 -0.0641 -0.3420  0.2613
18864TIP3    H178007   2.283   5.690  11.547 -1.3501 -1.3082  0.1516
18864TIP3    H278008   2.422   5.635  11.524  0.5073  3.3562 -0.9829
18865TIP3   OH278009   3.671   2.853   5.428  0.0579  0.4313 -0.0594
18865TIP3    H178010   3.587   2.829   5.468  1.3270 -0.9967  1.9531
18865TIP3    H278011   3.700   2.930   5.479  1.1120 -0.6529  1.0687
18866TIP3   OH278012   0.570   4.841  11.318 -0.2673 -0.3102  0.0062
18866TIP3    H178013   0.549   4.841  11.224  1.0881 -0.6787 -0.3196
18866TIP3    H278014   0.543   4.927  11.349 -3.0137 -1.0090 -0.1565
18867TIP3   OH278015   5.174   0.271   4.196  0.7507 -0.1873  0.3452
18867TIP3    H178016   5.097   0.324   4.173  1.6166  0.9484 -0.0527
18867TIP3    H278017   5.243   0.302   4.137  2.4668  1.2912  2.9168
18868TIP3   OH278018   2.687   3.291  11.509  0.6133 -0.0018  1.0279
18868TIP3    H178019   2.740   3.369  11.491  1.8792 -0.6987  1.5658
18868TIP3    H278020   2.623   3.289  11.438  1.3632  0.8325  0.2910
18869TIP3   OH278021   2.848   5.846   3.898 -0.2150  0.6382  0.3343
18869TIP3    H178022   2.829   5.940   3.891  1.4545  1.0113  0.4411
18869TIP3    H278023   2.790   5.806   3.833 -2.4876  1.4761  1.7226
18870TIP3   OH278024   3.902   6.025   3.054 -0.3275  0.6815  0.5034
18870TIP3    H178025   3.898   6.118   3.072  0.0340  0.6404  0.7971
18870TIP3    H278026   3.995   6.007   3.040  0.0233 -0.1612  3.3088
18871TIP3   OH278027   0.920   3.780   1.117  0.7569 -0.5886  0.0599
18871TIP3    H178028   0.853   3.831   1.163  1.4706  1.9279 -1.4798
18871TIP3    H278029   0.890   3.777   1.026  0.8640 -2.8400  0.0343
18872TIP3   OH278030   1.895   4.246   1.422  0.0106 -0.0249  0.0733
18872TIP3    H178031   1.961   4.286   1.364  0.5932 -1.2084 -0.1164
18872TIP3    H278032   1.926   4.157   1.435 -0.3146  0.0916  1.9288
18873TIP3   OH278033   2.234   1.091   5.107  0.6909 -0.2518 -0.2013
18873TIP3    H178034   2.149   1.103   5.149  0.6917 -1.3783  0.1428
18873TIP3    H278035   2.273   1.017   5.152  2.7202  1.4438  0.9968
18874TIP3   OH278036   0.122   5.580   1.630 -0.4640  0.9317 -0.1293
18874TIP3    H178037   0.123   5.516   1.701 -0.5039 -1.0225 -1.7960
18874TIP3    H278038   0.212   5.614   1.627 -0.3678  0.7645  0.5846
18875TIP3   OH278039   0.330   0.471   0.415  0.8689 -0.0615 -0.0642
18875TIP3    H178040   0.321   0.418   0.335  0.3434 -0.1628  0.0591
18875TIP3    H278041   0.300   0.413   0.485  0.4907  0.3257  0.0975
18876TIP3   OH278042   6.299   5.408  12.059  0.4818  0.3166  0.1239
18876TIP3    H178043   6.290   5.448  12.146 -1.4905 -0.8607  0.5088
18876TIP3    H278044   6.387   5.370  12.059  0.3151 -0.1368  1.8306
18877TIP3   OH278045   6.516   6.023  11.416 -0.2169 -0.3624  0.4801
18877TIP3    H178046   6.592   6.012  11.472  1.0953 -1.1580 -1.3643
18877TIP3    H278047   6.445   6.048  11.476  1.6693  1.3728  2.1365
18878TIP3   OH278048   5.047   4.886  11.255  0.1683  0.1297  0.3030
18878TIP3    H178049   5.059   4.792  11.272 -1.5649  0.3367  3.3011
18878TIP3    H278050   4.982   4.889  11.185  0.5482 -0.8796 -0.1206
18879TIP3   OH278051   3.518   3.353   1.581  0.4064 -0.2047 -0.2372
18879TIP3    H178052   3.516   3.390   1.670  0.6049 -1.0068  0.1039
18879TIP3    H278053   3.428   3.361   1.550  0.8199  2.5655 -1.0208
18880TIP3   OH278054   5.406   1.810   4.557  0.3238  0.4252 -0.0128
18880TIP3    H178055   5.329   1.858   4.525 -0.5672 -0.3614  0.8729
18880TIP3    H278056   5.440   1.765   4.480 -0.6149  0.1125 -0.2564
18881TIP3   OH278057   1.776   0.875   2.229  0.1098  0.4752  0.2208
18881TIP3    H178058   1.848   0.900   2.286  1.6411  0.9949 -1.8196
18881TIP3    H278059   1.805   0.899   2.141 -0.9908 -2.6755 -1.1475
18882TIP3   OH278060   2.502   0.029   1.152 -0.2074 -0.4804 -0.2388
18882TIP3    H178061   2.511   0.122   1.173  0.2539 -0.6043  0.1228
18882TIP3    H278062   2.439  -0.004   1.216 -0.7713 -0.3052 -0.7024
18883TIP3   OH278063   1.245   6.185  11.645  0.2993 -0.0558  0.0015
18883TIP3    H178064   1.257   6.094  11.617 -0.5483  0.6900 -3.1772
18883TIP3    H278065   1.331   6.225  11.634  0.3262 -0.1130  0.0006
18884TIP3   OH278066   5.748   2.280  11.645 -0.7467 -0.1198  0.0560
18884TIP3    H178067   5.723   2.197  11.686  3.9986 -1.4033  0.9780
18884TIP3    H278068   5.791   2.329  11.715  2.1651  0.2681 -1.8423
18885TIP3   OH278069   5.763   1.307   2.366 -0.6155  0.0079  0.1456
18885TIP3    H178070   5.765   1.228   2.420  0.2590 -0.5240 -0.6323
18885TIP3    H278071   5.735   1.376   2.425  0.9998 -0.4139  1.4758
18886TIP3   OH278072   5.073   1.952   6.533  0.3890 -0.4157 -0.0681
18886TIP3    H178073   5.005   1.949   6.600  0.7091 -0.1405  0.2793
18886TIP3    H278074   5.111   1.864   6.533 -1.3481 -1.2331 -1.7514
18887TIP3   OH278075   2.075   1.895  14.311  0.2081 -0.3624  0.0786
18887TIP3    H178076   2.027   1.976  14.329  0.1827 -0.2007 -0.6584
18887TIP3    H278077   2.167   1.916  14.330 -0.0362 -0.8123  1.9478
18888TIP3   OH278078   0.227   6.490   6.307 -0.2976 -0.5848 -0.0916
18888TIP3    H178079   0.133   6.505   6.301 -0.0045  1.4206 -0.1345
18888TIP3    H278080   0.258   6.551   6.374  1.0034 -1.1855 -0.0974
18889TIP3   OH278081   6.019   0.703  16.150 -0.3675  0.7226  0.1043
18889TIP3    H178082   6.109   0.670  16.151 -1.6673 -3.3710 -0.6623
18889TIP3    H278083   6.007   0.740  16.237  2.1537  1.8594  0.0673
18890TIP3   OH278084   0.475   6.421  12.418  0.0411  0.2840  0.1682
18890TIP3    H178085   0.394   6.371  12.425  0.9085 -0.9820  1.8545
18890TIP3    H278086   0.454   6.506  12.457 -0.5830  0.1093  0.2176
18891TIP3   OH278087   5.466   1.681   4.320  0.4378  0.1198 -0.1281
18891TIP3    H178088   5.450   1.603   4.267  3.3388 -0.0713 -0.9042
18891TIP3    H278089   5.449   1.755   4.262 -1.7379  0.1219  0.4322
18892TIP3   OH278090   1.625   0.223   2.135 -0.1374  0.1120  0.1642
18892TIP3    H178091   1.638   0.130   2.115  0.6813  0.1043  0.6863
18892TIP3    H278092   1.621   0.266   2.050 -2.0890 -0.5812 -0.1438
18893TIP3   OH278093   2.383   1.214  10.655  0.7513  0.2244  0.0435
18893TIP3    H178094   2.288   1.217  10.651  0.7970  1.9090 -0.3244
18893TIP3    H278095   2.404   1.120  10.660 -0.8691 -0.2484 -1.2611
18894TIP3   OH278096   0.677   0.016   6.074  0.4947 -0.2238  0.0519
18894TIP3    H178097   0.621   0.055   6.141  0.3695  0.6402 -0.5339
18894TIP3    H278098   0.644  -0.073   6.064 -0.9949  0.3684 -0.5137
18895TIP3   OH278099   5.581   5.250  14.557  0.2709  0.5582 -0.2266
18895TIP3    H178100   5.635   5.175  14.583 -0.4015  0.9181  2.5085
18895TIP3    H278101   5.497   5.211  14.532  0.1268  0.3492  0.5732
18896TIP3   OH278102   2.368   4.581  16.216  0.9359 -0.4746 -0.0799
18896TIP3    H178103   2.388   4.584  16.122 -0.0169  2.6611 -0.3063
18896TIP3    H278104   2.275   4.561  16.220  1.2009 -1.7171  0.3016
18897TIP3   OH278105   3.734   2.957  16.430 -0.0042 -0.2204 -0.2843
18897TIP3    H178106   3.676   2.941  16.504  0.3466 -1.0417 -0.1781
18897TIP3    H278107   3.791   2.881  16.427  1.4246  0.7919 -0.0732
18898TIP3   OH278108   5.820   4.697   2.125  0.1008 -0.0492 -0.2915
18898TIP3    H178109   5.879   4.632   2.161  1.3790  0.0991 -1.9731
18898TIP3    H278110   5.865   4.729   2.046 -2.6891 -0.7547 -2.3387
18899TIP3   OH278111   1.862   1.924   4.708  0.0131  1.0724  0.0736
18899TIP3    H178112   1.925   1.989   4.740  0.5993  1.8948 -2.5195
18899TIP3    H278113   1.914   1.845   4.696 -0.1591  0.8325  0.8065
18900TIP3   OH278114   0.703   3.419   4.391 -0.5402  0.3557 -0.2358
18900TIP3    H178115   0.720   3.326   4.376  1.0879  0.8821 -2.0447
18900TIP3    H278116   0.766   3.445   4.458 -0.6634  0.2730 -0.0867
18901TIP3   OH278117   4.628   6.220  11.361  0.5534  0.5975 -0.3223
18901TIP3    H178118   4.682   6.262  11.427  0.9892 -0.0296 -0.2650
18901TIP3    H278119   4.638   6.126  11.378 -0.9270  0.4783 -0.0264
18902TIP3   OH278120   3.832   3.782   5.956 -0.3456 -0.6688  0.3509
18902TIP3    H178121   3.758   3.824   5.911 -0.9361 -1.8690  0.1481
18902TIP3    H278122   3.875   3.853   6.003 -1.3554  0.1439  0.0912
18903TIP3   OH278123   0.616   1.233  17.048 -0.2300  0.4306 -0.1805
18903TIP3    H178124   0.615   1.194  17.136  1.1831  0.1340 -0.2655
18903TIP3    H278125   0.628   1.327  17.064 -2.4093  0.7242 -0.0133
18904TIP3   OH278126   3.604   1.451   5.437  0.2351  0.3525 -0.0484
18904TIP3    H178127   3.660   1.459   5.359  0.1914  2.6858  0.0982
18904TIP3    H278128   3.518   1.480   5.408 -0.0172  0.2985  0.6334
18905TIP3   OH278129   5.618   2.489  15.101  0.4881 -0.4020 -0.1689
18905TIP3    H178130   5.676   2.414  15.087  0.5877 -0.1242 -1.2675
18905TIP3    H278131   5.532   2.458  15.074  0.1906 -0.6393  0.9599
18906TIP3   OH278132   1.595   4.282  11.349 -0.4851 -0.2509 -0.2332
18906TIP3    H178133   1.632   4.194  11.354  0.9323  0.3704  1.0027
18906TIP3    H278134   1.630   4.317  11.266 -0.0599 -0.4418 -0.1396
18907TIP3   OH278135   1.319   1.441   1.645 -0.2399 -0.8287 -0.1424
18907TIP3    H178136   1.289   1.383   1.576  0.8342 -0.6127 -0.8159
18907TIP3    H278137   1.334   1.525   1.601  0.1642 -0.6064  0.4117
18908TIP3   OH278138   5.254   6.273  16.253  0.3055  0.2948  0.5250
18908TIP3    H178139   5.214   6.282  16.167  0.3655  1.2121  0.5879
18908TIP3    H278140   5.205   6.202  16.295 -1.1124  1.2345  0.5259
18909TIP3   OH278141   2.693   0.356  11.879  0.1405  0.6992 -0.0554
18909TIP3    H178142   2.788   0.364  11.887  0.3085 -0.0896 -1.0417
18909TIP3    H278143   2.679   0.332  11.787 -1.0544  1.3975 -0.0626
18910TIP3   OH278144   3.393   4.538   4.858 -0.2197 -0.3462 -0.1756
18910TIP3    H178145   3.326   4.578   4.802 -1.2169 -2.5315 -0.6522
18910TIP3    H278146   3.346   4.513   4.938  0.7724  0.9748  0.8627
18911TIP3   OH278147   2.090   4.290   4.382 -0.5583 -0.5800  0.6970
18911TIP3    H178148   2.160   4.267   4.444  1.8486  1.5848 -0.9932
18911TIP3    H278149   2.118   4.374   4.346 -4.7080  1.0180  0.7431
18912TIP3   OH278150   0.820   5.703  11.550 -0.5226  0.1363 -0.2805
18912TIP3    H178151   0.900   5.755  11.551 -0.4118 -0.0273 -0.6409
18912TIP3    H278152   0.751   5.764  11.522 -0.5692  0.3357  0.2539
18913TIP3   OH278153   0.567   2.985  11.709 -0.1451 -0.8450  0.1701
18913TIP3    H178154   0.553   2.958  11.619  0.1891 -1.5688  0.3259
18913TIP3    H278155   0.563   3.081  11.707 -1.2876 -0.8909 -0.4092
18914TIP3   OH278156   2.218   0.034   3.742 -0.6197 -0.4194 -0.3168
18914TIP3    H178157   2.235  -0.061   3.743 -1.2044 -0.5362 -1.0036
18914TIP3    H278158   2.297   0.072   3.780 -0.4653 -1.1977  0.1745
18915TIP3   OH278159   1.706   1.366   2.971 -0.1728  0.0970 -0.7316
18915TIP3    H178160   1.634   1.303   2.968 -0.4505  0.0800  2.6123
18915TIP3    H278161   1.783   1.314   2.991 -0.1309  0.6286  0.5506
18916TIP3   OH278162   1.221   2.088   3.692  0.3190 -0.4776  0.0935
18916TIP3    H178163   1.314   2.103   3.708  0.0657 -0.4491  1.7112
18916TIP3    H278164   1.203   2.004   3.735 -1.0317  0.9686  2.5185
18917TIP3   OH278165   3.526   5.671  13.082  0.5389 -0.0517 -0.6041
18917TIP3    H178166   3.605   5.701  13.127 -1.1497  1.1562  1.7190
18917TIP3    H278167   3.476   5.751  13.066 -0.1478 -0.7753 -2.2555
18918TIP3   OH278168   5.538   0.524  13.942  0.3560 -0.3830  0.1290
18918TIP3    H178169   5.548   0.555  13.852  1.8536 -2.0926 -0.3554
18918TIP3    H278170   5.626   0.527  13.978 -0.1439 -0.2286  1.3705
18919TIP3   OH278171   4.336   1.444   3.043  0.2926  0.3718 -0.0093
18919TIP3    H178172   4.394   1.517   3.063 -0.1115  1.1329 -1.4346
18919TIP3    H278173   4.379   1.399   2.970 -0.0495 -0.1144  0.0810
18920TIP3   OH278174   4.144   3.811  12.902 -0.0874 -0.2017  0.3908
18920TIP3    H178175   4.223   3.833  12.951 -0.0345  1.3007 -0.2962
18920TIP3    H278176   4.073   3.847  12.955 -0.0601  1.0652 -0.3834
18921TIP3   OH278177   1.865   6.014   2.401  0.1379  0.8881  0.0125
18921TIP3    H178178   1.865   5.996   2.307 -2.2216  1.8794 -0.2580
18921TIP3    H278179   1.942   6.069   2.415  0.4922  0.7856 -1.3684
18922TIP3   OH278180   3.787   0.811   5.254  0.0966 -0.4359 -0.5011
18922TIP3    H178181   3.852   0.758   5.299 -1.3389 -0.9911  1.0442
18922TIP3    H278182   3.716   0.821   5.317 -1.1076  0.5684 -1.9218
18923TIP3   OH278183   2.293   0.986   1.717 -0.3447  0.2331  0.2432
18923TIP3    H178184   2.287   1.066   1.770 -1.6864 -0.8252  1.7939
18923TIP3    H278185   2.210   0.942   1.731  0.1701 -1.2164 -0.9938
18924TIP3   OH278186   0.725   0.051   3.642  0.0097 -0.5444  0.3232
18924TIP3    H178187   0.707  -0.043   3.645 -0.2658 -0.4915  0.3173
18924TIP3    H278188   0.810   0.060   3.685 -0.1470 -0.7488  0.6804
18925TIP3   OH278189   1.657   4.518   5.569 -0.1112 -0.1025  0.0615
18925TIP3    H178190   1.745   4.514   5.606 -0.4739  0.5397  1.0457
18925TIP3    H278191   1.637   4.427   5.546  0.3423 -0.4588  0.9835
18926TIP3   OH278192   5.989   1.609   5.494 -0.0394 -0.6542  0.1900
18926TIP3    H178193   5.961   1.518   5.487  1.1097 -1.0706  0.7498
18926TIP3    H278194   5.956   1.650   5.414  1.1737 -2.0458 -1.0893
18927TIP3   OH278195   4.554   4.798  11.874 -0.3469 -0.0555 -0.1158
18927TIP3    H178196   4.640   4.832  11.851  0.3396 -1.0092  0.9692
18927TIP3    H278197   4.523   4.754  11.794  0.9133 -1.1724 -0.0120
18928TIP3   OH278198   2.185   4.513   3.587 -0.0556 -0.3847  0.4468
18928TIP3    H178199   2.240   4.436   3.598  1.1769  0.2959 -0.5727
18928TIP3    H278200   2.225   4.579   3.643 -1.0258 -0.4288  1.2137
18929TIP3   OH278201   1.737   0.536  16.589  0.3227 -0.4786 -0.3813
18929TIP3    H178202   1.664   0.591  16.560 -0.0901 -0.8261  0.0049
18929TIP3    H278203   1.809   0.561  16.531  0.6068  1.5989  0.7506
18930TIP3   OH278204   4.217   1.988  15.876  0.4159  0.0449 -0.3165
18930TIP3    H178205   4.154   2.015  15.943  1.2761  1.1671  0.0755
18930TIP3    H278206   4.166   1.988  15.795 -0.5575 -1.0028  0.2717
18931TIP3   OH278207   3.868   2.834  16.674  0.0043 -0.7307  0.3177
18931TIP3    H178208   3.894   2.775  16.603  0.3760 -1.1893  0.8220
18931TIP3    H278209   3.875   2.921  16.637  1.1227 -0.9136  0.0715
18932TIP3   OH278210   1.841   3.723  13.335 -0.5141 -0.2703  0.5083
18932TIP3    H178211   1.815   3.810  13.364 -2.3266 -0.6527  0.1817
18932TIP3    H278212   1.808   3.717  13.246  0.1385 -1.0827  0.3100
18933TIP3   OH278213   0.851   5.816  13.696  0.0600 -0.8640  0.2914
18933TIP3    H178214   0.932   5.845  13.737 -0.3710  0.6945  0.1097
18933TIP3    H278215   0.789   5.808  13.769  0.4275 -2.3162  0.4653
18934TIP3   OH278216   2.232   4.597   4.472  0.3165  0.1413 -0.2466
18934TIP3    H178217   2.327   4.591   4.458  0.3600  0.7313 -0.2393
18934TIP3    H278218   2.220   4.576   4.565  0.3093 -1.0881 -0.5041
18935TIP3   OH278219   0.017   4.641   3.479 -0.2638  0.0611 -0.2605
18935TIP3    H178220  -0.062   4.692   3.458  0.0179  1.1966  1.2654
18935TIP3    H278221   0.084   4.677   3.422 -0.0294  1.5859  0.9187
18936TIP3   OH278222   4.149   2.578   4.259 -0.0798 -0.1194 -0.1532
18936TIP3    H178223   4.242   2.586   4.236 -0.0361 -2.7157 -1.2020
18936TIP3    H278224   4.105   2.569   4.175 -1.2729  0.6206  0.3661
18937TIP3   OH278225   1.579   5.624  16.102  0.0080  0.2659  0.1542
18937TIP3    H178226   1.516   5.566  16.145 -0.6938 -0.6462 -1.9871
18937TIP3    H278227   1.662   5.604  16.145 -0.3930 -1.6378  0.1559
18938TIP3   OH278228   6.564   4.555  12.258 -0.1077 -0.0865  0.2454
18938TIP3    H178229   6.520   4.504  12.189 -1.0714  1.4436 -0.3361
18938TIP3    H278230   6.534   4.645  12.243  1.5546  0.6627  1.2149
18939TIP3   OH278231   2.072   3.577  13.337  0.6392  0.2465 -0.0924
18939TIP3    H178232   1.991   3.616  13.369  0.8722  1.4954 -0.9337
18939TIP3    H278233   2.137   3.646  13.345  1.3534 -0.3527 -0.5488
18940TIP3   OH278234   4.765   3.638   0.950 -0.0172 -0.0160  0.0376
18940TIP3    H178235   4.724   3.578   0.887  0.5935  0.2485 -0.6351
18940TIP3    H278236   4.739   3.725   0.920 -0.9965  0.0741  1.0806
18941TIP3   OH278237   3.395   1.371  14.143 -0.0945  1.1975 -0.9797
18941TIP3    H178238   3.464   1.306  14.153 -0.3266  0.8620 -1.5638
18941TIP3    H278239   3.317   1.321  14.119 -0.5796  1.5602 -0.2188
18942TIP3   OH278240   1.571   0.734  12.455  0.2858  0.3066 -0.4083
18942TIP3    H178241   1.662   0.763  12.460 -0.3008  2.0472  0.8793
18942TIP3    H278242   1.556   0.689  12.538  0.2894 -1.0803 -1.1270
18943TIP3   OH278243   1.211   2.371   5.021 -0.3363 -0.7980  0.2026
18943TIP3    H178244   1.295   2.368   5.067 -0.9382 -0.1071  1.3899
18943TIP3    H278245   1.176   2.282   5.031 -0.3816 -0.7059  0.9649
18944TIP3   OH278246   0.082   1.518  14.790  0.5892  0.4841  0.3816
18944TIP3    H178247   0.060   1.608  14.814  0.6369  0.6201 -0.0771
18944TIP3    H278248   0.173   1.507  14.816  0.4687  0.4418  0.7928
18945TIP3   OH278249   1.700   6.210  16.168 -0.2842 -0.2820  0.6718
18945TIP3    H178250   1.664   6.296  16.145 -3.3435 -1.4452  0.6976
18945TIP3    H278251   1.708   6.164  16.085 -0.5518 -0.6496  0.8477
18946TIP3   OH278252   6.236   1.923  13.482  0.6232  0.0983 -0.4618
18946TIP3    H178253   6.212   1.831  13.466 -1.9888  0.3865  1.1710
18946TIP3    H278254   6.158   1.972  13.455  0.2172  1.4143  2.6609
18947TIP3   OH278255   6.363   3.169  11.862  0.5352 -0.2165  0.1146
18947TIP3    H178256   6.422   3.216  11.803  2.1767 -0.2571  1.6542
18947TIP3    H278257   6.292   3.231  11.878  1.0972  0.5534 -0.3018
18948TIP3   OH278258   5.793   0.191   6.296 -0.0176  0.1725 -0.1823
18948TIP3    H178259   5.771   0.272   6.341 -0.8478 -0.5909  0.8471
18948TIP3    H278260   5.884   0.173   6.323 -0.7183 -0.6396  1.8692
18949TIP3   OH278261   3.579   2.434   4.856  0.1616  0.7640  0.7099
18949TIP3    H178262   3.499   2.392   4.887  0.1975  0.4061  0.3289
18949TIP3    H278263   3.549   2.507   4.801  0.0083 -1.2504 -2.0911
18950TIP3   OH278264   6.609   1.225  16.429  0.2436  0.4465 -0.1732
18950TIP3    H178265   6.600   1.250  16.338  0.7158 -1.3313 -0.7543
18950TIP3    H278266   6.532   1.261  16.472  0.9753  3.0212 -0.8208
18951TIP3   OH278267   5.685   1.615  11.324 -0.3112 -0.5753  0.2214
18951TIP3    H178268   5.714   1.655  11.406  1.1142 -0.2853 -0.3928
18951TIP3    H278269   5.706   1.680  11.257 -2.8763 -0.1431 -0.2563
18952TIP3   OH278270   0.191   0.999   3.498 -0.7308  0.8091  0.2339
18952TIP3    H178271   0.176   0.925   3.557 -0.3113  1.4879  1.2244
18952TIP3    H278272   0.286   1.007   3.492 -0.6195 -1.1214 -3.0040
18953TIP3   OH278273   6.239   1.591  11.908  0.1091  0.3013 -0.8289
18953TIP3    H178274   6.167   1.530  11.925  1.4518 -1.2875 -0.5859
18953TIP3    H278275   6.201   1.677  11.923 -1.1708 -0.5832  1.5122
18954TIP3   OH278276   6.260   0.858   5.359  0.0321  0.4940  0.5207
18954TIP3    H178277   6.288   0.806   5.284  1.2729  1.9909 -0.1081
18954TIP3    H278278   6.178   0.818   5.387  0.9786 -1.8271  0.1452
18955TIP3   OH278279   1.403   6.184   3.117 -0.0500  0.5286 -0.1221
18955TIP3    H178280   1.401   6.188   3.021  0.6214  2.3972 -0.0952
18955TIP3    H278281   1.394   6.275   3.145  0.2282  0.0640  1.5790
18956TIP3   OH278282   6.605   4.718   4.231  0.0036  0.7435 -0.1472
18956TIP3    H178283   6.551   4.794   4.209 -0.4838  0.1697 -0.9513
18956TIP3    H278284   6.549   4.642   4.215  0.1261  0.2207  1.6389
18957TIP3   OH278285   1.922   0.633   5.923  0.1106 -0.2022  0.5061
18957TIP3    H178286   1.980   0.571   5.879  1.1237  1.5963 -0.8183
18957TIP3    H278287   1.847   0.641   5.865  0.4332  0.5159  0.1760
18958TIP3   OH278288   5.307   6.481  11.130 -0.3106  0.2492 -0.5485
18958TIP3    H178289   5.347   6.503  11.214 -2.4300  0.4671  0.4784
18958TIP3    H278290   5.323   6.557  11.075  1.8089 -0.2247 -0.6714
18959TIP3   OH278291   0.617   2.695  11.412 -0.1952  0.4219  0.3147
18959TIP3    H178292   0.652   2.783  11.402  1.9494 -0.5372 -1.6384
18959TIP3    H278293   0.528   2.708  11.445 -0.1347  3.3276 -0.3858
18960TIP3   OH278294   5.221   4.492  14.324  0.0999  0.4612  0.3880
18960TIP3    H178295   5.206   4.514  14.232 -2.5079 -0.0506  0.6150
18960TIP3    H278296   5.135   4.470  14.358  1.1427 -0.3716  2.7258
18961TIP3   OH278297   5.203   6.103   5.665  0.0800 -0.0513  0.1967
18961TIP3    H178298   5.154   6.051   5.728  0.5577 -0.8392 -0.0608
18961TIP3    H278299   5.173   6.193   5.679 -0.6373 -0.3701  0.7674
18962TIP3   OH278300   6.362   5.186  16.447 -0.2980 -0.5476  0.3094
18962TIP3    H178301   6.399   5.119  16.390 -0.6900 -1.0301  0.6086
18962TIP3    H278302   6.430   5.253  16.454 -0.9416  0.4556 -2.2349
18963TIP3   OH278303   3.839   3.516   6.262 -0.2772  0.1280  0.5115
18963TIP3    H178304   3.880   3.589   6.308 -0.5024 -0.2080  1.2544
18963TIP3    H278305   3.786   3.472   6.329  0.0237 -0.8400  0.1281
18964TIP3   OH278306   2.256   6.025   0.785 -0.1360  0.1203  0.2353
18964TIP3    H178307   2.213   5.940   0.786  2.5978 -1.4012  1.7083
18964TIP3    H278308   2.211   6.075   0.854 -0.2345 -1.0478  1.0549
18965TIP3   OH278309   2.071   4.847   4.798  0.2474 -0.5759 -0.4448
18965TIP3    H178310   2.092   4.907   4.869  1.2529 -1.8580  0.3893
18965TIP3    H278311   1.984   4.813   4.819 -1.1099  1.7689 -1.8129
18966TIP3   OH278312   2.659   4.415   6.202 -0.4094  0.4472 -0.2716
18966TIP3    H178313   2.617   4.389   6.120 -1.2892  0.9007  0.0189
18966TIP3    H278314   2.598   4.477   6.242 -0.9101 -1.1214  1.6080
18967TIP3   OH278315   6.414   2.257  11.583 -1.1134  0.8115  0.4335
18967TIP3    H178316   6.461   2.280  11.663 -2.3782 -0.2939  1.5390
18967TIP3    H278317   6.348   2.325  11.572  0.1864  1.9595 -0.7185
18968TIP3   OH278318   2.686   4.102   6.128 -0.0867 -0.0175 -0.1973
18968TIP3    H178319   2.667   4.164   6.058  1.0400  0.6362  0.0582
18968TIP3    H278320   2.611   4.110   6.188  0.0619  1.1502 -0.1401
18969TIP3   OH278321   1.260   5.825   3.877 -0.0028 -0.8686 -0.6456
18969TIP3    H178322   1.178   5.776   3.881 -0.4780 -0.0036  1.4277
18969TIP3    H278323   1.291   5.828   3.967  1.3167  0.4580 -1.0939
18970TIP3   OH278324   2.854   6.391  15.094  0.0882  0.1444 -0.3950
18970TIP3    H178325   2.854   6.418  15.186 -0.4337  0.8761 -0.5941
18970TIP3    H278326   2.802   6.311  15.093  1.1708 -0.5867  0.1241
18971TIP3   OH278327   2.403   0.692  11.584 -0.1022 -0.9628  0.0058
18971TIP3    H178328   2.459   0.718  11.511 -0.9406 -3.3576 -1.5977
18971TIP3    H278329   2.315   0.718  11.557 -0.3154 -1.1121  0.5411
18972TIP3   OH278330   3.949   5.665  15.746  0.1197 -0.1755 -0.1477
18972TIP3    H178331   3.992   5.645  15.663 -1.2095  0.0332 -0.9215
18972TIP3    H278332   3.988   5.604  15.808  1.4898 -0.0033 -0.8059
18973TIP3   OH278333   1.944   3.066   1.632  0.1550 -0.6430 -0.2572
18973TIP3    H178334   1.937   3.074   1.727  1.0395 -1.4168 -0.1096
18973TIP3    H278335   1.859   3.095   1.599 -0.8594 -2.1397  0.8802
18974TIP3   OH278336   0.299   0.444  15.510  0.3121 -0.1579 -0.2881
18974TIP3    H178337   0.349   0.390  15.572  0.9952 -1.3618 -1.8025
18974TIP3    H278338   0.245   0.381  15.463  0.9652  0.4910 -1.9621
18975TIP3   OH278339   0.565   5.893   4.233 -0.4913 -0.3121  0.1138
18975TIP3    H178340   0.488   5.863   4.185 -0.4308 -0.2420 -0.0254
18975TIP3    H278341   0.557   5.851   4.319 -1.4888  0.9201  0.6543
18976TIP3   OH278342   0.455   2.834  10.791  0.1821 -0.1892  0.1072
18976TIP3    H178343   0.395   2.764  10.813  0.2632 -1.7707 -3.7962
18976TIP3    H278344   0.420   2.871  10.710  2.4262  1.3898 -0.2488
18977TIP3   OH278345   5.315   0.280  11.180 -0.5475  0.5819 -0.9578
18977TIP3    H178346   5.373   0.275  11.256  0.2751  1.9689 -1.4487
18977TIP3    H278347   5.303   0.189  11.153  0.3245  0.1679 -0.0472
18978TIP3   OH278348   0.774   3.493  13.496  0.1705  0.0259 -0.1550
18978TIP3    H178349   0.762   3.461  13.406 -2.6943  0.5120 -0.0180
18978TIP3    H278350   0.758   3.587  13.490  0.1797  0.0950  0.8370
18979TIP3   OH278351   5.242   3.496   1.012  0.1719  0.2908  0.3930
18979TIP3    H178352   5.191   3.521   0.935  0.4822  0.8986  0.3796
18979TIP3    H278353   5.321   3.455   0.977  0.6775  1.2616  0.3535
18980TIP3   OH278354   3.565   1.094   1.415  0.1828  0.2049  0.0404
18980TIP3    H178355   3.638   1.099   1.354 -0.8280  1.0744 -1.1389
18980TIP3    H278356   3.507   1.028   1.377  0.5278 -0.7964  1.1937
18981TIP3   OH278357   5.329   3.698  10.740  0.5572 -0.1325  0.3183
18981TIP3    H178358   5.381   3.627  10.704  1.7391  0.6225  0.4817
18981TIP3    H278359   5.375   3.777  10.714 -0.7901  0.5875  0.0515
18982TIP3   OH278360   3.962   3.495   0.372 -0.6449 -0.4024 -0.3893
18982TIP3    H178361   4.030   3.434   0.341  1.6026  2.1698 -0.9028
18982TIP3    H278362   3.950   3.556   0.299 -3.1212 -0.4050 -0.0455
18983TIP3   OH278363   1.570   4.210   6.062 -0.4542  0.3151 -0.1250
18983TIP3    H178364   1.636   4.158   6.017 -0.0273  0.9280 -0.2284
18983TIP3    H278365   1.526   4.149   6.121  1.7148  0.3021  1.6446
18984TIP3   OH278366   1.393   4.917  15.791  0.2449 -0.1902  0.1114
18984TIP3    H178367   1.419   4.831  15.824  1.8210  0.5819  0.9830
18984TIP3    H278368   1.337   4.953  15.860 -0.2446 -0.4188 -0.1604
18985TIP3   OH278369   2.056   2.097   3.734 -0.1159  0.0245  0.2703
18985TIP3    H178370   2.051   2.005   3.708 -0.4542  0.3186 -0.7366
18985TIP3    H278371   2.008   2.145   3.666  0.0669  0.9530  0.7679
18986TIP3   OH278372   1.635   2.441  16.266  0.0780  0.5658  0.3422
18986TIP3    H178373   1.573   2.421  16.336 -0.3574 -1.6980 -0.5831
18986TIP3    H278374   1.720   2.440  16.309 -0.3341  1.5759  1.2376
18987TIP3   OH278375   3.500   3.787  12.262 -0.6724 -0.1768  0.6736
18987TIP3    H178376   3.563   3.715  12.262 -1.1191 -0.5865  2.1698
18987TIP3    H278377   3.524   3.839  12.185  0.0882 -1.5308 -0.0454
18988TIP3   OH278378   2.892   3.932  12.355 -0.4585 -0.2099  0.1947
18988TIP3    H178379   2.934   3.849  12.376 -0.7206 -0.8772 -1.7306
18988TIP3    H278380   2.799   3.912  12.350 -0.5024  0.1444 -0.5164
18989TIP3   OH278381   2.639   1.259   5.847 -0.0156 -0.4312  0.2087
18989TIP3    H178382   2.726   1.242   5.882 -0.8163 -2.4385  1.3819
18989TIP3    H278383   2.629   1.354   5.852  1.8794 -0.2148  0.5413
18990TIP3   OH278384   0.831   4.279  13.064 -0.7016 -0.8053 -0.5643
18990TIP3    H178385   0.881   4.224  13.123  0.6084 -0.9457 -1.7489
18990TIP3    H278386   0.875   4.270  12.979 -0.8095  1.5955 -0.9394
18991TIP3   OH278387   0.402   4.267  17.054 -0.7846  0.5457 -0.2423
18991TIP3    H178388   0.371   4.203  16.991 -0.5571  0.8662 -0.6850
18991TIP3    H278389   0.430   4.342  17.001  1.9569 -0.1932 -0.0041
18992TIP3   OH278390   3.738   5.285  14.988 -0.3691 -0.5853 -0.1229
18992TIP3    H178391   3.645   5.298  15.002 -0.8559  0.7551 -3.6236
18992TIP3    H278392   3.743   5.205  14.934  0.3280  0.1237 -1.1509
18993TIP3   OH278393   1.824   1.166  14.162  0.4122  0.4804  0.2337
18993TIP3    H178394   1.834   1.142  14.071  0.5815  0.9175  0.1319
18993TIP3    H278395   1.820   1.083  14.209 -0.2280  0.2477 -0.2223
18994TIP3   OH278396   5.372   1.023   0.575  0.2592  0.5926  0.3839
18994TIP3    H178397   5.461   1.038   0.608  0.8101 -0.9118 -0.3519
18994TIP3    H278398   5.323   0.995   0.652  0.9786 -0.6880  0.4002
18995TIP3   OH278399   2.158   4.967   3.867  0.0076  0.2928  0.2611
18995TIP3    H178400   2.175   5.031   3.798 -0.9986 -1.1114 -1.3698
18995TIP3    H278401   2.137   5.020   3.944  2.6564  1.9432 -0.0088
18996TIP3   OH278402   2.670   4.149  11.537 -0.1109 -0.8051  0.2921
18996TIP3    H178403   2.670   4.073  11.478 -0.1729 -0.3688 -0.2709
18996TIP3    H278404   2.617   4.120  11.611 -3.2545 -0.1114 -1.5203
18997TIP3   OH278405   5.240   3.112  13.248  1.0835  0.2820  0.2890
18997TIP3    H178406   5.173   3.052  13.282 -1.2184 -1.2881 -5.8174
18997TIP3    H278407   5.202   3.199  13.261  1.0284 -0.0247  2.6589
18998TIP3   OH278408   3.212   3.434  15.985 -0.6285  0.9718 -0.2543
18998TIP3    H178409   3.173   3.388  16.060  0.6819  1.1576  0.5788
18998TIP3    H278410   3.147   3.499  15.960 -0.4399  2.0217  1.8039
18999TIP3   OH278411   4.732   2.740  14.539 -0.0213  0.3824  0.4407
18999TIP3    H178412   4.781   2.740  14.621 -2.3908  0.7056  1.9509
18999TIP3    H278413   4.706   2.831  14.527 -0.8088  0.1154  0.0477
19000TIP3   OH278414   1.468   2.750  14.702  0.0082  0.4116  0.3058
19000TIP3    H178415   1.526   2.788  14.767  2.3060 -1.3551 -0.5723
19000TIP3    H278416   1.508   2.771  14.618 -0.0475 -1.6472 -0.3021
19001TIP3   OH278417   5.776   0.384   1.960 -0.2287 -0.0243  0.0369
19001TIP3    H178418   5.830   0.459   1.933  0.1749 -0.3946 -0.1977
19001TIP3    H278419   5.705   0.423   2.011 -0.0097  0.5177 -0.0634
19002TIP3   OH278420   0.763   1.637  14.403  0.4660  0.2934 -0.4661
19002TIP3    H178421   0.684   1.603  14.361  0.3148 -1.8349  1.3423
19002TIP3    H278422   0.739   1.647  14.495  2.1711 -0.0329  0.0542
19003TIP3   OH278423   2.655   5.496   1.820 -0.2384 -0.0418  0.2923
19003TIP3    H178424   2.613   5.410   1.812 -0.0724 -0.0298 -0.8925
19003TIP3    H278425   2.748   5.476   1.827 -0.2397  0.0211  0.4766
19004TIP3   OH278426   3.648   1.219  14.107 -0.7287 -0.5399 -0.3888
19004TIP3    H178427   3.677   1.211  14.016 -1.1943  0.8617 -0.6831
19004TIP3    H278428   3.687   1.301  14.138  0.0405 -1.3591  0.9346
19005TIP3   OH278429   4.832   2.223  11.048 -0.3425  0.4196 -0.5639
19005TIP3    H178430   4.770   2.197  10.980 -0.7524  2.2740 -0.9529
19005TIP3    H278431   4.846   2.143  11.099 -0.2420 -0.9776 -2.6263
19006TIP3   OH278432   4.515   2.071  12.955 -0.3035  0.2044  0.2593
19006TIP3    H178433   4.519   1.994  13.011 -1.6617  0.9749  1.4521
19006TIP3    H278434   4.472   2.040  12.875 -0.9130 -0.2635  0.7584
19007TIP3   OH278435   5.317   2.581   3.878 -0.2933 -0.1926 -0.2584
19007TIP3    H178436   5.322   2.666   3.920  0.9047  0.2858 -1.3108
19007TIP3    H278437   5.350   2.520   3.944 -0.1013  0.3025  0.1083
19008TIP3   OH278438   0.598   1.068  15.188 -0.4124 -0.3298  0.7834
19008TIP3    H178439   0.510   1.042  15.159 -0.0399 -0.3183 -0.4310
19008TIP3    H278440   0.629   1.125  15.118  0.8180 -0.8579  0.8861
19009TIP3   OH278441   1.250   0.152   0.276 -0.2796 -0.6551  0.4510
19009TIP3    H178442   1.186   0.081   0.268  1.5891 -2.3404 -0.5324
19009TIP3    H278443   1.242   0.182   0.366 -2.7813 -0.4216  0.2180
19010TIP3   OH278444   0.987   1.264   3.374  0.3286 -0.7024  0.0890
19010TIP3    H178445   1.063   1.322   3.367  0.4457 -0.7727  0.7359
19010TIP3    H278446   0.932   1.289   3.300 -1.2002  2.5253  2.0792
19011TIP3   OH278447   2.909   1.829  13.412  0.0100  0.5345  0.2250
19011TIP3    H178448   2.998   1.845  13.444 -0.3875 -0.2922  1.8754
19011TIP3    H278449   2.918   1.817  13.318  1.8112 -0.6151  0.5054
19012TIP3   OH278450   4.781   4.774   0.865 -0.0387  0.2644  0.2935
19012TIP3    H178451   4.831   4.851   0.839 -1.5160  1.3206  0.4456
19012TIP3    H278452   4.847   4.707   0.883  1.3052  1.6183  0.5881
19013TIP3   OH278453   5.517   6.608   0.291  0.5658 -0.1710 -0.5595
19013TIP3    H178454   5.518   6.589   0.384 -0.3177  0.8424 -0.3242
19013TIP3    H278455   5.475   6.532   0.251  1.8022 -1.0477 -0.2763
19014TIP3   OH278456   0.983   4.701   4.393  0.4375  0.3538 -0.7647
19014TIP3    H178457   1.058   4.678   4.449 -0.8580 -1.8564  0.1831
19014TIP3    H278458   0.928   4.623   4.393 -0.3357  0.7439 -4.0670
19015TIP3   OH278459   1.017   2.827  14.742 -0.2887  0.3806  0.3092
19015TIP3    H178460   1.041   2.917  14.765 -1.1104  0.5875  0.3756
19015TIP3    H278461   0.990   2.832  14.650  1.1273 -0.0906 -0.1649
19016TIP3   OH278462   6.032   4.929   3.646 -0.0727 -0.4811  0.2700
19016TIP3    H178463   6.069   4.843   3.625  0.6936 -0.5848  1.9155
19016TIP3    H278464   6.087   4.963   3.717 -2.0935  0.1337  1.6266
19017TIP3   OH278465   2.855   2.476   4.032  0.0150  0.1004 -0.3142
19017TIP3    H178466   2.915   2.418   3.985 -1.0035  0.2465 -1.8686
19017TIP3    H278467   2.908   2.513   4.103  0.9059 -2.0757  0.2287
19018TIP3   OH278468   0.081   1.758  13.991  0.2508  0.1741  0.3716
19018TIP3    H178469   0.123   1.692  14.045 -1.0772  1.1451  2.7493
19018TIP3    H278470   0.117   1.842  14.022 -0.6173  0.7678 -0.1669
19019TIP3   OH278471   0.729   2.883  14.260  0.0059  0.0027  0.0545
19019TIP3    H178472   0.680   2.811  14.300  0.6577  0.5380  1.8940
19019TIP3    H278473   0.673   2.959  14.270 -0.4876 -0.1081 -1.4948
19020TIP3   OH278474   1.730   2.441  11.792  0.1709  0.1336  0.0822
19020TIP3    H178475   1.742   2.365  11.849  1.7368 -0.1169 -0.5389
19020TIP3    H278476   1.687   2.506  11.848  0.3590 -0.6112  1.1247
19021TIP3   OH278477   4.573   5.332  11.559  0.1397  0.4811  0.3518
19021TIP3    H178478   4.521   5.312  11.481 -1.3734 -0.0921  1.4543
19021TIP3    H278479   4.653   5.372  11.525 -1.0336  1.4671 -1.4396
19022TIP3   OH278480   3.024   3.570  11.792 -0.0040  0.4036  0.0732
19022TIP3    H178481   3.014   3.604  11.703  1.5336  0.6289 -0.0279
19022TIP3    H278482   3.063   3.483  11.780  0.0773  0.3756  0.5260
19023TIP3   OH278483   5.841   3.521   1.284  0.0397  0.0480  0.1652
19023TIP3    H178484   5.761   3.484   1.322  2.2503 -1.6948  3.5957
19023TIP3    H278485   5.882   3.447   1.238  0.4198  0.5586 -0.3312
19024TIP3   OH278486   6.766   4.363   0.541  0.4798  0.0103  0.1299
19024TIP3    H178487   6.817   4.377   0.462 -1.1442  2.3708 -0.6262
19024TIP3    H278488   6.675   4.369   0.512 -0.1688  0.9848  2.1499
19025TIP3   OH278489   2.408   6.467  11.683  0.4592 -0.3388 -0.8864
19025TIP3    H178490   2.446   6.554  11.693 -1.4874  0.3419  2.4431
19025TIP3    H278491   2.319   6.482  11.651  0.3077 -1.1381 -0.8810
19026TIP3   OH278492   1.059   3.157   3.940 -0.6788 -0.0863 -0.3752
19026TIP3    H178493   1.090   3.242   3.908  1.4522 -0.1697  1.2482
19026TIP3    H278494   1.098   3.093   3.880  3.9690 -0.3023  2.3674
19027TIP3   OH278495   2.919   1.701   4.680 -0.4085  0.1238  0.4472
19027TIP3    H178496   3.008   1.704   4.646 -0.5018  0.3644  0.2172
19027TIP3    H278497   2.909   1.612   4.715 -0.5290 -0.3670 -0.7870
19028TIP3   OH278498   5.916   1.022  12.048 -0.2436 -0.8179  0.5356
19028TIP3    H178499   5.865   1.084  12.100 -0.1017 -0.8511  0.7176
19028TIP3    H278500   5.893   1.041  11.957  1.8666  1.3488  0.3812
19029TIP3   OH278501   4.414   1.001   4.886  0.0346  0.2335  0.2206
19029TIP3    H178502   4.388   0.994   4.978 -0.3820 -1.5395  0.0118
19029TIP3    H278503   4.347   0.951   4.838  0.4968  0.7371 -0.9956
19030TIP3   OH278504   0.001   3.377  15.225  0.4619  0.2662  0.1096
19030TIP3    H178505  -0.065   3.427  15.273 -1.4074  1.1007 -3.0744
19030TIP3    H278506   0.056   3.442  15.183 -0.0462 -0.3090 -1.5386
19031TIP3   OH278507   2.824   0.974  14.959 -0.3132  0.5450 -0.0231
19031TIP3    H178508   2.899   0.919  14.938  0.1103  1.5329 -1.2200
19031TIP3    H278509   2.759   0.952  14.892 -0.3140  1.1586 -0.2264
19032TIP3   OH278510   1.702   2.443   1.651  0.0979  0.8051  0.0939
19032TIP3    H178511   1.615   2.482   1.641 -0.8030 -0.4285  2.4117
19032TIP3    H278512   1.685   2.353   1.678  2.1188  0.5329  0.6339
19033TIP3   OH278513   6.612   0.981   3.287 -0.3853 -0.1142  0.0312
19033TIP3    H178514   6.707   0.977   3.276 -0.3913 -0.7686  0.2090
19033TIP3    H278515   6.599   0.983   3.382 -0.5578 -0.2445  0.0110
19034TIP3   OH278516   1.408   2.345   1.669  0.4740 -0.0688  0.5876
19034TIP3    H178517   1.316   2.334   1.645  0.4085 -0.0442  0.8321
19034TIP3    H278518   1.415   2.434   1.702  0.2561 -0.5656  2.0522
19035TIP3   OH278519   5.467   5.244  12.443  0.4814 -0.2439  0.0673
19035TIP3    H178520   5.449   5.156  12.476  1.5316 -0.0063  1.3363
19035TIP3    H278521   5.561   5.245  12.425  0.2504  0.2162 -1.2252
19036TIP3   OH278522   6.610   3.792  13.516 -0.5380  0.7542 -0.3980
19036TIP3    H178523   6.608   3.707  13.471  2.3107  0.0802  0.5296
19036TIP3    H278524   6.598   3.856  13.446 -3.4389 -0.3261 -1.0387
19037TIP3   OH278525   1.977   6.725  11.498 -0.2106  0.0767 -0.1623
19037TIP3    H178526   2.006   6.679  11.419  1.0773 -0.2207  0.4542
19037TIP3    H278527   1.897   6.680  11.524 -0.7774  0.3253 -1.4143
19038TIP3   OH278528   4.634   2.242   5.629 -0.0556 -0.2432  0.3065
19038TIP3    H178529   4.570   2.297   5.675  0.2331 -0.4103  0.9222
19038TIP3    H278530   4.617   2.154   5.661 -1.6913 -0.8409 -2.0078
19039TIP3   OH278531   5.260   0.509  13.597 -0.1419  0.5563  0.3971
19039TIP3    H178532   5.286   0.425  13.559 -2.6002 -0.0468 -0.1026
19039TIP3    H278533   5.329   0.570  13.570  0.2664 -0.7120 -1.6416
19040TIP3   OH278534   2.934   0.328   4.666 -0.0706 -0.2570  0.4274
19040TIP3    H178535   2.900   0.293   4.749  0.5242 -0.3249  0.6430
19040TIP3    H278536   2.878   0.404   4.647 -0.1448 -0.1813  0.9438
19041TIP3   OH278537   5.350   0.145   0.603  0.2963 -0.1118  0.4789
19041TIP3    H178538   5.327   0.101   0.685  0.9085 -0.2676  0.5721
19041TIP3    H278539   5.445   0.159   0.609  0.5555 -1.2251 -0.7383
19042TIP3   OH278540   6.174   0.928  11.947  0.1588 -0.5363 -0.2039
19042TIP3    H178541   6.118   0.974  12.010 -0.7797 -0.2653 -1.2003
19042TIP3    H278542   6.194   0.994  11.880 -0.2237 -1.2389 -1.0341
19043TIP3   OH278543   1.204   3.732   5.744 -0.0498 -0.2332  0.0837
19043TIP3    H178544   1.243   3.771   5.666  1.6191 -0.1564  0.9261
19043TIP3    H278545   1.240   3.643   5.747  0.3332 -0.0543  1.0532
19044TIP3   OH278546   0.279   4.349   2.774 -0.0539 -0.1152  1.0134
19044TIP3    H178547   0.365   4.364   2.734  0.0946 -1.3204  0.8515
19044TIP3    H278548   0.298   4.300   2.854 -0.6391 -1.0722  0.5829
19045TIP3   OH278549   2.164   4.134  14.791  0.2987 -0.0512  0.2543
19045TIP3    H178550   2.191   4.042  14.783  1.0816  0.2259 -0.4331
19045TIP3    H278551   2.128   4.156  14.705 -0.7840  0.0192  0.7113
19046TIP3   OH278552   3.988   0.881  16.393  0.3837 -0.1246  0.6139
19046TIP3    H178553   3.913   0.856  16.339  0.6801 -0.8375  0.5301
19046TIP3    H278554   3.951   0.942  16.457  0.1505  1.3279 -0.8104
19047TIP3   OH278555   0.759   3.277   5.836 -0.2277 -0.2448  0.3169
19047TIP3    H178556   0.793   3.346   5.779 -2.4849 -0.0217 -0.8658
19047TIP3    H278557   0.811   3.200   5.814 -0.1369  0.1812 -1.0553
19048TIP3   OH278558   1.503   6.315  11.594 -0.3886 -1.0288  0.2677
19048TIP3    H178559   1.478   6.372  11.667  2.1044 -0.5458  0.8533
19048TIP3    H278560   1.592   6.343  11.573 -0.7178 -1.7792 -2.3990
19049TIP3   OH278561   3.226   4.880  10.408  0.2010 -0.0297 -0.1875
19049TIP3    H178562   3.208   4.963  10.452  0.7312  0.2137 -0.4228
19049TIP3    H278563   3.163   4.878  10.335 -1.0254 -0.6708  0.8517
19050TIP3   OH278564   1.791   2.601  10.668 -0.2573  0.9478  0.0787
19050TIP3    H178565   1.865   2.628  10.721  0.8577 -0.2185 -0.8273
19050TIP3    H278566   1.714   2.636  10.714  0.8323  2.1758  1.0287
19051TIP3   OH278567   2.558   5.977  14.493 -0.3367 -0.0621 -0.0433
19051TIP3    H178568   2.593   6.030  14.421  0.3750  0.6036  0.7601
19051TIP3    H278569   2.570   6.032  14.570 -0.2377 -1.1232  0.7124
19052TIP3   OH278570   5.506   0.757   0.749  0.2209 -0.0824 -0.0227
19052TIP3    H178571   5.464   0.789   0.829 -0.4786  1.7126 -1.0534
19052TIP3    H278572   5.564   0.687   0.779  0.9292  1.3582  2.2297
19053TIP3   OH278573   2.893   2.552   2.025  0.2140  0.5520  0.2726
19053TIP3    H178574   2.966   2.499   1.993 -0.3023 -1.3562  2.0615
19053TIP3    H278575   2.934   2.628   2.066  0.9850  1.4051 -1.9452
19054TIP3   OH278576   6.591   5.088  13.879  0.0983  0.2103  0.0044
19054TIP3    H178577   6.622   5.072  13.968 -0.5432 -0.5531  0.1052
19054TIP3    H278578   6.505   5.046  13.876 -0.9486  2.2471 -0.2546
19055TIP3   OH278579   3.933   5.949  16.692  0.0453 -0.1639 -0.4155
19055TIP3    H178580   3.997   6.018  16.673  1.1285 -1.0366 -0.1021
19055TIP3    H278581   3.866   5.992  16.745  2.0998  0.1182  2.1741
19056TIP3   OH278582   4.708   6.305   0.429  0.2987 -0.2253 -0.6658
19056TIP3    H178583   4.658   6.277   0.507  0.4824 -0.0189 -0.4725
19056TIP3    H278584   4.739   6.223   0.391 -1.7157 -0.5019 -1.8374
19057TIP3   OH278585   5.759   1.382   5.556  0.8458 -0.4445 -0.0586
19057TIP3    H178586   5.719   1.398   5.641  0.6743  2.2901 -0.5526
19057TIP3    H278587   5.684   1.377   5.496  1.0363  1.6500 -0.5517
19058TIP3   OH278588   4.083   4.808   1.266 -0.2865 -0.1788  0.1615
19058TIP3    H178589   4.165   4.759   1.276 -0.6523 -0.6589  0.8487
19058TIP3    H278590   4.069   4.812   1.171 -0.0161 -1.0047  0.0842
19059TIP3   OH278591   3.226   4.253   3.377  0.3930 -0.5777  0.1982
19059TIP3    H178592   3.302   4.209   3.416 -0.0483 -0.1721  1.5733
19059TIP3    H278593   3.189   4.187   3.318  0.7536 -1.4425  0.9086
19060TIP3   OH278594   3.262   0.233   2.847 -0.4462  0.0916  0.1351
19060TIP3    H178595   3.323   0.271   2.784 -0.2391 -0.4246  0.0209
19060TIP3    H278596   3.205   0.306   2.872  0.7273  0.8136  0.8749
19061TIP3   OH278597   1.356   2.727   5.113  0.5164  0.0132  0.3738
19061TIP3    H178598   1.397   2.766   5.036  0.5200 -0.0461  0.3454
19061TIP3    H278599   1.402   2.766   5.187 -0.0128  0.6759  0.3721
19062TIP3   OH278600   4.990   5.669   2.199 -0.5410 -0.1858 -0.1931
19062TIP3    H178601   5.054   5.719   2.250 -2.1426  1.5511  0.2106
19062TIP3    H278602   4.942   5.735   2.150 -0.5637 -1.6444 -2.2446
19063TIP3   OH278603   6.649   6.127   4.866  0.0435  0.0632 -0.5079
19063TIP3    H178604   6.568   6.085   4.895  0.3572 -0.1105  0.1517
19063TIP3    H278605   6.653   6.208   4.916  0.3119  0.0351 -0.4784
19064TIP3   OH278606   6.408   5.928   4.444  0.1537 -0.3147  0.0224
19064TIP3    H178607   6.484   5.895   4.493 -0.6004 -0.5507  1.0678
19064TIP3    H278608   6.365   5.988   4.505 -1.4609 -1.5061  0.1120
19065TIP3   OH278609   4.780   2.588  14.290  0.2034  0.0429 -0.1624
19065TIP3    H178610   4.735   2.638  14.222  0.4931  0.1197 -0.3026
19065TIP3    H278611   4.757   2.631  14.372 -2.3890 -1.6652  0.1166
19066TIP3   OH278612   5.630   2.694   1.158  0.3449 -0.3495  0.5277
19066TIP3    H178613   5.639   2.748   1.237 -0.9595  0.9799 -0.1750
19066TIP3    H278614   5.688   2.736   1.094 -0.8596  0.4132 -0.0962
19067TIP3   OH278615   2.725   0.347   3.582 -0.4065  0.3049 -0.5820
19067TIP3    H178616   2.717   0.270   3.526  0.6687 -1.4578  1.5728
19067TIP3    H278617   2.819   0.363   3.588 -0.6016  1.5787 -0.6980
19068TIP3   OH278618   2.665   2.659   0.345  0.3144  0.4904 -0.5432
19068TIP3    H178619   2.757   2.632   0.341  0.1485  0.0725 -2.1550
19068TIP3    H278620   2.632   2.646   0.256 -2.0121 -1.8234  0.4976
19069TIP3   OH278621   5.475   3.582   4.623  0.0598 -0.0538 -0.5414
19069TIP3    H178622   5.532   3.506   4.636  0.5134  0.1891 -1.0922
19069TIP3    H278623   5.387   3.545   4.615 -0.2092 -0.3084  2.3997
19070TIP3   OH278624   3.205   5.888  15.954  0.1186  0.2865  0.5924
19070TIP3    H178625   3.279   5.948  15.960 -0.4640  0.9009  2.1363
19070TIP3    H278626   3.209   5.853  15.865  0.8766  2.0799 -0.1111
19071TIP3   OH278627   0.618   4.302   4.171 -0.2254 -0.2941  0.1403
19071TIP3    H178628   0.557   4.240   4.131 -1.3272  0.3126  0.8269
19071TIP3    H278629   0.660   4.345   4.097 -0.8083 -0.5621 -0.3558
19072TIP3   OH278630   4.957   4.480   3.879 -0.0933  0.6220  0.0827
19072TIP3    H178631   4.924   4.532   3.806  1.1374  0.0809 -0.9115
19072TIP3    H278632   4.897   4.406   3.885 -0.3996  0.8500 -0.1433
19073TIP3   OH278633   5.334   3.511  16.077  0.0110 -0.0537  0.5122
19073TIP3    H178634   5.327   3.422  16.043  1.1330 -0.3674  1.0695
19073TIP3    H278635   5.339   3.500  16.172 -1.9416  0.7425  0.7449
19074TIP3   OH278636   2.156   0.255   1.832  0.0282 -0.0158 -0.5337
19074TIP3    H178637   2.243   0.270   1.868 -0.0661 -0.4181 -0.1299
19074TIP3    H278638   2.150   0.315   1.758  0.6126  0.0821 -0.5066
19075TIP3   OH278639   6.073   3.002   2.869 -0.6480  0.0490  0.0124
19075TIP3    H178640   6.078   3.007   2.774 -1.1727  0.0131 -0.0225
19075TIP3    H278641   6.159   2.971   2.896 -0.3135  0.5911 -0.4070
19076TIP3   OH278642   5.502   5.413   5.267 -0.1869  0.2730 -0.5417
19076TIP3    H178643   5.566   5.366   5.214  0.7820 -0.6149  1.3003
19076TIP3    H278644   5.556   5.463   5.329 -1.2499 -0.3687  0.9547
19077TIP3   OH278645   0.583   6.683  16.719  0.0364 -0.2958 -0.0801
19077TIP3    H178646   0.497   6.645  16.702 -0.0303  0.0414 -0.4780
19077TIP3    H278647   0.645   6.612  16.701 -0.1552 -0.5595  0.2752
19078TIP3   OH278648   0.177   3.832   3.407 -0.4786 -0.0031  0.6554
19078TIP3    H178649   0.240   3.825   3.479 -0.0651  2.0061  0.5415
19078TIP3    H278650   0.152   3.924   3.406 -2.3238 -0.4761 -0.2538
19079TIP3   OH278651   5.661   3.045  12.669  0.0299 -0.6335 -0.1564
19079TIP3    H178652   5.633   3.037  12.578  0.0556 -0.6938 -0.1594
19079TIP3    H278653   5.635   3.133  12.695  0.1679 -0.5578 -0.2716
19080TIP3   OH278654   2.560   0.132   0.867 -0.0953 -0.3688  0.0163
19080TIP3    H178655   2.526   0.092   0.948 -0.2454  0.3016  0.2905
19080TIP3    H278656   2.651   0.155   0.888  0.5793 -2.1643 -0.7169
19081TIP3   OH278657   6.115   0.850  13.005  0.1774  0.2270 -0.2563
19081TIP3    H178658   6.177   0.778  13.014 -0.7523 -0.4346  1.1846
19081TIP3    H278659   6.051   0.819  12.941  0.6676  0.4318 -0.8493
19082TIP3   OH278660   6.188   2.265  12.414  0.3487  0.8648  0.0163
19082TIP3    H178661   6.200   2.231  12.326 -1.7823 -1.2295  0.4169
19082TIP3    H278662   6.102   2.307  12.412  0.4455  1.1413  0.9974
19083TIP3   OH278663   1.377   6.121   0.879  0.0552  0.8291 -0.6802
19083TIP3    H178664   1.418   6.207   0.885  2.0622 -0.1263  0.3644
19083TIP3    H278665   1.322   6.115   0.957  0.5949  0.8535 -0.2917
19084TIP3   OH278666   5.018   1.112  16.718  0.3222  0.2403 -0.5928
19084TIP3    H178667   5.062   1.143  16.797 -1.6765  0.9237  0.3336
19084TIP3    H278668   5.061   1.159  16.646  1.5956  0.2664  0.1719
19085TIP3   OH278669   0.693   5.884  11.364  0.5066  0.5264 -0.0766
19085TIP3    H178670   0.735   5.889  11.278  1.4256  1.6119  0.4152
19085TIP3    H278671   0.599   5.894  11.344  0.2837 -2.7399 -1.2574
19086TIP3   OH278672   1.943   5.506   5.356 -0.1033  0.0508  0.2098
19086TIP3    H178673   1.955   5.516   5.450  0.2776  2.5885 -0.0215
19086TIP3    H278674   1.868   5.448   5.347 -2.4395  2.4994  2.1912
19087TIP3   OH278675   2.853   3.875   3.059 -0.0534 -0.2624  0.2108
19087TIP3    H178676   2.865   3.783   3.084  1.7375  0.0823  0.8431
19087TIP3    H278677   2.810   3.914   3.135 -0.2979 -0.4695  0.1802
19088TIP3   OH278678   4.831   0.875   3.757 -0.0489 -0.6317 -0.4288
19088TIP3    H178679   4.816   0.841   3.668  1.1276 -0.3181 -0.7752
19088TIP3    H278680   4.916   0.837   3.782  0.7666  1.1167 -0.3842
19089TIP3   OH278681   3.392   3.909  14.285  0.5382 -0.4974  0.5808
19089TIP3    H178682   3.333   3.834  14.293  1.4571 -1.0646  2.6909
19089TIP3    H278683   3.478   3.870  14.274  1.1239  0.1809  2.4062
19090TIP3   OH278684   1.973   2.351  14.445 -0.3928 -0.4262  0.0189
19090TIP3    H178685   1.962   2.293  14.521  0.4356  1.2008  1.4575
19090TIP3    H278686   1.944   2.437  14.477  3.5146  1.1770 -0.1665
19091TIP3   OH278687   4.852   6.564  14.179  0.3872  0.0690 -0.0710
19091TIP3    H178688   4.838   6.561  14.085 -1.7379 -1.1202  0.2173
19091TIP3    H278689   4.867   6.657  14.199  1.2584  0.2779 -1.5898
19092TIP3   OH278690   3.444   0.344  12.137  1.1066  0.1543 -0.0946
19092TIP3    H178691   3.519   0.347  12.078  1.9421  0.0158  0.9322
19092TIP3    H278692   3.475   0.295  12.213 -0.7490 -1.9979 -0.6080
19093TIP3   OH278693   0.991   3.612  14.028 -0.5844  0.3036 -0.0975
19093TIP3    H178694   1.029   3.695  14.057 -1.1586 -0.2778  2.6103
19093TIP3    H278695   0.896   3.626  14.030 -0.6910 -0.3789  0.3953
19094TIP3   OH278696   6.062   2.351  16.606  0.7089  0.4846  0.3154
19094TIP3    H178697   5.970   2.357  16.633  1.1515  0.7610  1.8834
19094TIP3    H278698   6.074   2.422  16.544 -0.7472 -1.1066 -1.9276
19095TIP3   OH278699   5.695   5.746   2.734  0.0446 -0.1240  0.2249
19095TIP3    H178700   5.626   5.711   2.790 -1.0902  0.3906 -0.7958
19095TIP3    H278701   5.728   5.671   2.685 -1.3484 -0.0595 -0.8773
19096TIP3   OH278702   3.821   5.917  14.904 -0.2972 -0.1387 -0.0733
19096TIP3    H178703   3.796   6.003  14.870 -1.8195  0.1159  1.5316
19096TIP3    H278704   3.793   5.856  14.837  0.8705  0.5982 -1.2723
19097TIP3   OH278705   2.879   0.019  15.166 -0.1976 -0.3813 -0.0560
19097TIP3    H178706   2.802   0.075  15.156 -0.4246 -0.6420  0.2096
19097TIP3    H278707   2.947   0.063  15.117 -0.2646  0.3378  0.4820
19098TIP3   OH278708   4.765   3.235  15.366 -0.1341  0.1380 -0.1705
19098TIP3    H178709   4.808   3.277  15.291  2.1727 -0.5062  0.6830
19098TIP3    H278710   4.744   3.147  15.335  0.8191 -0.1282 -0.0967
19099TIP3   OH278711   5.741   2.304   0.901 -0.3719 -0.0437 -0.2764
19099TIP3    H178712   5.692   2.223   0.887  0.8845 -0.8140 -0.3067
19099TIP3    H278713   5.678   2.364   0.941 -0.5663 -1.9718  2.5406
19100TIP3   OH278714   3.080   6.599   4.726  0.8631 -0.7358  0.4999
19100TIP3    H178715   3.052   6.677   4.680  2.0647 -0.7818 -0.3505
19100TIP3    H278716   3.124   6.632   4.805  1.1563 -0.5475  0.2620
19101TIP3   OH278717   3.670   5.299   6.991 -0.5618 -0.2899  0.0573
19101TIP3    H178718   3.679   5.394   6.983 -0.7722 -0.3725 -1.2753
19101TIP3    H278719   3.687   5.282   7.084  0.6102  0.9138  0.0900
19102TIP3   OH278720   2.220   5.388  15.742 -0.2488 -0.0156 -0.5832
19102TIP3    H178721   2.279   5.373  15.816  0.9313 -0.6039 -1.6038
19102TIP3    H278722   2.136   5.410  15.782  0.5072  0.2638  0.9202
19103TIP3   OH278723   0.240   2.371   1.907  0.3590 -0.2729 -0.0326
19103TIP3    H178724   0.151   2.370   1.872  0.5352  0.9785 -0.5702
19103TIP3    H278725   0.275   2.284   1.886 -0.7294 -0.7787  0.1976
19104TIP3   OH278726   2.257   4.082   3.388 -0.2929  0.0264  0.1010
19104TIP3    H178727   2.191   4.013   3.395  0.1429 -0.3212  0.8548
19104TIP3    H278728   2.208   4.160   3.363 -0.6674 -0.7788 -1.9298
19105TIP3   OH278729   3.727   4.314  15.819 -0.2285 -0.0346 -0.1228
19105TIP3    H178730   3.743   4.282  15.908 -2.0463  0.0757  0.2928
19105TIP3    H278731   3.762   4.247  15.762 -1.1917 -1.3049  0.7177
19106TIP3   OH278732   1.226   0.352  11.468 -0.4228  0.8493  0.2318
19106TIP3    H178733   1.273   0.269  11.460  0.7266  1.5247 -0.4187
19106TIP3    H278734   1.139   0.334  11.431 -0.4794 -0.2627  0.8555
19107TIP3   OH278735   3.858   2.383   0.042  0.3321 -0.2909 -0.1971
19107TIP3    H178736   3.924   2.313   0.046 -0.3701 -0.9797 -0.5712
19107TIP3    H278737   3.775   2.337   0.030 -0.1716  0.5974 -0.1451
19108TIP3   OH278738   2.694   6.424  13.743 -0.2355 -0.3486  0.3342
19108TIP3    H178739   2.718   6.440  13.652  0.3479 -0.4662  0.4639
19108TIP3    H278740   2.638   6.347  13.741  0.8983 -1.1948  0.2112
19109TIP3   OH278741   3.517   5.713   5.169 -0.2654  0.0080 -0.0471
19109TIP3    H178742   3.485   5.656   5.099 -1.8998 -1.2444  1.6254
19109TIP3    H278743   3.437   5.740   5.216  0.8256  0.1438  1.8284
19110TIP3   OH278744   3.439   2.915  15.583  0.5088  0.6025  0.0311
19110TIP3    H178745   3.486   2.833  15.599  0.9107  0.4192 -1.8358
19110TIP3    H278746   3.464   2.940  15.494 -0.8679  1.9206 -0.0318
19111TIP3   OH278747   0.469   3.833  13.540 -0.3879  0.1146  0.2592
19111TIP3    H178748   0.438   3.767  13.603  0.1917 -1.6017 -1.1558
19111TIP3    H278749   0.553   3.862  13.575 -0.0071 -0.9242  0.2457
19112TIP3   OH278750   5.113   4.152  14.933 -0.2915  0.2046 -0.3443
19112TIP3    H178751   5.164   4.144  15.014 -0.6524  0.2447 -0.1106
19112TIP3    H278752   5.179   4.168  14.865 -0.0515  1.0900  0.0780
19113TIP3   OH278753   2.158   5.628   5.451 -0.6629  0.4143  0.3741
19113TIP3    H178754   2.082   5.584   5.412 -2.0048  1.4226  1.7337
19113TIP3    H278755   2.179   5.576   5.528  1.7424 -1.3516 -1.3524
19114TIP3   OH278756   3.990   6.050   0.639 -0.0192 -0.5629  0.3874
19114TIP3    H178757   3.980   6.118   0.705  2.5232  1.4206 -1.1021
19114TIP3    H278758   3.918   6.065   0.577 -0.0185  0.1939  0.5640
19115TIP3   OH278759   1.774   6.762   5.882  0.4756 -0.0279  0.2440
19115TIP3    H178760   1.798   6.713   5.804 -0.8758  0.0330 -0.2404
19115TIP3    H278761   1.685   6.734   5.901  0.2427  1.0766  0.8707
19116TIP3   OH278762   3.822   3.692  12.044  0.4500  0.1342  0.0427
19116TIP3    H178763   3.893   3.643  12.084  0.7162 -0.4188 -1.0968
19116TIP3    H278764   3.855   3.782  12.040  1.0355 -0.0951 -0.3719
19117TIP3   OH278765   2.390   2.547  12.802  0.1271  0.5441 -0.3161
19117TIP3    H178766   2.345   2.462  12.805  0.0794  0.5704 -0.2920
19117TIP3    H278767   2.352   2.592  12.727 -1.2492  1.3255  0.8154
19118TIP3   OH278768   4.646   2.203  13.195  0.9516  0.6293 -0.2210
19118TIP3    H178769   4.691   2.278  13.232 -0.1287  0.8328  0.7033
19118TIP3    H278770   4.566   2.238  13.157  1.0261  0.1098 -0.8965
19119TIP3   OH278771   2.951   1.060   5.706  0.0847 -0.0368 -0.0207
19119TIP3    H178772   3.010   1.070   5.632  2.8336 -0.0937  2.0014
19119TIP3    H278773   2.959   1.142   5.754 -1.0241 -0.3061  0.6599
19120TIP3   OH278774   2.522   1.909   1.139  0.2753 -0.3704  0.0066
19120TIP3    H178775   2.575   1.927   1.217 -0.2083  0.4241  0.1550
19120TIP3    H278776   2.493   1.819   1.151  0.6583 -0.4384  0.4775
19121TIP3   OH278777   6.064   6.293  17.096  0.2422 -0.8118  0.0447
19121TIP3    H178778   6.078   6.290  17.191  1.5909 -1.4107 -0.1454
19121TIP3    H278779   6.152   6.282  17.059 -0.2608 -0.5293 -1.2758
19122TIP3   OH278780   6.552   6.513   2.517 -0.3536  0.2331 -0.5246
19122TIP3    H178781   6.524   6.506   2.608  0.7442  1.6336 -0.0459
19122TIP3    H278782   6.642   6.545   2.522 -0.5080  1.0139 -2.1128
19123TIP3   OH278783   1.745   5.624  11.556  0.1074 -0.0062  0.5290
19123TIP3    H178784   1.696   5.681  11.615 -0.7878  0.2342 -0.4025
19123TIP3    H278785   1.688   5.614  11.480  0.2395 -2.1808  0.6661
19124TIP3   OH278786   4.222   1.168  15.229 -0.3816  0.3206  0.6563
19124TIP3    H178787   4.226   1.112  15.151 -1.5624  0.6349  0.3640
19124TIP3    H278788   4.165   1.121  15.289 -0.7084  0.8145  0.7351
19125TIP3   OH278789   2.529   1.090   1.991 -0.0661  0.2421  0.0590
19125TIP3    H178790   2.473   1.026   1.947 -1.7992  1.0065  1.0433
19125TIP3    H278791   2.607   1.040   2.016 -1.8281 -1.8402  1.7942
19126TIP3   OH278792   4.440   3.544   2.451 -0.0807  0.2544  0.2384
19126TIP3    H178793   4.423   3.579   2.538 -1.5373  1.3193 -0.4443
19126TIP3    H278794   4.358   3.556   2.403  0.1963 -1.6938 -0.8469
19127TIP3   OH278795   4.785   6.748  16.082 -0.9089 -0.0182  0.1397
19127TIP3    H178796   4.788   6.760  16.177  0.9531  0.9591  0.0051
19127TIP3    H278797   4.778   6.653  16.070 -0.5177 -0.2028  1.2719
19128TIP3   OH278798   6.419   1.023  13.945  0.5071 -0.1971  0.4253
19128TIP3    H178799   6.475   1.050  13.873  0.1137  2.2321  0.9300
19128TIP3    H278800   6.335   1.067  13.929  0.1359 -0.2942  1.8920
19129TIP3   OH278801   1.197   3.831   2.414 -0.1881 -0.3018 -0.1488
19129TIP3    H178802   1.114   3.842   2.368  0.2108 -0.6957 -0.9889
19129TIP3    H278803   1.183   3.756   2.472 -0.6308  0.0767  0.2500
19130TIP3   OH278804   3.357   4.674   0.205 -0.0932 -0.0190  0.7279
19130TIP3    H178805   3.263   4.691   0.209 -0.2921 -0.3322 -1.4249
19130TIP3    H278806   3.398   4.756   0.231 -0.9857  0.7114 -0.1013
19131TIP3   OH278807   4.417   0.738  15.636  0.3975 -0.2313  0.2810
19131TIP3    H178808   4.397   0.649  15.608 -0.8609  0.0292  0.2628
19131TIP3    H278809   4.466   0.727  15.717 -2.4693 -1.0163  2.0812
19132TIP3   OH278810   6.398   0.690   5.807 -0.1592  0.3055 -0.4159
19132TIP3    H178811   6.426   0.699   5.898 -1.5607  0.3739  0.0338
19132TIP3    H278812   6.465   0.738   5.757  0.2040  0.9514  0.6417
19133TIP3   OH278813   5.885   0.462  11.059  0.4362  0.1979 -0.8085
19133TIP3    H178814   5.966   0.435  11.016  1.1623  0.3368  0.4375
19133TIP3    H278815   5.908   0.541  11.107 -0.1985 -0.2620  0.2957
19134TIP3   OH278816   3.738   2.605   0.855 -0.8002  0.3816 -0.3027
19134TIP3    H178817   3.695   2.525   0.826  0.3811 -0.1816 -0.5500
19134TIP3    H278818   3.831   2.582   0.859 -0.5376  1.5071  0.4072
19135TIP3   OH278819   3.686   0.431  15.047  0.1391 -0.6659 -0.2577
19135TIP3    H178820   3.761   0.489  15.040 -1.1807  1.0967 -0.6621
19135TIP3    H278821   3.683   0.405  15.139  1.2874 -0.8511 -0.2660
19136TIP3   OH278822   5.487   1.575  12.460 -0.2164 -0.8597  0.2112
19136TIP3    H178823   5.443   1.540  12.383  0.0777 -0.9208  0.0707
19136TIP3    H278824   5.549   1.640  12.425 -1.9229  1.0723  0.5520
19137TIP3   OH278825   6.053   6.741   2.045 -0.3999 -0.9615 -0.2436
19137TIP3    H178826   6.093   6.792   2.116 -1.0747 -0.4392 -0.2245
19137TIP3    H278827   6.041   6.654   2.082 -2.1432 -0.3200  0.8468
19138TIP3   OH278828   6.394   5.968  16.267  0.5030 -0.2020 -0.6183
19138TIP3    H178829   6.318   5.949  16.321  0.4815  0.7412 -0.3124
19138TIP3    H278830   6.360   5.972  16.178  0.0414  1.0206 -0.3980
19139TIP3   OH278831   4.529   2.287   3.420 -0.3116  0.3139  0.2640
19139TIP3    H178832   4.473   2.240   3.481 -0.6803  2.2117  1.4887
19139TIP3    H278833   4.607   2.233   3.411 -1.2700 -1.1643  0.4949
19140TIP3   OH278834   0.198   4.015  14.018 -0.6234 -0.0235  0.2107
19140TIP3    H178835   0.160   4.012  13.930  0.0539 -0.9636 -0.0580
19140TIP3    H278836   0.281   4.063  14.007 -0.8805  0.5005  0.4828
19141TIP3   OH278837   5.098   1.588  13.787  0.8705 -0.4692  0.0881
19141TIP3    H178838   5.045   1.667  13.778  0.3267 -0.7820  0.4573
19141TIP3    H278839   5.138   1.596  13.874  0.9796 -0.4979  0.0398
19142TIP3   OH278840   5.158   3.274  16.832  0.1105 -0.3224  0.7358
19142TIP3    H178841   5.097   3.203  16.854 -0.6223  0.4082  1.1013
19142TIP3    H278842   5.104   3.338  16.784  1.3163 -1.2067 -2.0359
19143TIP3   OH278843   5.909   3.649   3.592  0.2115 -0.0495 -0.1173
19143TIP3    H178844   5.862   3.728   3.617 -1.2338 -1.1049  0.6711
19143TIP3    H278845   5.955   3.673   3.512 -0.2680  1.5490  0.0463
19144TIP3   OH278846   4.997   3.584   2.863  0.0362  0.2351  0.1433
19144TIP3    H178847   4.948   3.519   2.812 -1.4392  1.9095 -0.7252
19144TIP3    H278848   5.084   3.547   2.872 -0.9124 -2.1526  0.2978
19145TIP3   OH278849   0.983   3.289   4.944  0.2951 -0.5336 -0.1565
19145TIP3    H178850   1.063   3.327   4.909  0.2032 -0.0721  0.1251
19145TIP3    H278851   1.003   3.197   4.955  0.1407 -0.8348 -1.9837
19146TIP3   OH278852   0.369   2.844   2.952  0.2837 -0.1639 -0.1258
19146TIP3    H178853   0.329   2.914   3.004  1.1527  0.5798 -0.4273
19146TIP3    H278854   0.347   2.763   2.999  0.2126  0.4080  0.8472
19147TIP3   OH278855   1.629   1.981   4.006 -0.1713 -0.2663 -0.1151
19147TIP3    H178856   1.640   1.911   3.942  1.0440  0.7302 -1.0472
19147TIP3    H278857   1.537   2.007   3.998 -0.5657 -1.5464  0.0492
19148TIP3   OH278858   0.209   2.994   3.664 -0.3335  0.2603  0.5024
19148TIP3    H178859   0.278   2.934   3.692 -1.7850 -1.6798  0.1327
19148TIP3    H278860   0.127   2.947   3.683 -1.4991  1.5338 -1.1055
19149TIP3   OH278861   5.935   2.136   5.693 -0.3249  0.0620 -0.3104
19149TIP3    H178862   5.893   2.220   5.678 -1.7407 -0.8188 -1.5877
19149TIP3    H278863   5.894   2.077   5.630  0.8494 -1.5200  0.3331
19150TIP3   OH278864   5.036   3.464  16.382 -0.0005  0.3042 -0.1299
19150TIP3    H178865   4.993   3.449  16.298  2.3302  1.7794 -1.7105
19150TIP3    H278866   5.076   3.379  16.404 -0.6013 -0.0795 -0.4909
19151TIP3   OH278867   0.033   0.264   2.390  0.0103 -0.3110  0.5624
19151TIP3    H178868   0.108   0.206   2.378  0.4847  0.1433  1.3023
19151TIP3    H278869   0.071   0.349   2.411 -0.7097 -0.0698  0.9202
19152TIP3   OH278870   5.327   3.353  15.070 -0.3761  0.3542  0.3440
19152TIP3    H178871   5.420   3.353  15.048 -0.0855  1.4934  1.4964
19152TIP3    H278872   5.295   3.437  15.038 -0.5492  0.8344  1.7254
19153TIP3   OH278873   0.327   0.139  12.015  0.5525  0.3490  0.1484
19153TIP3    H178874   0.356   0.128  11.924 -3.0077 -0.3447 -1.1027
19153TIP3    H278875   0.321   0.050  12.049 -2.7441  0.0625 -0.7707
19154TIP3   OH278876   4.093   2.787   5.889  0.0281  0.4336  0.3324
19154TIP3    H178877   4.121   2.843   5.960  1.8610  1.7394 -1.3178
19154TIP3    H278878   4.043   2.844   5.830 -0.8805 -0.4629  0.1830
19155TIP3   OH278879   0.238   5.770  16.509 -0.4876 -0.5138 -0.1395
19155TIP3    H178880   0.208   5.853  16.472  0.0179 -0.4070 -0.3159
19155TIP3    H278881   0.172   5.748  16.574 -1.0340 -0.3626 -0.6321
19156TIP3   OH278882   1.984   3.751   3.005 -0.5574  0.5849  0.8487
19156TIP3    H178883   2.074   3.721   3.021 -0.5739 -1.6366 -2.1763
19156TIP3    H278884   1.930   3.697   3.063 -0.1208 -0.5902  0.1899
19157TIP3   OH278885   2.863   6.770   0.179  0.1455 -0.1135  0.0413
19157TIP3    H178886   2.783   6.719   0.167  1.7901 -2.8954 -0.0594
19157TIP3    H278887   2.899   6.780   0.091  0.9595 -0.8244  0.2740
19158TIP3   OH278888   6.498   3.315  13.794 -0.0328 -0.2669  0.1655
19158TIP3    H178889   6.529   3.259  13.722  0.8207  0.1759  0.1749
19158TIP3    H278890   6.448   3.256  13.850  0.0541 -0.8156 -0.3229
19159TIP3   OH278891   4.849   0.981  13.083  0.4460 -0.1991  0.3855
19159TIP3    H178892   4.808   0.935  13.156  0.9236 -1.1699  0.0585
19159TIP3    H278893   4.888   0.912  13.030 -1.3876  0.3129 -1.7619
19160TIP3   OH278894   0.970   3.672   4.895 -0.3350  0.0159 -0.6176
19160TIP3    H178895   1.043   3.644   4.951 -0.8876  0.0297  0.1282
19160TIP3    H278896   0.893   3.628   4.931 -0.7925  0.4554 -1.0344
19161TIP3   OH278897   6.702   2.330  15.634  0.7291  0.0777 -0.0140
19161TIP3    H178898   6.785   2.285  15.651  0.5056 -0.6422 -0.7880
19161TIP3    H278899   6.637   2.278  15.682  0.5466 -0.1119 -0.4636
19162TIP3   OH278900   3.466   5.274  13.625 -0.0602  0.0795 -0.4610
19162TIP3    H178901   3.506   5.235  13.703 -0.9452 -1.5253 -0.7639
19162TIP3    H278902   3.372   5.257  13.636 -0.6387  3.0304 -0.1695
19163TIP3   OH278903   5.756   4.065  14.861 -0.2025 -0.2031  0.4716
19163TIP3    H178904   5.744   4.099  14.772  2.0663 -0.3474  0.0517
19163TIP3    H278905   5.667   4.056  14.895 -1.1172  0.3421 -1.5920
19164TIP3   OH278906   2.005   0.043   0.350  0.1597  0.0576  0.0596
19164TIP3    H178907   1.923   0.044   0.398  1.2723  0.7365  2.0945
19164TIP3    H278908   2.064  -0.009   0.406  0.7653 -1.6507 -2.0304
19165TIP3   OH278909   3.776   1.258   0.196  0.0783  0.3885 -0.3827
19165TIP3    H178910   3.863   1.293   0.218  0.4892 -0.1066 -1.1469
19165TIP3    H278911   3.715   1.309   0.249  0.9052  0.0452  0.9447
19166TIP3   OH278912   1.080   6.527   5.176 -0.0271  0.6771  0.2014
19166TIP3    H178913   1.111   6.528   5.266  0.6955  1.4663 -0.0349
19166TIP3    H278914   1.004   6.585   5.176 -1.2290 -0.8356  0.6732
19167TIP3   OH278915   2.300   6.482  13.525 -0.6641 -0.0098  0.1519
19167TIP3    H178916   2.224   6.461  13.579 -0.6050  0.9800  0.6352
19167TIP3    H278917   2.339   6.558  13.567 -0.6137  0.7884 -1.2978
19168TIP3   OH278918   5.509   5.030   0.946  0.3917  0.7915 -0.8372
19168TIP3    H178919   5.558   4.970   1.001 -1.9284 -0.6475 -0.1983
19168TIP3    H278920   5.575   5.086   0.905  2.5025 -1.0555 -0.0949
19169TIP3   OH278921   1.468   2.744  15.591  0.2179 -0.0773 -0.0902
19169TIP3    H178922   1.459   2.833  15.556 -1.5687  0.1670  0.8788
19169TIP3    H278923   1.387   2.700  15.565  0.7547 -1.1970  0.0941
19170TIP3   OH278924   5.810   6.434   3.113 -0.5414  0.0907 -0.0045
19170TIP3    H178925   5.723   6.436   3.073 -0.3751  0.6638 -0.3387
19170TIP3    H278926   5.871   6.431   3.040 -0.2610  0.2243  0.2198
19171TIP3   OH278927   5.423   2.798   4.290  0.7275  0.5585  0.8138
19171TIP3    H178928   5.359   2.776   4.357 -1.5620  0.7103 -1.2025
19171TIP3    H278929   5.478   2.720   4.283 -0.1339 -0.1388  1.5913
19172TIP3   OH278930   4.505   1.112   2.861  0.6716 -0.3312 -0.1661
19172TIP3    H178931   4.410   1.101   2.861  0.5688  0.4440  0.7518
19172TIP3    H278932   4.536   1.047   2.798 -0.2912 -2.0076  1.0297
19173TIP3   OH278933   3.204   3.155  13.455  0.4822  0.4948 -0.1761
19173TIP3    H178934   3.263   3.141  13.529  0.7410 -1.8505 -0.7506
19173TIP3    H278935   3.121   3.116  13.484  0.3137  0.4252 -0.7474
19174TIP3   OH278936   3.594   0.136   0.033 -0.2250 -0.1260  0.4982
19174TIP3    H178937   3.502   0.110   0.030  0.0771 -1.2255 -0.7770
19174TIP3    H278938   3.636   0.071   0.090  0.2110 -1.4241 -1.2054
19175TIP3   OH278939   2.164   0.678   4.979  0.7672  0.2793  0.3427
19175TIP3    H178940   2.230   0.684   4.910 -0.0489 -0.3479 -0.5253
19175TIP3    H278941   2.085   0.648   4.934  0.3679 -0.7662  1.6446
19176TIP3   OH278942   0.214   1.303   2.685  0.1422  0.2236 -0.4024
19176TIP3    H178943   0.264   1.272   2.760 -0.9122 -1.4304 -0.3389
19176TIP3    H278944   0.272   1.290   2.610  0.8847  1.0940  0.0124
19177TIP3   OH278945   6.185   0.625  15.828 -0.0313 -0.0328  0.1988
19177TIP3    H178946   6.232   0.593  15.905  0.5668 -0.0692 -0.1750
19177TIP3    H278947   6.093   0.612  15.849  0.1171  0.1062  0.9737
19178TIP3   OH278948   2.012   4.476  13.217  0.3201 -0.2609 -0.0510
19178TIP3    H178949   1.986   4.568  13.226 -1.4709 -0.8503  1.3149
19178TIP3    H278950   2.063   4.473  13.136 -2.7297  1.2763 -2.1988
19179TIP3   OH278951   5.924   0.271   0.827 -0.4580 -0.2328  0.7563
19179TIP3    H178952   5.871   0.283   0.905 -2.4384 -0.8709 -0.4251
19179TIP3    H278953   5.868   0.224   0.766  1.4030 -0.7471 -0.6748
19180TIP3   OH278954   4.592   0.132   3.151  0.2952 -0.0473  0.2261
19180TIP3    H178955   4.682   0.152   3.173  0.7487 -2.5952  1.0304
19180TIP3    H278956   4.598   0.070   3.078 -0.9120  1.1793 -0.9826
19181TIP3   OH278957   2.455   5.631   1.399 -0.0203 -0.0178  0.3352
19181TIP3    H178958   2.533   5.629   1.454  0.8023 -0.8897 -0.8077
19181TIP3    H278959   2.385   5.594   1.454  0.8052 -0.9935  0.7661
19182TIP3   OH278960   0.181   1.861  11.258 -0.2929  0.1825 -0.2780
19182TIP3    H178961   0.158   1.940  11.208 -1.6180  0.4314  0.6689
19182TIP3    H278962   0.226   1.895  11.336 -1.9562  0.1471  0.7503
19183TIP3   OH278963   4.789   6.270  13.193 -0.2337 -0.4434 -0.1849
19183TIP3    H178964   4.715   6.319  13.228 -0.8022 -0.9996 -0.5850
19183TIP3    H278965   4.770   6.178  13.215  0.0119 -0.6589 -0.8487
19184TIP3   OH278966   0.996   1.312   2.510 -0.4257  0.0893  0.2489
19184TIP3    H178967   1.001   1.283   2.419  2.0478  0.0371  0.3477
19184TIP3    H278968   0.997   1.231   2.561  0.3708  0.1540  0.3525
19185TIP3   OH278969   1.028   3.037  11.609 -0.7696  0.0839  0.0916
19185TIP3    H178970   1.012   3.095  11.534  1.3995 -0.5312 -0.9212
19185TIP3    H278971   0.960   2.970  11.602 -1.3198  0.6943 -0.6239
19186TIP3   OH278972   2.997   6.208  11.451  0.2636 -0.4638  0.2890
19186TIP3    H178973   3.062   6.257  11.400 -0.6892  1.3112  0.6852
19186TIP3    H278974   2.963   6.143  11.390  1.3666 -0.4704 -0.3554
19187TIP3   OH278975   0.628   6.771  11.965  0.2253 -0.2423  0.4486
19187TIP3    H178976   0.709   6.724  11.982 -0.2520 -1.1324  0.3182
19187TIP3    H278977   0.621   6.834  12.036  0.6913 -0.6151  0.8262
19188TIP3   OH278978   4.291   2.854   1.639  0.4080  0.0181 -0.1413
19188TIP3    H178979   4.256   2.910   1.709  1.9456  0.0470  0.6262
19188TIP3    H278980   4.292   2.911   1.562 -3.0195 -0.5146 -0.7650
19189TIP3   OH278981   3.587   5.373  10.685 -0.4847  0.4995  0.1988
19189TIP3    H178982   3.678   5.346  10.694  0.1672  2.3808 -0.3203
19189TIP3    H278983   3.537   5.291  10.685  1.3272 -0.6759 -1.0833
19190TIP3   OH278984   0.333   3.234  16.704  0.2735 -0.1306  0.3163
19190TIP3    H178985   0.309   3.323  16.680  0.6523 -0.3224 -0.8648
19190TIP3    H278986   0.382   3.242  16.786 -0.5522  0.6332  0.7418
19191TIP3   OH278987   2.700   6.720  15.976 -0.5592  0.4492  0.0806
19191TIP3    H178988   2.608   6.697  15.959  0.2046 -1.6533 -1.5393
19191TIP3    H278989   2.711   6.707  16.070 -1.7925  0.3084  0.2261
19192TIP3   OH278990   6.200   2.204  12.144  0.0233  0.0638  0.0251
19192TIP3    H178991   6.175   2.157  12.065 -0.4484 -0.1543  0.3020
19192TIP3    H278992   6.217   2.294  12.114  1.2205 -0.3298 -0.5535
19193TIP3   OH278993   3.708   3.371   0.436 -0.0144  0.7259  0.3261
19193TIP3    H178994   3.693   3.435   0.506 -0.2804  1.3896 -0.3182
19193TIP3    H278995   3.781   3.407   0.386  0.8833 -0.2918  0.8838
19194TIP3   OH278996   6.761   6.248  15.762 -0.3124  0.2885  0.7113
19194TIP3    H178997   6.730   6.334  15.789  1.1292  1.1983 -0.4039
19194TIP3    H278998   6.688   6.210  15.713 -1.2020  0.5634  1.7714
19195TIP3   OH278999   6.666   1.037   2.458 -0.3397  0.7392 -0.0570
19195TIP3    H179000   6.641   0.958   2.409 -0.2594 -0.3328  1.5594
19195TIP3    H279001   6.582   1.074   2.486 -0.3295  0.2576  0.6316
19196TIP3   OH279002   1.991   6.691  13.247  0.0628  0.1869 -0.0799
19196TIP3    H179003   1.981   6.783  13.273 -0.8138  0.0052  0.2470
19196TIP3    H279004   2.069   6.691  13.191  0.1521  1.1067  0.0233
19197TIP3   OH279005   5.794   0.566   3.775 -0.2462  0.0560 -0.6047
19197TIP3    H179006   5.727   0.549   3.843 -1.2084 -2.3908 -2.0222
19197TIP3    H279007   5.812   0.659   3.783  1.4460 -0.3608  4.5508
19198TIP3   OH279008   4.414   0.501  15.118 -0.2504  0.4539 -0.2889
19198TIP3    H179009   4.322   0.477  15.132 -0.6820  1.6181 -1.0818
19198TIP3    H279010   4.420   0.592  15.148  1.4682 -0.5911  3.1121
19199TIP3   OH279011   1.520   6.527  14.481 -0.1335 -0.1851  0.0800
19199TIP3    H179012   1.500   6.534  14.387 -1.2020 -1.9403  0.1522
19199TIP3    H279013   1.580   6.453  14.488 -1.2628 -1.0358  0.9475
19200TIP3   OH279014   3.961   2.864  13.629  0.2847  0.2904 -0.2368
19200TIP3    H179015   3.967   2.829  13.540  1.7820 -1.1320  0.3699
19200TIP3    H279016   3.962   2.786  13.685 -0.5163  1.1663  1.0411
19201TIP3   OH279017   3.504   0.264  11.823 -0.3898  0.5047  0.0985
19201TIP3    H179018   3.580   0.305  11.865 -1.0939  0.6215  1.2982
19201TIP3    H279019   3.530   0.254  11.732  0.4057  2.1602  0.1092
19202TIP3   OH279020   1.239   4.035  16.825 -0.6010 -0.1736  0.1743
19202TIP3    H179021   1.169   4.099  16.839 -0.3096  0.3117 -0.5147
19202TIP3    H279022   1.317   4.076  16.862 -0.5644 -0.4616  0.4193
19203TIP3   OH279023   2.116   0.271  14.316 -0.2056 -0.4298 -0.6069
19203TIP3    H179024   2.070   0.288  14.398  0.4772 -1.8221  0.1192
19203TIP3    H279025   2.208   0.294  14.335  0.0265 -1.1436 -0.8284
19204TIP3   OH279026   4.827   5.638  12.308 -0.4145  0.5305 -0.1508
19204TIP3    H179027   4.859   5.707  12.367  1.9414  0.2684 -1.0237
19204TIP3    H279028   4.864   5.557  12.343 -1.3937 -0.0140 -0.3505
19205TIP3   OH279029   6.299   6.191   5.706  0.5066  0.6240 -0.8499
19205TIP3    H179030   6.330   6.281   5.720 -1.3446  1.3062 -0.9267
19205TIP3    H279031   6.242   6.197   5.630 -0.1851 -0.4881 -0.4375
19206TIP3   OH279032   2.755   1.796  15.838  0.2566  0.1878  0.2107
19206TIP3    H179033   2.697   1.721  15.848  0.1786  0.1803 -0.2510
19206TIP3    H279034   2.748   1.819  15.745 -1.8479  2.4800  0.8216
19207TIP3   OH279035   3.617   5.409   5.479 -0.3283  0.9380 -0.2003
19207TIP3    H179036   3.598   5.376   5.567 -1.2309  0.9791 -0.3715
19207TIP3    H279037   3.532   5.414   5.436  0.2072 -0.0050 -1.4159
19208TIP3   OH279038   3.554   4.764   1.805  0.2944  0.3742 -0.3057
19208TIP3    H179039   3.630   4.812   1.837  0.6656 -0.3261 -0.0992
19208TIP3    H279040   3.490   4.770   1.876  0.3519  0.5395 -0.2689
19209TIP3   OH279041   4.487   1.340   3.931  0.0697 -0.2200  0.5240
19209TIP3    H179042   4.532   1.270   3.978 -0.0552 -0.8956 -0.3455
19209TIP3    H279043   4.541   1.418   3.946  0.4176 -0.5798  1.1742
19210TIP3   OH279044   3.435   6.345  10.861 -0.3049 -0.2260 -0.2428
19210TIP3    H179045   3.366   6.280  10.846 -2.2145  1.4730  0.7909
19210TIP3    H279046   3.467   6.327  10.949 -1.2128  0.5443  0.2533
19211TIP3   OH279047   0.528   6.007   1.723  0.3975  0.2360  0.0976
19211TIP3    H179048   0.561   5.965   1.644 -2.3604 -0.5233 -0.7485
19211TIP3    H279049   0.475   5.940   1.767 -0.2760  1.4259  1.2005
19212TIP3   OH279050   1.956   5.586  12.695  0.6751 -0.4473 -0.2381
19212TIP3    H179051   2.023   5.597  12.762  0.1207  0.9474  0.1229
19212TIP3    H279052   1.896   5.521  12.733  0.5043  0.1374  0.5231
19213TIP3   OH279053   5.237   1.668   2.066  0.3158  0.0848 -0.4613
19213TIP3    H179054   5.204   1.687   2.154 -0.5253  0.3312 -0.8165
19213TIP3    H279055   5.200   1.582   2.045  2.1890 -0.9251  0.2178
19214TIP3   OH279056   4.244   3.945   0.026  0.1159  0.0454 -0.7283
19214TIP3    H179057   4.302   3.947  -0.050  1.7582  0.4928  0.5079
19214TIP3    H279058   4.237   3.852   0.048  1.1506  0.0644 -0.3018
19215TIP3   OH279059   4.011   0.407  11.400 -0.4306  0.4469 -0.2081
19215TIP3    H179060   3.917   0.424  11.401 -0.6695 -0.7668  0.8814
19215TIP3    H279061   4.026   0.347  11.473  1.2532  0.8865 -0.1362
19216TIP3   OH279062   4.521   0.363   2.993 -0.5289  0.4124 -0.3397
19216TIP3    H179063   4.547   0.285   3.042  0.0794  2.0067  2.1038
19216TIP3    H279064   4.601   0.391   2.950 -0.5218  0.1778 -0.4798
19217TIP3   OH279065   5.140   0.403  15.721  0.9371 -0.0752 -0.0015
19217TIP3    H179066   5.220   0.351  15.730  1.2866  0.5990  0.8987
19217TIP3    H279067   5.079   0.365  15.784  0.4742 -0.6919 -0.8011
19218TIP3   OH279068   3.545   2.277   4.047 -0.1490 -0.0442 -1.2588
19218TIP3    H179069   3.516   2.220   4.118  1.1997  1.6908  0.8089
19218TIP3    H279070   3.612   2.226   4.001  0.3675 -0.5070 -0.0369
19219TIP3   OH279071   6.478   6.740  12.246  0.4174 -0.3213  0.1144
19219TIP3    H179072   6.482   6.647  12.265 -0.6405 -0.5347 -0.6002
19219TIP3    H279073   6.489   6.782  12.331  0.8503 -1.0931  0.4484
19220TIP3   OH279074   2.166   5.387   3.319 -0.2966 -0.4809 -0.1450
19220TIP3    H179075   2.251   5.352   3.294 -0.3705 -1.0417  0.3598
19220TIP3    H279076   2.182   5.435   3.400  0.0545  1.8337 -1.4937
19221TIP3   OH279077   0.711   6.099   3.466 -0.7887  0.5145 -0.1360
19221TIP3    H179078   0.673   6.168   3.412 -2.9455  0.0084  0.6227
19221TIP3    H279079   0.702   6.131   3.556 -1.0379 -0.3867  0.1707
19222TIP3   OH279080   1.270   3.140   0.952  0.1695 -0.2641 -0.0971
19222TIP3    H179081   1.271   3.045   0.939 -3.2723 -0.7048  1.7088
19222TIP3    H279082   1.203   3.172   0.891  1.5966  1.1261 -1.0038
19223TIP3   OH279083   0.163   1.667  11.010  0.0412  0.0184 -0.3549
19223TIP3    H179084   0.158   1.741  11.071  0.7176 -0.3281  0.1421
19223TIP3    H279085   0.142   1.704  10.925 -1.5086  0.4099  0.1599
19224TIP3   OH279086   2.396   0.986  12.090  0.0050 -0.4079 -0.5681
19224TIP3    H179087   2.362   1.075  12.074  0.3934 -0.1215  0.1705
19224TIP3    H279088   2.458   0.997  12.161  0.9044 -1.0924 -1.2313
19225TIP3   OH279089   3.968   1.956  17.142 -0.1296  0.4138  0.1468
19225TIP3    H179090   3.996   2.042  17.112  0.4865 -0.5055 -2.1344
19225TIP3    H279091   3.885   1.941  17.097 -1.2645  0.5677  2.0719
19226TIP3   OH279092   3.717   5.883   2.391  0.7811  0.5636 -0.1366
19226TIP3    H179093   3.796   5.870   2.338 -0.9038  0.1744 -2.7529
19226TIP3    H279094   3.653   5.918   2.329 -1.4814 -0.3376  1.5622
19227TIP3   OH279095   5.262   5.278   4.006 -0.9096 -0.1813 -0.2566
19227TIP3    H179096   5.207   5.278   4.084 -1.2331 -1.4428 -0.4507
19227TIP3    H279097   5.215   5.221   3.944  0.7544 -1.5916 -0.3041
19228TIP3   OH279098   0.813   2.948   1.782  0.1717  0.1333  0.0469
19228TIP3    H179099   0.743   3.012   1.798  0.9407  1.0519 -0.2091
19228TIP3    H279100   0.894   2.998   1.791  0.7936 -0.8117 -0.1697
19229TIP3   OH279101   3.313   2.026   5.444 -0.5540  0.2177  0.2700
19229TIP3    H179102   3.327   2.118   5.463 -1.0971  0.3592  0.0088
19229TIP3    H279103   3.310   1.983   5.530  5.3406 -0.5183  0.5220
19230TIP3   OH279104   6.753   2.079   2.540  0.2120  0.3222 -0.1332
19230TIP3    H179105   6.695   2.054   2.612  0.4478 -0.1813 -0.1159
19230TIP3    H279106   6.744   2.174   2.534 -1.3448  0.1535 -0.7532
19231TIP3   OH279107   3.144   6.081  12.604 -0.0274  0.2432  0.3949
19231TIP3    H179108   3.190   6.086  12.520  0.1702 -0.3462  0.4584
19231TIP3    H279109   3.126   5.987  12.616 -1.3834  0.4740  0.3055
19232TIP3   OH279110   3.930   3.546  14.017  0.0308  0.3063  0.1140
19232TIP3    H179111   3.944   3.464  13.972  1.2647  1.1086 -1.0361
19232TIP3    H279112   3.995   3.546  14.088  0.3380  0.4741 -0.1644
19233TIP3   OH279113   0.356   1.185  12.307  0.1657  0.3210 -0.6044
19233TIP3    H179114   0.273   1.225  12.280 -1.3872 -1.2559  1.5651
19233TIP3    H279115   0.357   1.099  12.265  0.7086  0.3170 -0.5978
19234TIP3   OH279116   5.742   1.885  13.469  0.0737  0.5188 -0.3970
19234TIP3    H179117   5.714   1.904  13.558 -0.2401 -0.7892 -0.1947
19234TIP3    H279118   5.691   1.944  13.414  0.3235  1.3859  0.2867
19235TIP3   OH279119   4.454   4.536   2.375  0.3648  0.8771  0.4123
19235TIP3    H179120   4.378   4.480   2.362  0.4860  0.6069  0.8611
19235TIP3    H279121   4.419   4.613   2.421  0.3627  0.7455  0.6337
19236TIP3   OH279122   1.751   5.449   2.879  0.5477 -0.4922 -0.2450
19236TIP3    H179123   1.813   5.378   2.899  1.6261  0.6417  0.5822
19236TIP3    H279124   1.699   5.459   2.959 -0.6320 -1.3340 -0.8835
19237TIP3   OH279125   1.222   0.812  16.789  0.1631 -0.2445  0.2986
19237TIP3    H179126   1.230   0.876  16.859 -3.4603 -0.2045  0.8611
19237TIP3    H279127   1.128   0.798  16.779  0.6347 -2.4249 -2.6263
19238TIP3   OH279128   5.401   6.108  10.629 -0.0343 -0.5997  0.1416
19238TIP3    H179129   5.417   6.041  10.563  0.1124 -0.3696 -0.0593
19238TIP3    H279130   5.343   6.171  10.586 -2.6548 -2.0932  1.2779
19239TIP3   OH279131   6.420   4.181  16.176  0.7914  0.6493  0.7305
19239TIP3    H179132   6.431   4.197  16.270  0.1441  1.3932  0.6910
19239TIP3    H279133   6.474   4.249  16.135 -0.8714  1.9365  0.5667
19240TIP3   OH279134   5.075   3.171   3.185  0.0869  0.4327 -0.4745
19240TIP3    H179135   4.987   3.133   3.182  0.4612 -0.4776 -0.3012
19240TIP3    H279136   5.119   3.125   3.256  0.9790  0.2563 -1.1137
19241TIP3   OH279137   4.768   6.293   0.754  0.6768 -0.2609  0.6175
19241TIP3    H179138   4.751   6.200   0.736  0.3052  0.4462 -3.7463
19241TIP3    H279139   4.856   6.294   0.792  0.4470 -2.3671  1.3897
19242TIP3   OH279140   2.187   6.496   5.346  0.2909 -0.9141 -0.5276
19242TIP3    H179141   2.096   6.505   5.373  0.4412  1.5936 -0.6100
19242TIP3    H279142   2.224   6.429   5.405 -1.3280 -1.2396  0.1561
19243TIP3   OH279143   1.191   5.631   1.185 -0.5780  0.2599 -0.3152
19243TIP3    H179144   1.246   5.602   1.112  1.5392 -0.2358  1.3645
19243TIP3    H279145   1.214   5.723   1.197  1.0589 -0.3046  1.2876
19244TIP3   OH279146   1.858   6.405   1.959 -0.0778 -0.1065  0.2912
19244TIP3    H179147   1.908   6.476   2.000  0.1993  1.3586 -2.3779
19244TIP3    H279148   1.920   6.365   1.898 -1.4363  0.2470 -1.4038
19245TIP3   OH279149   0.550   1.070   4.698 -0.3777 -0.0602  0.1376
19245TIP3    H179150   0.477   1.009   4.682  0.1276 -0.6244 -0.0385
19245TIP3    H279151   0.626   1.013   4.711  0.1579  0.5417 -0.3263
19246TIP3   OH279152   2.883   6.179   0.608 -0.2247  0.5632 -0.4849
19246TIP3    H179153   2.868   6.119   0.682  0.0913  0.4053 -0.5496
19246TIP3    H279154   2.801   6.229   0.602 -0.0840  0.9047  0.2718
19247TIP3   OH279155   5.566   1.923  12.097  0.4389 -0.6103 -0.1214
19247TIP3    H179156   5.530   1.834  12.094 -0.3356 -0.2770 -1.2969
19247TIP3    H279157   5.491   1.980  12.080  0.8156  0.3141  1.1692
19248TIP3   OH279158   4.394   5.405  12.098  0.1076 -0.1829 -0.5642
19248TIP3    H179159   4.450   5.363  12.031  0.9570  0.5789 -0.3576
19248TIP3    H279160   4.451   5.412  12.175  0.5461  2.6818 -1.0331
19249TIP3   OH279161   5.908   6.227  11.300 -0.0256 -0.2595 -0.5603
19249TIP3    H179162   5.970   6.218  11.229 -0.7044  1.3086 -1.3941
19249TIP3    H279163   5.905   6.321  11.319 -0.8780 -0.4858  0.6088
19250TIP3   OH279164   3.145   6.439   2.514 -0.5071  0.4805 -0.6478
19250TIP3    H179165   3.172   6.352   2.543  0.1183  1.0641  0.6047
19250TIP3    H279166   3.109   6.425   2.426 -3.0920 -1.4905  0.5926
19251TIP3   OH279167   1.044   1.112   1.635  0.0586 -0.9831 -0.0412
19251TIP3    H179168   1.067   1.041   1.695  3.4959  1.2315  1.5589
19251TIP3    H279169   1.047   1.191   1.689 -2.3459  0.6034 -2.0106
19252TIP3   OH279170   1.449   3.769   0.760  0.2682 -0.0605  0.4469
19252TIP3    H179171   1.529   3.814   0.790  0.5664 -0.4291  0.2081
19252TIP3    H279172   1.384   3.789   0.828  0.5237  0.3529  0.5777
19253TIP3   OH279173   3.926   5.542   3.372  0.1147  0.2655 -0.3168
19253TIP3    H179174   3.880   5.579   3.447  1.9749  2.4569 -0.1675
19253TIP3    H279175   3.856   5.510   3.314 -1.4085  0.1533  1.4954
19254TIP3   OH279176   2.122   3.150  13.673 -0.1955  0.0986 -0.2674
19254TIP3    H179177   2.189   3.195  13.725 -1.1790  1.1922  0.0641
19254TIP3    H279178   2.170   3.116  13.597  0.5131  2.0197 -0.7227
19255TIP3   OH279179   1.421   5.184  12.462 -0.2277  0.0393 -0.2210
19255TIP3    H179180   1.504   5.155  12.424 -1.0414 -1.1219 -1.1748
19255TIP3    H279181   1.376   5.228  12.390 -0.5736  0.3679  0.1967
19256TIP3   OH279182   2.208   4.374   1.009 -0.0125 -0.3554 -0.5970
19256TIP3    H179183   2.138   4.411   0.955  0.7665  0.7678 -0.8765
19256TIP3    H279184   2.257   4.317   0.949  0.8965  0.9477 -1.1527
19257TIP3   OH279185   3.128   4.140   2.021  0.5184  0.0081 -0.2981
19257TIP3    H179186   3.054   4.079   2.013  1.0391 -0.3969 -2.6146
19257TIP3    H279187   3.168   4.140   1.935  3.0791  0.4513  0.8099
19258TIP3   OH279188   4.257   5.266  14.566 -0.4199 -0.1163 -0.2569
19258TIP3    H179189   4.228   5.191  14.513  0.0516  0.0389 -0.7322
19258TIP3    H279190   4.348   5.246  14.589 -0.1059  0.5885 -0.8805
19259TIP3   OH279191   4.900   3.775   3.915 -0.1102 -0.1802 -0.0855
19259TIP3    H179192   4.821   3.827   3.929 -0.2993 -0.6250  0.4973
19259TIP3    H279193   4.922   3.739   4.001  1.8948  1.5711  0.2051
19260TIP3   OH279194   5.383   0.784   5.435 -0.0968  0.3019 -0.1680
19260TIP3    H179195   5.351   0.791   5.345 -2.0088 -0.3254  0.4179
19260TIP3    H279196   5.392   0.690   5.450  0.8427  0.4296  0.0969
19261TIP3   OH279197   1.043   1.908  16.854 -0.1855 -0.1312  0.2694
19261TIP3    H179198   1.132   1.925  16.884  0.0908  0.2109 -0.6964
19261TIP3    H279199   1.029   1.972  16.783 -1.3467  0.1110  0.6878
19262TIP3   OH279200   1.528   3.411   4.832 -0.0233  0.3766  0.4430
19262TIP3    H179201   1.592   3.356   4.877 -0.8829 -1.1863 -0.1690
19262TIP3    H279202   1.573   3.439   4.752 -0.1815 -1.0150 -0.1650
19263TIP3   OH279203   0.963   1.147   4.930 -0.4177  0.5175 -0.0594
19263TIP3    H179204   1.009   1.072   4.893 -1.8732 -0.5053  0.1120
19263TIP3    H279205   1.032   1.209   4.952  0.7133 -0.1121 -1.6521
19264TIP3   OH279206   1.347   0.727   1.530  0.0533 -0.2068  0.3562
19264TIP3    H179207   1.435   0.755   1.502 -0.2020  0.1320 -0.1174
19264TIP3    H279208   1.291   0.803   1.515  0.1586  0.5903  3.3380
19265TIP3   OH279209   4.001   1.982   0.524 -0.2073  0.6709 -0.0256
19265TIP3    H179210   4.006   1.904   0.469  0.2884 -0.9327  2.1329
19265TIP3    H279211   3.909   1.986   0.551  0.3252 -1.1211  2.3631
19266TIP3   OH279212   0.821   0.447   2.398  0.1405 -0.1695  0.8503
19266TIP3    H179213   0.853   0.358   2.383 -0.3846 -0.3321  0.6826
19266TIP3    H279214   0.878   0.502   2.344 -2.1334 -0.7886 -2.4939
19267TIP3   OH279215   4.102   3.826   0.345  0.3493  0.4962 -0.2772
19267TIP3    H179216   4.150   3.807   0.426  0.5440  2.1039  0.0070
19267TIP3    H279217   4.143   3.770   0.279  1.5837  0.7111  0.2915
19268TIP3   OH279218   2.389   5.944   3.350 -0.3009  0.4410  0.7548
19268TIP3    H179219   2.468   5.996   3.363 -0.7228  1.2658  0.1006
19268TIP3    H279220   2.421   5.857   3.325  0.4227  1.2369 -1.2850
19269TIP3   OH279221   0.412   3.212  16.994 -0.1048 -0.2339  0.1223
19269TIP3    H179222   0.360   3.155  17.051 -0.2961 -0.3426 -0.1584
19269TIP3    H279223   0.497   3.219  17.037 -0.8957  1.4128  1.5464
19270TIP3   OH279224   3.636   5.805   5.794  0.1305 -0.5407 -0.1196
19270TIP3    H179225   3.659   5.888   5.837  2.0816 -0.7913 -0.6324
19270TIP3    H279226   3.713   5.750   5.805 -0.7338 -1.9094 -0.7643
19271TIP3   OH279227   4.298   3.371  13.463 -0.2664 -0.3925 -0.1173
19271TIP3    H179228   4.381   3.345  13.423  0.5996 -0.5566  1.6959
19271TIP3    H279229   4.280   3.458  13.428  0.0108 -0.8407 -1.4520
19272TIP3   OH279230   4.560   3.365  16.231 -0.4591 -0.3777 -0.3818
19272TIP3    H179231   4.564   3.337  16.140  3.0667 -0.1849 -0.4446
19272TIP3    H279232   4.595   3.292  16.281 -0.0159  0.4111  0.5104
19273TIP3   OH279233   6.092   1.735   1.534 -0.0740  0.5090  0.0143
19273TIP3    H179234   5.999   1.743   1.515  0.0066  0.0951 -0.5919
19273TIP3    H279235   6.096   1.713   1.627 -0.7690 -2.7811 -0.6081
19274TIP3   OH279236   3.801   5.018  15.596  0.1720 -0.4077  0.3107
19274TIP3    H179237   3.774   5.059  15.513 -1.1625 -1.0928  0.3891
19274TIP3    H279238   3.756   4.934  15.597  0.2011 -0.4270  1.7292
19275TIP3   OH279239   0.652   2.803  16.309  0.0827  0.1157 -0.4743
19275TIP3    H179240   0.577   2.861  16.307  0.6120  0.8279 -0.0696
19275TIP3    H279241   0.656   2.765  16.221 -0.5389  0.3345 -0.5994
19276TIP3   OH279242   2.379   0.068   5.396  0.1774  0.0431  0.1138
19276TIP3    H179243   2.458   0.016   5.414  0.4376  0.5824  0.5506
19276TIP3    H279244   2.410   0.142   5.344  0.1040  0.6882  0.9636
19277TIP3   OH279245   4.648   5.218   0.658 -0.2547  0.0473 -0.3886
19277TIP3    H179246   4.651   5.308   0.691 -0.9937 -0.6215  1.6647
19277TIP3    H279247   4.571   5.215   0.602  0.6199  1.0439 -1.6927
19278TIP3   OH279248   0.260   0.377   3.196 -0.2280  0.1362 -0.2611
19278TIP3    H179249   0.338   0.375   3.250 -1.2302 -2.6348  1.2733
19278TIP3    H279250   0.200   0.436   3.242 -0.1121 -0.0998  0.1949
19279TIP3   OH279251   4.345   2.278   4.471 -0.2938  0.2827 -0.9022
19279TIP3    H179252   4.423   2.325   4.441  0.2158  0.4638  0.6361
19279TIP3    H279253   4.341   2.295   4.565 -1.1342 -1.2607 -0.6224
19280TIP3   OH279254   6.346   1.997  11.268  1.0359 -0.5899 -0.0027
19280TIP3    H179255   6.356   2.092  11.256  1.5208 -0.8058 -1.6836
19280TIP3    H279256   6.266   1.987  11.319 -0.0924  0.6925 -1.4108
19281TIP3   OH279257   5.119   4.168  14.160 -0.0582  0.4778  0.0521
19281TIP3    H179258   5.205   4.138  14.188 -0.6936 -1.0889  0.4439
19281TIP3    H279259   5.134   4.208  14.075  1.1793  1.0545  0.5165
19282TIP3   OH279260   1.559   1.824  10.586  0.2424 -0.4751 -0.0542
19282TIP3    H179261   1.604   1.866  10.514 -1.0531  1.2547  0.0913
19282TIP3    H279262   1.603   1.857  10.665  0.9844 -1.5631  0.0162
19283TIP3   OH279263   1.001   6.678  13.473 -0.3016 -0.0084 -0.3707
19283TIP3    H179264   0.912   6.646  13.454 -0.2139 -0.6647  0.2587
19283TIP3    H279265   1.040   6.693  13.387 -0.3078 -1.7488 -0.7184
19284TIP3   OH279266   4.332   0.639  11.040 -0.5779 -0.4705 -0.4346
19284TIP3    H179267   4.330   0.716  10.983 -0.8297 -0.5395 -0.5204
19284TIP3    H279268   4.320   0.675  11.128  0.7643 -0.2679 -0.3159
19285TIP3   OH279269   5.656   3.622   1.533 -0.3069 -0.3836 -0.6872
19285TIP3    H179270   5.619   3.553   1.477  0.3591 -0.9895 -0.3977
19285TIP3    H279271   5.687   3.575   1.611 -1.0520  0.4282  0.1055
19286TIP3   OH279272   4.024   2.182  13.569 -0.6942 -0.3274 -0.6033
19286TIP3    H179273   3.953   2.174  13.633  1.2363 -0.3102  1.6463
19286TIP3    H279274   4.065   2.096  13.568 -0.2571 -0.1163 -1.3225
19287TIP3   OH279275   5.526   1.372   4.462 -0.3718 -0.5311 -0.0555
19287TIP3    H179276   5.545   1.406   4.549 -1.1840  2.0684 -0.8001
19287TIP3    H279277   5.579   1.425   4.403 -0.2065 -1.9204 -1.2125
19288TIP3   OH279278   1.792   2.958  11.267 -0.5216  0.1900  0.2719
19288TIP3    H179279   1.716   2.976  11.322 -0.4111  0.5083  0.3203
19288TIP3    H279280   1.795   3.030  11.204 -0.3070  0.1379  0.2199
19289TIP3   OH279281   6.147   2.959   4.990 -0.2840 -0.1915  0.9122
19289TIP3    H179282   6.164   3.016   5.065 -3.4556 -0.1947  1.7491
19289TIP3    H279283   6.173   3.012   4.914 -2.2326  2.0880  1.7190
19290TIP3   OH279284   3.259   5.244  14.666 -0.3015  0.1200 -0.0068
19290TIP3    H179285   3.315   5.168  14.681  0.1947  0.2620 -1.0517
19290TIP3    H279286   3.271   5.264  14.573  0.1046  1.8953  0.4001
19291TIP3   OH279287   6.581   0.712  12.912  0.2527 -0.3283 -0.0138
19291TIP3    H179288   6.559   0.730  12.821 -0.6842 -1.8831 -0.1206
19291TIP3    H279289   6.497   0.711  12.958  0.6792  0.0391  0.7902
19292TIP3   OH279290   1.598   0.335   1.883  0.0520  0.2246  0.2230
19292TIP3    H179291   1.581   0.256   1.831  0.1098  0.8225 -0.7440
19292TIP3    H279292   1.513   0.357   1.921 -0.0093 -0.1839  0.3303
19293TIP3   OH279293   3.413   5.378  14.375 -0.5309  0.5287 -0.2018
19293TIP3    H179294   3.415   5.292  14.333 -0.7555  0.6040 -0.3703
19293TIP3    H279295   3.455   5.365  14.460 -1.9471 -0.0927  0.4325
19294TIP3   OH279296   1.021   0.963  14.269 -0.2540  0.4138  0.2232
19294TIP3    H179297   1.028   0.897  14.338 -0.5144 -0.5925 -0.6872
19294TIP3    H279298   1.103   1.013  14.274  1.0432 -1.5373 -0.6354
19295TIP3   OH279299   5.487   6.639   5.614 -0.3074 -0.1056 -0.3419
19295TIP3    H179300   5.457   6.719   5.570  1.7479  0.5688 -0.6532
19295TIP3    H279301   5.461   6.568   5.555 -1.2052  0.4348 -0.6070
19296TIP3   OH279302   3.606   3.599   4.748 -0.1007 -0.5049 -0.7253
19296TIP3    H179303   3.613   3.520   4.695 -1.5789  0.0832 -1.8675
19296TIP3    H279304   3.529   3.644   4.714  1.2806  1.9721 -0.8136
19297TIP3   OH279305   3.522   0.015  10.729  0.2540 -0.0755  0.2792
19297TIP3    H179306   3.465   0.087  10.756  0.4229  0.1670  0.0029
19297TIP3    H279307   3.465  -0.061  10.725 -0.8057  0.7116 -2.9004
19298TIP3   OH279308   3.191   4.918  10.905  0.4730 -0.4061  0.1513
19298TIP3    H179309   3.223   5.007  10.892  0.4433 -0.3715  0.3098
19298TIP3    H279310   3.267   4.870  10.938  0.0253  0.0090  1.8925
19299TIP3   OH279311   2.823   1.392   0.227 -0.2863  0.0153 -0.1545
19299TIP3    H179312   2.891   1.459   0.227 -1.1678  0.9370 -1.1086
19299TIP3    H279313   2.783   1.397   0.140 -1.4266 -0.6557  0.3046
19300TIP3   OH279314   1.965   5.217   0.933 -0.4854  0.3649 -0.4142
19300TIP3    H179315   2.033   5.277   0.964 -1.0499  0.4453  0.7126
19300TIP3    H279316   1.979   5.137   0.982  1.1130 -0.9902 -2.8751
19301TIP3   OH279317   3.327   4.421   3.954  0.0655  0.4923 -0.3449
19301TIP3    H179318   3.349   4.472   4.032 -1.0025  0.5380 -0.0626
19301TIP3    H279319   3.243   4.380   3.975  0.1362 -0.1103 -1.1827
19302TIP3   OH279320   0.531   5.603   1.496 -0.3669  0.0017  0.2136
19302TIP3    H179321   0.468   5.615   1.425 -0.0408 -2.4090 -0.5580
19302TIP3    H279322   0.614   5.637   1.461 -0.1637 -1.3482 -0.6756
19303TIP3   OH279323   1.004   0.373  15.589 -0.2297  0.5501  0.0079
19303TIP3    H179324   1.071   0.341  15.529 -1.3892 -1.3538 -0.3695
19303TIP3    H279325   0.922   0.341  15.552 -1.1629  1.1013  1.5163
19304TIP3   OH279326   1.544   5.158   2.894  0.6151  0.3967  0.2678
19304TIP3    H179327   1.570   5.102   2.821 -0.2780 -1.6582  1.4304
19304TIP3    H279328   1.625   5.178   2.939  0.7834 -2.3722  1.4051
19305TIP3   OH279329   3.481   5.218  11.959 -0.1692  0.3201 -0.1458
19305TIP3    H179330   3.554   5.280  11.962  0.5955 -0.5569  0.3151
19305TIP3    H279331   3.430   5.244  11.883  1.8282 -0.3281 -1.7925
19306TIP3   OH279332   2.143   6.078  16.993  0.4676  0.1404  0.1694
19306TIP3    H179333   2.127   6.015  17.063 -1.4554 -0.5807 -0.8526
19306TIP3    H279334   2.219   6.044  16.946  0.2726 -0.6820  0.4402
19307TIP3   OH279335   2.730   2.220   3.198 -0.0614 -0.5463  0.2360
19307TIP3    H179336   2.712   2.314   3.193  0.7363 -0.3677  0.5963
19307TIP3    H279337   2.746   2.202   3.290  2.2563 -0.5379 -0.1025
19308TIP3   OH279338   4.291   5.185   1.534  0.8030 -0.1630 -0.1762
19308TIP3    H179339   4.229   5.143   1.473  0.9873 -2.0969  0.8867
19308TIP3    H279340   4.371   5.133   1.526  1.1213  0.1195  1.0447
19309TIP3   OH279341   1.893   5.943  13.182  0.4234 -0.1454 -0.2127
19309TIP3    H179342   1.888   5.902  13.096 -1.2015 -0.6163  0.0554
19309TIP3    H279343   1.939   5.879  13.236  0.9787 -0.0792 -0.5991
19310TIP3   OH279344   3.574   2.254   5.128  1.0548  0.1852  0.1151
19310TIP3    H179345   3.528   2.269   5.046  0.2132 -1.9398  0.1533
19310TIP3    H279346   3.666   2.270   5.106  0.9039 -0.7884 -1.3799
19311TIP3   OH279347   6.671   1.773  12.902  0.1181 -1.0019 -0.4995
19311TIP3    H179348   6.735   1.808  12.965 -1.0148 -0.1938  0.2567
19311TIP3    H279349   6.657   1.682  12.930  0.5831 -1.0429 -0.3887
19312TIP3   OH279350   6.211   4.526  15.279 -0.2309 -0.3852 -0.0328
19312TIP3    H179351   6.177   4.453  15.331 -0.3923  0.0276  0.4473
19312TIP3    H279352   6.221   4.598  15.342 -4.2933  1.4728 -1.1400
19313TIP3   OH279353   0.856   1.783   0.738  0.4290 -0.0261  0.2441
19313TIP3    H179354   0.872   1.748   0.826 -0.3878 -0.3039  0.2909
19313TIP3    H279355   0.940   1.774   0.693  1.1762  1.1566  1.3355
19314TIP3   OH279356   1.712   5.111  16.422  0.2480 -0.8997 -0.5561
19314TIP3    H179357   1.748   5.081  16.338 -1.0486 -1.0728 -1.0718
19314TIP3    H279358   1.617   5.103  16.412 -0.0843  1.6747 -0.0710
19315TIP3   OH279359   0.819   5.577   0.542 -0.6372  0.2338  0.5517
19315TIP3    H179360   0.839   5.490   0.506 -1.8017 -0.2274  0.9523
19315TIP3    H279361   0.904   5.619   0.551 -0.0944 -0.6331 -0.2239
19316TIP3   OH279362   2.224   1.488  11.465  0.7250 -0.8098 -0.4948
19316TIP3    H179363   2.221   1.439  11.383 -2.2202 -1.0619 -0.3344
19316TIP3    H279364   2.242   1.422  11.532 -0.9461 -1.3710 -0.5430
19317TIP3   OH279365   5.354   0.294  12.595 -0.3181  0.3364  0.1575
19317TIP3    H179366   5.316   0.233  12.532 -1.0665  0.4318  0.5028
19317TIP3    H279367   5.366   0.243  12.674 -0.6171  0.5502  0.3407
19318TIP3   OH279368   1.920   2.144  12.176 -0.1466 -0.6823 -0.4977
19318TIP3    H179369   1.858   2.073  12.169  1.8655 -2.3755 -3.1665
19318TIP3    H279370   1.871   2.222  12.149 -1.5681 -1.5798 -0.6011
19319TIP3   OH279371   3.632   0.992   2.643 -0.2298  0.1142 -0.2009
19319TIP3    H179372   3.668   0.967   2.558 -1.9926 -1.0472 -0.6708
19319TIP3    H279373   3.598   0.910   2.679 -0.6973  0.8272  1.0231
19320TIP3   OH279374   3.545   6.054   4.981  0.7723 -0.2926  0.1257
19320TIP3    H179375   3.585   6.050   4.894  1.7678  0.6947  0.5047
19320TIP3    H279376   3.618   6.078   5.039 -0.6048  3.1488  0.6346
19321TIP3   OH279377   0.184   4.656   2.541 -0.8133 -0.1411 -0.6700
19321TIP3    H179378   0.273   4.621   2.548 -0.5635  0.7468  1.2452
19321TIP3    H279379   0.132   4.582   2.510  0.2271 -1.3333  0.2985
19322TIP3   OH279380   1.155   1.491  16.133 -0.1012 -0.2760 -0.1899
19322TIP3    H179381   1.092   1.562  16.142 -1.9713 -1.9627  0.8418
19322TIP3    H279382   1.223   1.511  16.197 -1.9790 -0.7376  2.0500
19323TIP3   OH279383   4.156   6.090   5.791  0.1062  0.0066 -0.7485
19323TIP3    H179384   4.243   6.051   5.777 -0.5806 -1.4684 -1.0759
19323TIP3    H279385   4.134   6.128   5.706  2.0281  3.9521  0.2724
19324TIP3   OH279386   2.518   5.010   4.601 -0.0688  0.2519  0.6305
19324TIP3    H179387   2.439   4.981   4.646 -0.0458 -1.5805 -0.4131
19324TIP3    H279388   2.486   5.045   4.517  0.1672  0.1145  0.4825
19325TIP3   OH279389   4.086   4.520  16.959 -0.4113 -0.2726  0.1122
19325TIP3    H179390   4.067   4.489  17.048  2.1295  1.0275  1.2158
19325TIP3    H279391   4.162   4.577  16.970 -0.0067 -0.1005 -2.9390
19326TIP3   OH279392   1.967   5.821  15.255  0.2251 -0.1183  0.0446
19326TIP3    H179393   2.018   5.778  15.323  3.7766  1.2865 -1.5067
19326TIP3    H279394   1.982   5.915  15.269 -0.0465  0.2498 -1.8371
19327TIP3   OH279395   2.405   2.683   5.095  0.2935  0.2866  0.5226
19327TIP3    H179396   2.378   2.771   5.071  0.3090 -0.3033 -1.8886
19327TIP3    H279397   2.501   2.687   5.098  0.2998  0.3259  0.2796
19328TIP3   OH279398   3.233   4.635   6.769 -0.1682  0.1593  0.1613
19328TIP3    H179399   3.262   4.709   6.822 -1.1218 -0.0354  0.9787
19328TIP3    H279400   3.287   4.640   6.690  0.9837  0.7115  0.9481
19329TIP3   OH279401   6.694   1.174   0.837  0.7116 -0.3387 -0.3739
19329TIP3    H179402   6.614   1.188   0.787  0.9939 -1.3557 -1.1381
19329TIP3    H279403   6.701   1.079   0.845  1.6877 -0.2524 -0.0618
19330TIP3   OH279404   4.024   0.110  15.833  0.6661  0.8718  0.0784
19330TIP3    H179405   4.002   0.178  15.896  1.9584 -0.4116  2.0220
19330TIP3    H279406   4.107   0.139  15.795  1.1736  0.4563  0.8451
19331TIP3   OH279407   2.848   3.142   0.617 -0.0354  0.1150 -0.3190
19331TIP3    H179408   2.806   3.134   0.532 -2.6046 -0.1983  0.8755
19331TIP3    H279409   2.832   3.233   0.643  0.6230  0.1772 -0.1031
19332TIP3   OH279410   4.371   0.393  16.310  0.2879  0.7909  0.2550
19332TIP3    H179411   4.414   0.333  16.249  1.5559  1.7750  0.1276
19332TIP3    H279412   4.362   0.342  16.391  1.2847  0.3935  0.1303
19333TIP3   OH279413   0.948   4.074  13.831 -0.8613  0.0405  0.0008
19333TIP3    H179414   0.960   3.983  13.857  0.2818  0.7394  2.1305
19333TIP3    H279415   0.853   4.088  13.833 -0.9504 -0.5101  2.0580
19334TIP3   OH279416   3.349   4.214   5.204  0.7121  1.0984  0.2925
19334TIP3    H179417   3.278   4.272   5.230  0.9577  1.1066  0.9639
19334TIP3    H279418   3.368   4.163   5.283  0.7199  0.3329 -0.1921
19335TIP3   OH279419   1.327   0.548  12.631  0.3136 -0.0147  0.8399
19335TIP3    H179420   1.330   0.494  12.552  1.7380 -0.2477  1.0285
19335TIP3    H279421   1.290   0.631  12.602 -1.8529 -1.0094  0.5273
19336TIP3   OH279422   3.262   0.429   2.290  0.3452 -0.1223 -0.0249
19336TIP3    H179423   3.322   0.368   2.248  0.9543  0.8582 -0.5993
19336TIP3    H279424   3.189   0.374   2.320  0.0854 -0.9033 -1.9857
19337TIP3   OH279425   4.140   2.301  15.826  0.5676  0.0195  0.1647
19337TIP3    H179426   4.057   2.285  15.870 -0.2072 -1.4955 -1.6917
19337TIP3    H279427   4.185   2.365  15.881 -1.1876 -0.2292  1.9882
19338TIP3   OH279428   4.354   1.024   5.141 -0.0452  0.0016  0.2390
19338TIP3    H179429   4.269   1.067   5.132 -0.4961 -0.8040  0.6139
19338TIP3    H279430   4.417   1.096   5.136 -0.6381  0.4547 -1.6742
19339TIP3   OH279431   6.323   4.969  13.523 -0.2790  0.3515 -0.3206
19339TIP3    H179432   6.416   4.969  13.545 -0.4145  3.0175  0.5272
19339TIP3    H279433   6.278   4.951  13.605 -0.5607  0.5172 -0.4372
19340TIP3   OH279434   4.829   4.823   3.887 -0.2988 -0.2693 -0.2877
19340TIP3    H179435   4.812   4.909   3.925 -0.5921 -0.3835 -0.1502
19340TIP3    H279436   4.884   4.779   3.952  0.2502 -0.0182 -0.5779
19341TIP3   OH279437   0.678   1.752   1.016  0.0552 -0.1002  0.6215
19341TIP3    H179438   0.760   1.705   1.029  1.1799  0.5458 -3.0700
19341TIP3    H279439   0.617   1.686   0.982  0.2354  0.1831 -0.2603
19342TIP3   OH279440   3.810   3.953  11.763  0.2730 -0.0476 -0.5416
19342TIP3    H179441   3.803   3.977  11.670  3.1488 -0.1995 -0.8734
19342TIP3    H279442   3.882   3.890  11.766  0.5880  0.3411  1.8652
19343TIP3   OH279443   2.096   5.193  16.774 -0.8844 -0.2043  0.7956
19343TIP3    H179444   2.118   5.113  16.822  1.8256  0.2682  0.4878
19343TIP3    H279445   2.155   5.260  16.810 -0.8095  0.8517 -1.1673
19344TIP3   OH279446   4.829   2.842   4.704 -0.5908  0.0023 -0.2460
19344TIP3    H179447   4.775   2.853   4.626 -1.2939 -0.8074  0.1209
19344TIP3    H279448   4.814   2.752   4.731 -0.3164  0.2646  0.8043
19345TIP3   OH279449   1.059   5.036   1.873 -0.1807 -0.2083 -0.7860
19345TIP3    H179450   1.148   5.069   1.861 -0.6672  1.5782  0.2082
19345TIP3    H279451   1.008   5.113   1.897 -1.6666 -1.4910  0.3324
19346TIP3   OH279452   2.209   0.762   5.966 -0.2866 -0.1067 -0.3501
19346TIP3    H179453   2.154   0.766   6.044  1.5490 -2.1329  1.1717
19346TIP3    H279454   2.149   0.781   5.894 -2.5946 -0.5686  1.3208
19347TIP3   OH279455   6.602   4.277   1.557  0.1325  0.7317  0.4734
19347TIP3    H179456   6.533   4.250   1.495 -1.9748 -0.1811  3.0232
19347TIP3    H279457   6.572   4.361   1.592  0.2645  0.3144  1.6325
19348TIP3   OH279458   1.039   2.580   0.805 -0.0893  0.3899 -0.8937
19348TIP3    H179459   0.981   2.508   0.780 -1.2686  0.6831  0.7883
19348TIP3    H279460   1.054   2.567   0.899 -0.0602  2.1447 -0.6257
19349TIP3   OH279461   1.273   0.825  13.937  0.9423 -0.0786  0.4659
19349TIP3    H179462   1.352   0.792  13.979  0.4236 -1.4877  0.3964
19349TIP3    H279463   1.263   0.771  13.859 -0.0343  0.1122  0.4402
19350TIP3   OH279464   1.692   3.565   0.747 -0.7612  0.5012 -0.2558
19350TIP3    H179465   1.686   3.623   0.823 -0.8152 -0.7381  0.7007
19350TIP3    H279466   1.613   3.512   0.751  0.4580 -1.3631  0.3257
19351TIP3   OH279467   1.144   4.456   2.806 -0.2257 -0.1777  0.6872
19351TIP3    H179468   1.181   4.411   2.730 -2.2095  0.5714 -0.7978
19351TIP3    H279469   1.141   4.389   2.875 -0.0093 -1.3559 -0.4201
19352TIP3   OH279470   4.758   2.310   1.155 -0.1143  0.0090  0.1099
19352TIP3    H179471   4.666   2.319   1.133  0.3773  2.0813 -1.4175
19352TIP3    H279472   4.767   2.356   1.239 -0.6369 -1.1456  0.8112
19353TIP3   OH279473   2.448   0.147   3.815  0.2720  0.3924  0.2938
19353TIP3    H179474   2.521   0.105   3.860 -0.2426 -0.5375  0.2953
19353TIP3    H279475   2.475   0.238   3.804  1.5728 -0.0139 -0.0269
19354TIP3   OH279476   1.714   5.278  14.657  0.3161  0.2791 -0.1076
19354TIP3    H179477   1.786   5.235  14.702 -0.5881  0.7867  1.9813
19354TIP3    H279478   1.678   5.212  14.598  1.8366 -0.2852 -0.4244
19355TIP3   OH279479   0.451   0.486  16.755  0.6729 -0.3112 -0.2945
19355TIP3    H179480   0.357   0.471  16.752  0.5280  0.4846 -0.0052
19355TIP3    H279481   0.488   0.404  16.788 -0.0330 -0.2045  0.8115
19356TIP3   OH279482   0.523   3.846   0.345  0.0539 -0.2580  0.7176
19356TIP3    H179483   0.546   3.777   0.407 -0.8562 -0.5906  0.6996
19356TIP3    H279484   0.435   3.824   0.316 -0.0795  0.6783  0.3787
19357TIP3   OH279485   3.314   2.339   2.614  0.8521  0.4683  0.2386
19357TIP3    H179486   3.268   2.256   2.605 -0.6842  1.4033 -1.3991
19357TIP3    H279487   3.272   2.382   2.688  0.2971  0.5658 -0.1256
19358TIP3   OH279488   5.884   6.458   5.764 -0.5067  0.0555 -0.3539
19358TIP3    H179489   5.835   6.431   5.841  0.8250 -0.5064  0.3202
19358TIP3    H279490   5.830   6.430   5.690 -0.9797 -0.9625  0.3654
19359TIP3   OH279491   4.719   4.965   2.267  0.0659  0.3034  0.2784
19359TIP3    H179492   4.729   4.882   2.220  1.7699 -0.0231  1.1143
19359TIP3    H279493   4.662   4.943   2.341  0.2537 -0.0648  0.3209
19360TIP3   OH279494   3.371   0.183   5.688 -0.2389 -0.1434 -0.3119
19360TIP3    H179495   3.325   0.266   5.678 -1.0649 -0.6724 -1.0595
19360TIP3    H279496   3.368   0.143   5.601  2.2562  0.0889 -0.5875
19361TIP3   OH279497   4.400   0.460   0.928 -0.0516  0.4442  0.4399
19361TIP3    H179498   4.355   0.526   0.980  0.7564  1.8049 -0.5011
19361TIP3    H279499   4.450   0.511   0.864  1.1162 -1.0734  0.0944
19362TIP3   OH279500   2.880   5.349   1.112  0.1998 -0.1338 -0.0088
19362TIP3    H179501   2.816   5.305   1.056 -0.1537 -1.5297  1.4204
19362TIP3    H279502   2.836   5.359   1.196  1.0869  0.9443  0.3502
19363TIP3   OH279503   5.900   0.558  13.456 -0.1981  0.4645 -0.2324
19363TIP3    H179504   5.974   0.539  13.514  0.3328  3.1224  0.0886
19363TIP3    H279505   5.938   0.560  13.368 -0.4445 -0.7861 -0.3787
19364TIP3   OH279506   5.568   4.069  12.076 -0.3252 -0.0428  0.6740
19364TIP3    H179507   5.489   4.102  12.120 -0.7497  0.4559 -0.4342
19364TIP3    H279508   5.536   4.032  11.994  0.6721  0.9001 -0.1630
19365TIP3   OH279509   4.592   4.254   4.960  0.2703  0.1297 -0.1776
19365TIP3    H179510   4.537   4.264   4.883 -1.4870 -0.3709  0.9588
19365TIP3    H279511   4.575   4.332   5.013  0.0077 -0.4128  0.5606
19366TIP3   OH279512   0.914   0.747  15.495 -0.0276  0.3212 -0.5117
19366TIP3    H179513   0.850   0.795  15.442 -1.2284  0.2829  0.8396
19366TIP3    H279514   0.868   0.729  15.577  2.0708  1.2009  0.9406
19367TIP3   OH279515   4.617   6.325  14.768  0.4530 -0.5429  0.4086
19367TIP3    H179516   4.614   6.276  14.850  1.5662  0.3638  1.0170
19367TIP3    H279517   4.590   6.261  14.702 -1.0942 -1.1180  1.5285
19368TIP3   OH279518   1.815   0.301  14.164  0.4184 -0.2355 -0.2181
19368TIP3    H179519   1.761   0.352  14.224 -1.7205 -0.8048 -1.5321
19368TIP3    H279520   1.841   0.363  14.095 -1.2702 -0.5975 -1.2398
19369TIP3   OH279521   1.830   5.285   1.203 -0.7305  0.1429 -0.1589
19369TIP3    H179522   1.824   5.215   1.268 -0.2477  0.1539 -0.1030
19369TIP3    H279523   1.881   5.247   1.131 -0.9343  0.2559 -0.3654
19370TIP3   OH279524   3.533   5.196  13.954 -0.0292 -0.4908  0.1891
19370TIP3    H179525   3.602   5.145  13.910 -0.3450 -1.0795  0.3637
19370TIP3    H279526   3.569   5.285  13.960 -0.6446  0.0827 -2.8268
19371TIP3   OH279527   4.906   5.079  13.588  0.1331 -0.1305  0.2708
19371TIP3    H179528   4.830   5.120  13.629  0.8009  0.9610  0.4568
19371TIP3    H279529   4.913   5.123  13.503  0.6517 -0.1066  0.3244
19372TIP3   OH279530   1.780   1.021   3.161  0.8679  0.9427  0.3628
19372TIP3    H179531   1.816   1.105   3.133 -1.1345  1.4049 -1.0219
19372TIP3    H279532   1.835   0.956   3.119  1.8561  1.5487  0.6778
19373TIP3   OH279533   2.344   3.766   4.938  0.7017 -0.0773  0.2762
19373TIP3    H179534   2.358   3.738   5.028 -2.9545  2.4701  1.8711
19373TIP3    H279535   2.390   3.850   4.931 -0.7131  0.7408  0.5114
19374TIP3   OH279536   4.352   0.515   3.508  0.2044  0.5789 -0.2024
19374TIP3    H179537   4.324   0.495   3.419 -1.5019  0.1372  0.4016
19374TIP3    H279538   4.303   0.595   3.531  0.0815  0.2916  0.5770
19375TIP3   OH279539   2.697   6.342  15.744 -0.4346 -0.7513  0.3813
19375TIP3    H179540   2.676   6.430  15.775  1.5478 -0.0365 -0.1034
19375TIP3    H279541   2.616   6.310  15.706 -1.4187  0.5406  1.2780
19376TIP3   OH279542   1.506   2.646  15.099  0.0818 -0.5510 -0.0902
19376TIP3    H179543   1.538   2.721  15.050  0.9142 -1.4439 -0.9731
19376TIP3    H279544   1.416   2.669  15.123  0.4644  0.8799  0.0369
19377TIP3   OH279545   0.203   5.307  11.725  0.4487  0.3655  0.0336
19377TIP3    H179546   0.213   5.350  11.640  0.6696  1.5484  0.6250
19377TIP3    H279547   0.283   5.256  11.735  1.5242  2.0471  0.4983
19378TIP3   OH279548   6.086   2.180   6.121 -0.0807  0.0151 -0.0742
19378TIP3    H179549   6.044   2.114   6.065 -0.2345  0.9719 -1.1316
19378TIP3    H279550   6.086   2.142   6.208 -1.8790 -0.5977 -0.3111
19379TIP3   OH279551   1.829   3.258   5.036  0.0726  0.7052  0.9042
19379TIP3    H179552   1.778   3.247   4.956 -0.7531  0.5858  1.4238
19379TIP3    H279553   1.857   3.170   5.059  1.0209  0.8445  0.3039
19380TIP3   OH279554   2.196   0.711  12.213 -0.1867  0.9534 -0.3980
19380TIP3    H179555   2.267   0.758  12.257  1.0735 -2.0381  1.0720
19380TIP3    H279556   2.193   0.748  12.125  1.7466  2.6478  0.1915
19381TIP3   OH279557   4.186   3.651  15.537 -0.3938  0.1016 -0.1944
19381TIP3    H179558   4.160   3.680  15.450 -2.0284  1.9698  0.8132
19381TIP3    H279559   4.149   3.564  15.546  2.2043 -1.3385 -2.3113
19382TIP3   OH279560   2.598   5.220   2.965 -0.0567 -0.3618 -0.2926
19382TIP3    H179561   2.627   5.256   3.049  1.7050 -0.8723 -0.6350
19382TIP3    H279562   2.573   5.130   2.985 -0.1612 -0.3122 -0.2047
19383TIP3   OH279563   1.269   3.534  10.977 -0.1436 -0.4930  0.0593
19383TIP3    H179564   1.256   3.471  10.906  0.2358 -0.6851  0.1603
19383TIP3    H279565   1.363   3.537  10.990 -0.1613  0.0529  0.0976
19384TIP3   OH279566   0.323   3.426   5.033 -0.0299 -0.3060  0.3897
19384TIP3    H179567   0.381   3.440   5.108  0.5840  0.7714 -0.2603
19384TIP3    H279568   0.382   3.398   4.963 -0.2199  1.1110 -0.3676
19385TIP3   OH279569   0.842   3.671   0.356  0.4151 -0.0864 -0.6823
19385TIP3    H179570   0.778   3.632   0.297 -0.8131  0.7848  0.0123
19385TIP3    H279571   0.828   3.627   0.440 -1.4260  2.1245  0.2815
19386TIP3   OH279572   0.239   0.218  17.219 -0.1044  0.5908 -0.2709
19386TIP3    H179573   0.147   0.247  17.224 -0.3583 -0.0753 -0.8937
19386TIP3    H279574   0.233   0.123  17.214  0.5958  0.5848 -1.0529
19387TIP3   OH279575   1.625   6.275   2.247 -0.5624  0.6773 -0.3736
19387TIP3    H179576   1.611   6.255   2.340 -1.6830  0.8185 -0.4909
19387TIP3    H279577   1.709   6.318   2.244 -0.2038  0.0753  0.4933
19388TIP3   OH279578   6.531   4.153  15.033 -0.0155  0.3031  0.1641
19388TIP3    H179579   6.478   4.179  14.957 -0.1972  1.9622  0.8129
19388TIP3    H279580   6.470   4.155  15.107  0.6474  0.9297  0.7067
19389TIP3   OH279581   3.290   1.244  15.478  0.8907  0.4634 -0.1351
19389TIP3    H179582   3.291   1.339  15.484  0.8636  0.3874  1.5453
19389TIP3    H279583   3.293   1.214  15.569 -2.6265 -1.1308 -0.3861
19390TIP3   OH279584   0.639   0.918   2.254 -0.2224 -0.3083 -0.2355
19390TIP3    H179585   0.564   0.906   2.312 -0.6082 -1.5994 -0.9506
19390TIP3    H279586   0.687   0.836   2.260  0.1800 -0.1448 -1.1033
19391TIP3   OH279587   5.527   0.921   2.121 -0.4575  0.3790 -0.0139
19391TIP3    H179588   5.608   0.871   2.128  0.1781  1.5107  0.8852
19391TIP3    H279589   5.528   0.980   2.196 -1.8225  0.8443 -0.3294
19392TIP3   OH279590   0.138   0.814  15.174 -0.3467 -0.3049 -0.4070
19392TIP3    H179591   0.172   0.847  15.091  0.3528 -0.1104 -0.0522
19392TIP3    H279592   0.120   0.722  15.158 -1.7722  0.0809 -1.2427
19393TIP3   OH279593   2.195   2.151  16.401  0.6597 -0.4578 -0.0759
19393TIP3    H179594   2.249   2.218  16.444 -1.2768  0.5599  0.9189
19393TIP3    H279595   2.122   2.137  16.462 -0.0520 -1.9948 -1.2222
19394TIP3   OH279596   4.334   5.662  16.799  0.2437 -0.0789 -0.4017
19394TIP3    H179597   4.390   5.740  16.793 -0.2255  0.2780 -0.2026
19394TIP3    H279598   4.369   5.603  16.733  1.3726 -0.1881  0.2644
19395TIP3   OH279599   5.154   1.089  11.304 -0.6572 -0.1201 -0.1335
19395TIP3    H179600   5.164   1.066  11.212 -0.1098 -1.8932  0.3313
19395TIP3    H279601   5.062   1.112  11.314 -0.9561 -0.9670 -0.9022
19396TIP3   OH279602   6.527   6.211  15.625  0.3804  0.4021  0.4327
19396TIP3    H179603   6.435   6.192  15.645  0.7330 -0.8208  0.9690
19396TIP3    H279604   6.527   6.302  15.596 -0.8671  0.7029  1.3186
19397TIP3   OH279605   4.497   0.701   2.132  0.0097 -0.0850 -0.3371
19397TIP3    H179606   4.517   0.766   2.064  2.0346  0.5864  0.7994
19397TIP3    H279607   4.442   0.747   2.195 -1.9289 -0.7283 -1.4633
19398TIP3   OH279608   6.243   2.858   3.397  0.1523 -0.0461  0.1054
19398TIP3    H179609   6.255   2.844   3.491  1.0056  0.2798  0.0504
19398TIP3    H279610   6.158   2.901   3.390  0.4659  0.6965  0.8016
19399TIP3   OH279611   4.525   1.719   3.540  0.6773 -0.2645 -0.1972
19399TIP3    H179612   4.482   1.801   3.518  0.1224 -0.2328  0.9296
19399TIP3    H279613   4.593   1.709   3.474  0.4147  0.8377 -0.6535
19400TIP3   OH279614   4.656   1.384   1.089 -0.1280  0.4196  0.2511
19400TIP3    H179615   4.725   1.345   1.143 -1.3508 -0.3573  1.3259
19400TIP3    H279616   4.591   1.314   1.080 -0.9031  1.2113 -0.5093
19401TIP3   OH279617   1.812   3.461  15.634 -0.2099  0.4609 -0.0709
19401TIP3    H179618   1.864   3.456  15.715 -0.1278  0.4754 -0.1229
19401TIP3    H279619   1.734   3.408  15.653 -0.7477  1.4023  0.4345
19402TIP3   OH279620   0.821   0.707   2.216  0.1904  0.5665 -0.0618
19402TIP3    H179621   0.888   0.755   2.168  1.1886  0.2844  0.9902
19402TIP3    H279622   0.783   0.647   2.152  1.1383  0.5447 -0.6218
19403TIP3   OH279623   4.921   5.003   2.953 -0.0697  0.1841 -0.0357
19403TIP3    H179624   4.891   4.918   2.984 -2.5726 -0.3938 -3.4755
19403TIP3    H279625   5.007   4.987   2.916 -0.4740 -0.8541 -0.5539
19404TIP3   OH279626   1.739   2.254  12.559  0.2315  0.0954 -0.0284
19404TIP3    H179627   1.823   2.292  12.584 -0.5327  1.1359  0.9994
19404TIP3    H279628   1.679   2.277  12.630 -0.5716 -1.9769  0.0306
19405TIP3   OH279629   2.863   5.650   1.268  0.2442  0.2312 -0.7467
19405TIP3    H179630   2.936   5.604   1.224  1.2276  0.8048  0.2445
19405TIP3    H279631   2.895   5.668   1.356 -0.8076  1.2167 -0.5387
19406TIP3   OH279632   4.056   5.229   3.711  0.5892  0.2117 -0.0883
19406TIP3    H179633   4.064   5.190   3.624 -0.6935 -0.7859  0.2117
19406TIP3    H279634   4.008   5.310   3.695 -1.2347 -0.8310 -0.1353
19407TIP3   OH279635   3.632   0.453  11.128 -0.7819 -0.4161  0.0375
19407TIP3    H179636   3.727   0.457  11.119 -0.7290 -0.2847  0.6557
19407TIP3    H279637   3.616   0.393  11.200 -1.1834 -0.7095 -0.2879
19408TIP3   OH279638   0.606   0.787   6.292 -0.4466 -0.1707  0.0616
19408TIP3    H179639   0.646   0.870   6.266  0.7952 -0.7033  0.2328
19408TIP3    H279640   0.512   0.807   6.297 -0.2124  1.1193 -0.2703
19409TIP3   OH279641   2.234   1.465   5.784 -0.0700  0.0805  0.2990
19409TIP3    H179642   2.154   1.518   5.787 -0.7973 -1.0221  1.1586
19409TIP3    H279643   2.298   1.521   5.739 -1.4423  0.8084 -0.8246
19410TIP3   OH279644   6.778   5.696  13.802 -0.4202 -0.1118 -0.3593
19410TIP3    H179645   6.856   5.664  13.847 -0.5380  0.4830  0.2908
19410TIP3    H279646   6.812   5.744  13.726 -0.2111 -0.9492 -0.8018
19411TIP3   OH279647   5.715   1.863  13.749  0.6035  0.0637 -0.2474
19411TIP3    H179648   5.664   1.829  13.822 -0.4502  0.0371 -0.9598
19411TIP3    H279649   5.794   1.809  13.746 -0.0364 -0.9008 -0.0342
19412TIP3   OH279650   1.165   1.330   5.397  0.7830  0.2811 -0.0861
19412TIP3    H179651   1.091   1.331   5.458 -0.0033  4.7844 -0.8156
19412TIP3    H279652   1.127   1.300   5.315 -0.0629  1.6678 -0.2228
19413TIP3   OH279653   5.306   2.198   2.945  0.2333 -0.1055 -0.3824
19413TIP3    H179654   5.259   2.188   3.028 -0.9767 -0.9535 -1.1332
19413TIP3    H279655   5.397   2.209   2.970 -0.2120  0.4292  1.0856
19414TIP3   OH279656   5.203   6.095   6.474 -0.2030 -0.3393  0.8363
19414TIP3    H179657   5.275   6.106   6.537 -0.4538 -0.1815  1.1005
19414TIP3    H279658   5.225   6.153   6.402  0.7408 -1.4720  0.1807
19415TIP3   OH279659   1.365   6.641   1.680 -0.2738  0.5030 -0.4098
19415TIP3    H179660   1.384   6.632   1.773 -0.4397  1.7258 -0.2437
19415TIP3    H279661   1.404   6.563   1.640 -1.8872 -1.0410  0.8842
19416TIP3   OH279662   1.718   3.199   0.959 -0.2867 -0.5707 -0.5421
19416TIP3    H179663   1.765   3.237   0.885  1.1554  0.7991  1.0076
19416TIP3    H279664   1.635   3.246   0.962  0.2515  0.3916 -0.4325
19417TIP3   OH279665   1.699   2.006  17.078  0.4284 -0.0060 -0.4826
19417TIP3    H179666   1.614   1.968  17.098  0.6998 -0.2941  0.1552
19417TIP3    H279667   1.748   1.935  17.036  1.0888 -0.5367  1.1121
19418TIP3   OH279668   2.729   5.074  12.001  0.1819  0.3046 -0.0884
19418TIP3    H179669   2.751   5.126  11.923  1.2020 -0.7595 -0.5484
19418TIP3    H279670   2.634   5.068  11.999  0.1534  0.7457 -0.9566
19419TIP3   OH279671   4.699   4.698   0.464 -0.2237  0.5495  0.0961
19419TIP3    H179672   4.627   4.712   0.525 -0.1053 -0.4833  0.4989
19419TIP3    H279673   4.682   4.758   0.392 -1.8106 -0.0666 -0.0830
19420TIP3   OH279674   2.672   4.857  12.574  0.2544  0.3612  0.9264
19420TIP3    H179675   2.647   4.865  12.482  2.3870 -0.7057  0.2133
19420TIP3    H279676   2.600   4.808  12.614 -0.5836  0.6237 -0.2087
19421TIP3   OH279677   3.873   0.854   2.805 -0.4679 -0.2914 -0.4358
19421TIP3    H179678   3.819   0.780   2.776 -0.6384  0.0892 -1.0817
19421TIP3    H279679   3.864   0.852   2.901 -0.8587 -0.8134 -0.4737
19422TIP3   OH279680   4.748   3.097  13.618  0.1348 -0.2351 -0.2696
19422TIP3    H179681   4.826   3.151  13.618  0.9233 -1.3353 -1.0383
19422TIP3    H279682   4.741   3.064  13.708  0.3096  0.2043 -0.0934
19423TIP3   OH279683   1.794   2.056  14.111 -0.2340 -0.3252  0.1683
19423TIP3    H179684   1.778   1.993  14.182  0.0901  1.1875  1.6517
19423TIP3    H279685   1.885   2.083  14.123 -0.8298  1.6599  0.6663
19424TIP3   OH279686   5.647   2.111  12.674 -0.2133  0.0327 -0.0187
19424TIP3    H179687   5.618   2.120  12.583  0.6281  0.9868 -0.2084
19424TIP3    H279688   5.705   2.035  12.674  0.3519  0.4561 -0.4347
19425TIP3   OH279689   1.319   2.073  15.753  0.1964 -0.2059 -0.8542
19425TIP3    H179690   1.408   2.086  15.786 -0.4698 -0.0544  1.0014
19425TIP3    H279691   1.289   1.993  15.796 -1.5063  1.2210  0.7826
19426TIP3   OH279692   2.990   3.360   5.435 -0.6460  0.1058 -0.3614
19426TIP3    H179693   2.942   3.388   5.513  0.5331 -0.8346  0.7484
19426TIP3    H279694   2.966   3.268   5.425  1.3816 -0.5778  0.6211
19427TIP3   OH279695   0.429   4.815  15.165  0.6491 -0.2374 -0.9460
19427TIP3    H179696   0.437   4.721  15.151  1.4885 -0.3595  0.1921
19427TIP3    H279697   0.431   4.853  15.077 -1.5844 -1.3755 -1.5324
19428TIP3   OH279698   1.812   5.010  12.988  0.2692  0.2102  0.1796
19428TIP3    H179699   1.821   5.021  13.082 -1.4490 -2.9470  0.8572
19428TIP3    H279700   1.850   4.924  12.969 -0.9429  0.0039 -1.6853
19429TIP3   OH279701   0.351   6.057   6.394 -0.1441  0.2551  0.0642
19429TIP3    H179702   0.370   6.077   6.486 -0.5487  1.0520 -0.0137
19429TIP3    H279703   0.437   6.059   6.351 -0.2089  3.4154 -0.2041
19430TIP3   OH279704   2.314   4.046  12.802 -0.6555  0.0104  0.0992
19430TIP3    H179705   2.279   3.957  12.802 -0.8280  0.0736  0.8192
19430TIP3    H279706   2.239   4.101  12.779 -0.5701 -0.0162 -0.2556
19431TIP3   OH279707   0.298   0.224  11.132  0.0839 -0.8234 -0.0363
19431TIP3    H179708   0.360   0.170  11.180  0.1718  0.7524  1.7071
19431TIP3    H279709   0.212   0.188  11.156  0.1808 -0.9405  0.1381
19432TIP3   OH279710   2.724   3.172   3.398  0.1472  0.2501  0.3736
19432TIP3    H179711   2.797   3.221   3.434  0.2958 -0.3185  0.8691
19432TIP3    H279712   2.725   3.089   3.445 -0.5300  0.0489  0.0560
19433TIP3   OH279713   2.822   4.900   5.917 -0.0997 -0.0380 -0.0266
19433TIP3    H179714   2.778   4.882   5.834  1.6316 -1.3997 -0.7040
19433TIP3    H279715   2.758   4.875   5.983 -1.6233  1.3427 -0.8917
19434TIP3   OH279716   1.412   3.794  13.664 -0.2583  0.0276 -0.3453
19434TIP3    H179717   1.438   3.745  13.586 -0.7622 -1.3448  0.3157
19434TIP3    H279718   1.409   3.886  13.636  1.1741 -0.2563 -1.4938
19435TIP3   OH279719   1.790   5.954   3.434  0.8083 -0.3136  0.3655
19435TIP3    H179720   1.735   6.011   3.380 -1.1625 -2.4485 -0.0313
19435TIP3    H279721   1.788   5.994   3.521 -1.7249 -0.4653  0.4580
19436TIP3   OH279722   0.781   0.143  14.342  0.2158  0.1942 -0.8043
19436TIP3    H179723   0.869   0.123  14.373 -0.0502 -0.3084 -0.3536
19436TIP3    H279724   0.764   0.232  14.371 -0.1766 -0.3906  0.8803
19437TIP3   OH279725   0.996   5.012   3.990 -0.4193 -0.3656  0.9194
19437TIP3    H179726   1.008   5.107   3.989 -1.8611 -0.1438 -0.3833
19437TIP3    H279727   1.029   4.984   4.075  2.1649  0.9845  0.4658
19438TIP3   OH279728   2.428   3.291   0.279  0.4267  0.6453  0.3026
19438TIP3    H179729   2.439   3.322   0.368  0.7109 -1.2091  0.9526
19438TIP3    H279730   2.509   3.318   0.234  1.7639 -1.1576  1.4832
19439TIP3   OH279731   4.160   3.324   2.140 -0.4727  0.1047 -0.3414
19439TIP3    H179732   4.090   3.377   2.102  0.2382  1.2173 -0.1210
19439TIP3    H279733   4.212   3.295   2.065 -0.0329  0.9221 -0.3602
19440TIP3   OH279734   0.561   0.016  12.446 -0.5006  0.7523  0.2370
19440TIP3    H179735   0.582   0.071  12.370 -0.9188  1.2643  0.4901
19440TIP3    H279736   0.647  -0.004  12.484 -0.3610  1.6266  0.4178
19441TIP3   OH279737   2.925   2.573   0.348  0.0595  0.2052  0.1862
19441TIP3    H179738   3.011   2.589   0.308  0.6929  0.5885  1.6326
19441TIP3    H279739   2.925   2.479   0.366  0.0460  0.1492 -0.1018
19442TIP3   OH279740   4.257   4.470   4.018 -0.1742 -0.2359 -0.2059
19442TIP3    H179741   4.268   4.556   3.977  0.3303  0.0721  0.5721
19442TIP3    H279742   4.288   4.408   3.951 -1.6790  0.0801 -1.2486
19443TIP3   OH279743   4.918   2.606  13.414 -0.5810 -0.3615 -0.3406
19443TIP3    H179744   4.908   2.630  13.506  0.9327 -1.3205  0.1007
19443TIP3    H279745   4.828   2.607  13.380 -1.2224 -0.4137  1.2419
19444TIP3   OH279746   1.908   4.835  13.597  0.0995 -0.2103 -0.1482
19444TIP3    H179747   1.980   4.867  13.652  0.3068  0.7555 -0.9706
19444TIP3    H279748   1.865   4.769  13.652  0.6013  0.3723  0.9934
19445TIP3   OH279749   5.588   6.591  15.916  0.0696 -0.4553  0.1628
19445TIP3    H179750   5.546   6.655  15.974  2.1646  0.2585  0.9795
19445TIP3    H279751   5.600   6.514  15.972  1.0808 -0.1551  0.3845
19446TIP3   OH279752   4.093   4.192   3.190 -0.0865 -0.0509  0.0357
19446TIP3    H179753   4.107   4.221   3.281  1.7410  0.8790 -0.4919
19446TIP3    H279754   4.051   4.267   3.148  2.6710  1.1739 -0.7917
19447TIP3   OH279755   3.577   4.625   2.933  0.3457  0.3603 -0.1273
19447TIP3    H179756   3.549   4.541   2.894  1.4192  0.3086 -0.8304
19447TIP3    H279757   3.587   4.683   2.858  1.8278  0.4532  0.1120
19448TIP3   OH279758   1.913   1.761   2.248  0.2948  0.0017 -0.6644
19448TIP3    H179759   1.939   1.838   2.198  0.1264 -0.3720 -1.3258
19448TIP3    H279760   1.849   1.795   2.311  0.3409  0.4314 -0.8424
19449TIP3   OH279761   4.832   2.584  12.898 -0.4694  0.2875 -0.0199
19449TIP3    H179762   4.743   2.615  12.912 -0.1878  0.9029  0.4277
19449TIP3    H279763   4.874   2.593  12.983 -0.0314 -0.1824 -0.1821
19450TIP3   OH279764   3.302   2.817  10.919  0.5982 -0.2287  0.2235
19450TIP3    H179765   3.390   2.828  10.954 -0.0179  3.8760  1.0384
19450TIP3    H279766   3.270   2.907  10.907 -3.5360 -1.5264  0.1253
19451TIP3   OH279767   1.662   1.513   3.569 -0.0892  0.2077 -0.2258
19451TIP3    H179768   1.719   1.535   3.643  0.4150  0.0369 -0.5585
19451TIP3    H279769   1.721   1.472   3.505 -0.8501 -1.3467  0.0311
19452TIP3   OH279770   1.093   5.186  14.168 -0.3191 -0.1945 -0.2843
19452TIP3    H179771   1.052   5.116  14.117  1.5056 -1.2184 -0.4579
19452TIP3    H279772   1.176   5.202  14.122 -0.0982  1.1348  0.5523
19453TIP3   OH279773   5.272   1.269   0.451 -0.1197 -0.4762 -0.1823
19453TIP3    H179774   5.298   1.235   0.365 -0.5730  1.2025 -1.0254
19453TIP3    H279775   5.290   1.197   0.512 -0.5519 -2.0061 -1.7834
19454TIP3   OH279776   1.200   0.136   4.743  0.0861  0.3047  0.1141
19454TIP3    H179777   1.130   0.186   4.786  1.0417  0.3035  1.7142
19454TIP3    H279778   1.259   0.111   4.813  0.8442 -1.1354 -0.9858
19455TIP3   OH279779   0.994   6.531  12.183 -0.5022 -0.0707  0.5962
19455TIP3    H179780   0.946   6.467  12.130 -0.2540  1.1906 -1.2579
19455TIP3    H279781   1.033   6.591  12.119  2.3196 -0.1547  2.0768
19456TIP3   OH279782   1.788   6.753  12.695 -0.2441 -0.2842  0.7467
19456TIP3    H179783   1.752   6.788  12.613  1.7270 -0.0909 -0.0974
19456TIP3    H279784   1.765   6.818  12.761 -0.7849  0.2042  0.0962
19457TIP3   OH279785   2.273   1.152   6.196  0.0672 -0.2316 -0.3705
19457TIP3    H179786   2.288   1.228   6.139  1.0525 -1.0692 -1.2615
19457TIP3    H279787   2.332   1.166   6.270  2.1453 -1.2893 -1.7174
19458TIP3   OH279788   2.236   2.845  11.212 -1.1354 -0.2124  0.1538
19458TIP3    H179789   2.326   2.872  11.196 -1.4967  1.6306  0.9481
19458TIP3    H279790   2.209   2.802  11.131  0.5626 -1.1945  0.0556
19459TIP3   OH279791   2.336   0.307   0.267  0.3622 -1.0855  0.0790
19459TIP3    H179792   2.288   0.266   0.195  0.6490 -1.1872 -0.0592
19459TIP3    H279793   2.335   0.240   0.337  0.2332 -1.0546  0.1075
19460TIP3   OH279794   2.938   4.938   2.594  0.5363 -0.0025  0.4125
19460TIP3    H179795   2.981   4.959   2.512 -1.0443 -1.3965 -0.8428
19460TIP3    H279796   2.971   4.851   2.617 -0.8938 -0.7311 -0.1406
19461TIP3   OH279797   6.422   0.739  10.907 -0.2166  0.4548 -0.1380
19461TIP3    H179798   6.365   0.763  10.833  0.1443 -0.1414 -0.6164
19461TIP3    H279799   6.466   0.659  10.878 -0.2816  0.0553  0.8422
19462TIP3   OH279800   3.389   3.238   0.108  0.0616 -0.2909 -0.0086
19462TIP3    H179801   3.415   3.321   0.148 -0.3109 -0.4981  0.6662
19462TIP3    H279802   3.326   3.201   0.168  1.8497 -2.1423  0.8525
19463TIP3   OH279803   1.148   4.266   2.483  0.3572 -0.3135  0.1458
19463TIP3    H179804   1.167   4.352   2.446 -1.9396 -0.0895 -0.6817
19463TIP3    H279805   1.210   4.207   2.440  0.7540  0.6535 -0.6451
19464TIP3   OH279806   2.239   0.651   1.785  0.0306  0.5845  0.3262
19464TIP3    H179807   2.164   0.679   1.733  1.9524  0.7255 -2.5728
19464TIP3    H279808   2.315   0.667   1.729  1.8694 -4.8450  0.6426
19465TIP3   OH279809   5.681   3.972   0.980  0.1254  0.1739 -0.5930
19465TIP3    H179810   5.661   3.917   0.905  0.3430 -1.4310  0.4676
19465TIP3    H279811   5.646   3.923   1.055  0.0625  1.6404  0.3695
19466TIP3   OH279812   0.401   0.261   4.616 -0.3837  0.6684 -0.2562
19466TIP3    H179813   0.479   0.316   4.613  0.3210 -0.0776  2.1609
19466TIP3    H279814   0.340   0.303   4.555  1.8095  1.3526 -2.1189
19467TIP3   OH279815   2.389   4.393  10.897 -0.0881  0.7910  0.3440
19467TIP3    H179816   2.348   4.314  10.861  1.8996  0.1920 -0.7492
19467TIP3    H279817   2.325   4.462  10.883 -0.6369 -0.0378 -1.4935
19468TIP3   OH279818   2.246   3.524  15.977  0.1487 -0.4299  0.5807
19468TIP3    H179819   2.200   3.537  16.061  1.1390  1.1863  0.9297
19468TIP3    H279820   2.326   3.478  16.001  2.0058  2.8141  1.1234
19469TIP3   OH279821   6.376   2.559   2.900 -0.8041 -0.5429 -0.5829
19469TIP3    H179822   6.454   2.564   2.846 -0.1270 -0.2281  0.3970
19469TIP3    H279823   6.343   2.649   2.901 -0.3863 -0.3892  0.1244
19470TIP3   OH279824   5.500   4.258  13.453  0.0549 -0.1632  0.5859
19470TIP3    H179825   5.544   4.315  13.516 -0.5782  0.6337  0.3331
19470TIP3    H279826   5.423   4.225  13.500  0.0517 -0.2622  0.5116
19471TIP3   OH279827   3.555   3.047   2.902 -0.3766  0.2077  0.0355
19471TIP3    H179828   3.509   2.969   2.870 -1.9262  0.6632  1.0865
19471TIP3    H279829   3.608   3.075   2.827 -0.4085 -1.3644 -0.6253
19472TIP3   OH279830   4.617   3.404  16.605  0.4727 -0.1570  0.2563
19472TIP3    H179831   4.659   3.451  16.534  0.9118 -0.4152  0.3435
19472TIP3    H279832   4.661   3.319  16.608 -1.2590 -1.1377 -0.8207
19473TIP3   OH279833   1.932   4.299  16.394  0.3662 -0.4756  0.1683
19473TIP3    H179834   1.838   4.282  16.386  0.3661 -1.0365  1.1802
19473TIP3    H279835   1.949   4.295  16.488  1.5181 -1.0320 -0.0439
19474TIP3   OH279836   1.227   3.013  11.863 -0.0278  0.2738 -0.4454
19474TIP3    H179837   1.215   3.047  11.774  1.3665  1.5643 -0.1894
19474TIP3    H279838   1.208   2.920  11.856 -0.8715  0.5181 -1.8863
19475TIP3   OH279839   0.203   0.704  15.520  0.3149 -0.6085  0.6648
19475TIP3    H179840   0.271   0.771  15.525 -0.8494  0.5904  0.8656
19475TIP3    H279841   0.251   0.622  15.513  1.7854  0.1662  1.2547
19476TIP3   OH279842   4.651   5.465   3.301 -0.5952 -0.0531  0.3221
19476TIP3    H179843   4.572   5.509   3.334 -0.5906 -0.5442  0.9941
19476TIP3    H279844   4.718   5.534   3.301 -1.3924  0.8067 -1.7883
19477TIP3   OH279845   6.722   2.530   2.414  0.1532 -0.7001 -0.7106
19477TIP3    H179846   6.707   2.457   2.474  1.1988 -0.6722 -0.4070
19477TIP3    H279847   6.807   2.566   2.439 -0.6048  1.0425 -0.4329
19478TIP3   OH279848   1.619   6.424  15.668  0.1369 -0.1834 -0.5098
19478TIP3    H179849   1.684   6.452  15.604  1.0469 -2.0780 -0.5054
19478TIP3    H279850   1.630   6.484  15.742  3.2934 -1.5568  0.2908
19479TIP3   OH279851   5.609   6.145  14.134 -0.2477  0.1148  0.2465
19479TIP3    H179852   5.661   6.222  14.156  0.7499 -0.8726  1.5280
19479TIP3    H279853   5.647   6.075  14.187 -1.5343 -1.1222 -0.4041
19480TIP3   OH279854   2.392   4.148   4.207  0.1479  0.2774 -0.1257
19480TIP3    H179855   2.313   4.196   4.232  0.6032  0.7563  0.4568
19480TIP3    H279856   2.409   4.090   4.281 -0.9596 -1.5757 -1.2477
19481TIP3   OH279857   0.204   5.540  16.258  0.4651  0.3904  1.2647
19481TIP3    H179858   0.220   5.457  16.213  0.3474  1.5106 -0.9945
19481TIP3    H279859   0.280   5.552  16.315  0.9495 -0.7895  0.8937
19482TIP3   OH279860   5.598   4.386  13.692  0.2273 -0.5014 -0.4862
19482TIP3    H179861   5.645   4.388  13.775  1.0809  1.2169 -0.9578
19482TIP3    H279862   5.513   4.426  13.712  0.8544  0.9820 -0.6309
19483TIP3   OH279863   3.795   0.369  15.751 -0.0529 -0.1050  0.6364
19483TIP3    H179864   3.758   0.392  15.836 -0.0598 -0.1571  0.6472
19483TIP3    H279865   3.778   0.275  15.742 -0.9695  0.0991  0.1233
19484TIP3   OH279866   5.761   2.161   5.487  0.6764  0.7315 -0.2447
19484TIP3    H179867   5.757   2.250   5.522 -0.2131  0.6279 -0.0400
19484TIP3    H279868   5.717   2.167   5.402  0.0301  0.3733  0.0540
19485TIP3   OH279869   3.658   5.361   1.673  0.2155 -0.3937  0.6294
19485TIP3    H179870   3.724   5.304   1.633 -0.3365 -0.0668 -0.8378
19485TIP3    H279871   3.600   5.384   1.600  0.2923  1.8710  1.2039
19486TIP3   OH279872   1.591   1.992  15.315 -0.0617 -0.0357 -0.6020
19486TIP3    H179873   1.499   1.987  15.339 -0.1071  0.5539 -0.6555
19486TIP3    H279874   1.637   1.998  15.399 -0.2009  1.6851 -0.6119
19487TIP3   OH279875   2.463   1.250   4.469 -0.5357  0.0130 -0.5012
19487TIP3    H179876   2.434   1.220   4.555  0.9738  1.1628  0.4598
19487TIP3    H279877   2.410   1.200   4.407 -3.2073  0.6921  1.0924
19488TIP3   OH279878   0.822   1.272  13.624 -0.1333 -0.0011 -0.0621
19488TIP3    H179879   0.884   1.248  13.555 -0.6304 -0.2575 -0.4228
19488TIP3    H279880   0.736   1.257  13.585 -0.5074  2.3905 -0.3527
19489TIP3   OH279881   5.885   4.218   4.565  0.0735  0.8468  0.1792
19489TIP3    H179882   5.844   4.250   4.646 -0.1566 -2.0933  1.3527
19489TIP3    H279883   5.811   4.205   4.505 -0.1904 -0.1049  0.6918
19490TIP3   OH279884   4.541   3.751  11.474  0.0878  0.5482 -0.2138
19490TIP3    H179885   4.481   3.776  11.405  0.8750  0.3986 -0.9643
19490TIP3    H279886   4.559   3.658  11.458  2.1222  1.0736 -1.2588
19491TIP3   OH279887   5.991   6.111  12.484 -0.1919 -0.9088 -0.2827
19491TIP3    H179888   6.082   6.119  12.454 -0.3300  1.2590 -0.2742
19491TIP3    H279889   5.978   6.186  12.542 -2.4927 -0.1690 -1.6485
19492TIP3   OH279890   5.349   2.747  12.589 -0.7049 -0.1571 -0.1975
19492TIP3    H179891   5.428   2.778  12.634 -0.6334 -1.4494  0.6140
19492TIP3    H279892   5.376   2.666  12.546 -1.4726 -0.3539 -0.3150
19493TIP3   OH279893   1.733   6.420  14.267 -0.2542 -0.0545  0.4327
19493TIP3    H179894   1.706   6.337  14.227 -0.8024 -0.1930  1.0751
19493TIP3    H279895   1.823   6.404  14.296 -0.7453 -0.8261  1.6027
19494TIP3   OH279896   3.632   5.306  16.106  0.2406 -0.2799  0.1027
19494TIP3    H179897   3.611   5.371  16.039 -0.3906 -0.8959 -0.3094
19494TIP3    H279898   3.563   5.318  16.172  1.0576  0.5601  0.8261
19495TIP3   OH279899   0.383   1.798   3.488  0.6047 -0.1379  0.3799
19495TIP3    H179900   0.372   1.723   3.430 -0.1339  1.3581 -1.5581
19495TIP3    H279901   0.385   1.874   3.428 -1.7054  1.6609  2.3591
19496TIP3   OH279902   0.339   5.565  10.762 -0.3831  0.2576  0.0754
19496TIP3    H179903   0.434   5.575  10.764 -0.4598  0.9749  0.3915
19496TIP3    H279904   0.324   5.474  10.787  0.1293  0.6745  2.0633
19497TIP3   OH279905   2.958   1.300   0.988  0.4115 -0.4089 -0.0349
19497TIP3    H179906   2.903   1.372   1.021 -0.2412 -1.1945  0.6416
19497TIP3    H279907   2.976   1.324   0.897  0.8884  1.0078  0.4047
19498TIP3   OH279908   1.423   1.251  16.620  0.0323  0.3078 -0.1724
19498TIP3    H179909   1.429   1.303  16.699 -0.9728  0.2752 -0.0634
19498TIP3    H279910   1.477   1.174  16.638  1.8719  1.4681 -0.4945
19499TIP3   OH279911   1.839   0.261   4.755 -0.0888 -0.1837  0.4030
19499TIP3    H179912   1.797   0.294   4.676  0.7662 -1.9419 -0.8671
19499TIP3    H279913   1.773   0.270   4.824 -0.6493  1.9467 -0.3345
19500TIP3   OH279914   5.718   3.197   3.966  0.8176 -0.0255  0.4133
19500TIP3    H179915   5.678   3.221   4.049 -0.7281 -2.5949  0.5185
19500TIP3    H279916   5.774   3.271   3.943 -1.0634  2.0642  2.2075
19501TIP3   OH279917   6.180   4.638   5.694  0.0878 -0.3498  0.0879
19501TIP3    H179918   6.209   4.662   5.782 -0.6479 -0.1937  0.2923
19501TIP3    H279919   6.146   4.719   5.656 -2.6099 -1.0126  0.8633
19502TIP3   OH279920   5.246   2.691  13.182  0.3617 -0.3367 -0.1184
19502TIP3    H179921   5.290   2.774  13.199  0.5344 -0.8724  2.4143
19502TIP3    H279922   5.289   2.629  13.241 -2.3694 -1.3616  0.9323
19503TIP3   OH279923   2.262   2.359  15.618  0.4156  0.2805  0.4151
19503TIP3    H179924   2.195   2.302  15.655  0.3751 -1.1932 -1.7204
19503TIP3    H279925   2.213   2.429  15.574  0.4044  0.8404  1.2925
19504TIP3   OH279926   4.458   0.422   5.577  0.0740  0.2864  0.6376
19504TIP3    H179927   4.498   0.378   5.501  0.3496  0.8050  0.4757
19504TIP3    H279928   4.414   0.352   5.625 -0.4164  0.0068 -0.2011
19505TIP3   OH279929   1.252   5.093  16.317  0.1106  0.4137  0.1050
19505TIP3    H179930   1.224   5.180  16.345  0.4517  0.1700  1.2273
19505TIP3    H279931   1.191   5.033  16.358 -0.3776  0.1273 -1.0058
19506TIP3   OH279932   5.883   1.408   2.685 -0.0510 -0.4006 -0.6326
19506TIP3    H179933   5.905   1.391   2.777 -0.2074  1.0840 -0.2931
19506TIP3    H279934   5.950   1.361   2.635  2.0627  1.4509  0.3173
19507TIP3   OH279935   1.380   5.058  12.698  0.0547  0.6097 -0.4709
19507TIP3    H179936   1.395   5.055  12.604 -2.4068  0.9996 -0.9432
19507TIP3    H279937   1.312   5.124  12.710 -0.5689 -0.2801  1.4299
19508TIP3   OH279938   5.490   4.626   0.881 -0.3339  0.2616  0.2686
19508TIP3    H179939   5.545   4.558   0.919  0.3576  0.3765 -0.4970
19508TIP3    H279940   5.545   4.666   0.814 -1.4300  0.2078 -0.6892
19509TIP3   OH279941   4.037   2.258   2.594  0.2393  0.2574 -0.0126
19509TIP3    H179942   4.006   2.225   2.679 -1.4988  1.1386 -0.2517
19509TIP3    H279943   3.967   2.316   2.564  0.8493  0.0448 -2.0111
19510TIP3   OH279944   5.656   1.810   2.157 -0.0243  0.2042  0.4774
19510TIP3    H179945   5.711   1.850   2.224 -0.2892 -0.5720  1.1812
19510TIP3    H279946   5.693   1.840   2.074  0.7050  0.6704  0.9615
19511TIP3   OH279947   2.569   0.700  12.077  0.1169 -0.4391  0.7174
19511TIP3    H179948   2.508   0.642  12.032 -0.3101 -0.0545  0.7900
19511TIP3    H279949   2.513   0.759  12.127  0.5144  0.5845 -0.0243
19512TIP3   OH279950   2.880   0.281  15.585 -0.3742  0.4101  0.5934
19512TIP3    H179951   2.896   0.209  15.523  1.5282  0.4059  1.0410
19512TIP3    H279952   2.880   0.360  15.531  1.6931  0.4484  0.5827
19513TIP3   OH279953   4.414   0.338   0.643  0.1470 -0.1654 -0.4119
19513TIP3    H179954   4.324   0.362   0.621 -0.3518 -0.6231  0.9764
19513TIP3    H279955   4.449   0.414   0.689  0.2973 -0.1772 -0.5060
19514TIP3   OH279956   3.488   2.988   0.017  0.3988 -0.4131 -0.4408
19514TIP3    H179957   3.472   3.081   0.033 -0.0030 -0.5633  0.0697
19514TIP3    H279958   3.531   2.957   0.097 -0.1436 -0.8239 -0.3012
19515TIP3   OH279959   0.905   4.224  16.164  0.1273 -0.3430  0.0703
19515TIP3    H179960   0.977   4.166  16.139 -0.0573 -0.6946  0.3385
19515TIP3    H279961   0.842   4.215  16.092 -0.0667 -0.7672  0.2908
19516TIP3   OH279962   5.684   4.819  15.724 -0.2433  0.8841 -0.3517
19516TIP3    H179963   5.756   4.764  15.693 -1.9734 -1.0671 -1.0888
19516TIP3    H279964   5.711   4.908  15.700  1.9674  0.2567 -0.4572
19517TIP3   OH279965   4.557   5.107   3.799  0.3775 -0.4708  0.0459
19517TIP3    H179966   4.571   5.083   3.707 -0.1604 -0.6333 -0.0006
19517TIP3    H279967   4.466   5.136   3.802  0.2276 -0.9848  0.6332
19518TIP3   OH279968   2.971   4.803  16.959 -0.2005  0.4767 -0.6393
19518TIP3    H179969   3.055   4.846  16.940 -0.1463  0.9424  0.5859
19518TIP3    H279970   2.956   4.746  16.883 -0.0018  2.2243 -2.0689
19519TIP3   OH279971   0.970   0.511  16.347 -0.1485 -0.6333 -0.0722
19519TIP3    H179972   1.052   0.469  16.320 -0.3168 -0.5294 -0.7515
19519TIP3    H279973   0.906   0.439  16.351 -0.8719 -0.2525 -2.9312
19520TIP3   OH279974   4.695   6.294  11.938 -0.1602  0.3679 -0.2196
19520TIP3    H179975   4.754   6.220  11.923 -1.3262 -0.4159 -1.1643
19520TIP3    H279976   4.746   6.371  11.913  0.0332 -0.4156 -2.4282
19521TIP3   OH279977   4.880   5.983   2.224 -0.1484  0.3174  0.2428
19521TIP3    H179978   4.958   6.034   2.205  1.0788 -1.2668  0.7968
19521TIP3    H279979   4.878   5.976   2.320 -0.0440 -0.9943  0.1718
19522TIP3   OH279980   6.616   1.109  15.263  0.8367  0.9194  0.3845
19522TIP3    H179981   6.543   1.170  15.256  0.1265  0.1090  0.5879
19522TIP3    H279982   6.590   1.048  15.332  0.5301 -0.9257 -1.2652
19523TIP3   OH279983   1.218   1.642  13.707  0.1654  0.5018 -0.4433
19523TIP3    H179984   1.221   1.671  13.798 -1.0934  0.1008 -0.2573
19523TIP3    H279985   1.182   1.554  13.712  0.3365  0.3804 -1.3149
19524TIP3   OH279986   6.072   0.712  16.905  0.4154 -0.0929  0.1902
19524TIP3    H179987   5.985   0.750  16.919 -0.3005 -1.2516 -0.7928
19524TIP3    H279988   6.109   0.702  16.992 -0.5403  0.2147  0.6462
19525TIP3   OH279989   2.213   3.958   5.264 -0.5668 -0.3321  0.9134
19525TIP3    H179990   2.291   3.925   5.220 -1.5944 -1.8474  0.1532
19525TIP3    H279991   2.213   4.052   5.246  1.3881 -0.1858  1.4612
19526TIP3   OH279992   3.471   0.295   4.360 -0.1317 -0.3723  0.7844
19526TIP3    H179993   3.535   0.232   4.326  0.5780 -0.3492  2.0413
19526TIP3    H279994   3.386   0.251   4.349  0.1647 -0.7390 -0.1378
19527TIP3   OH279995   2.768   4.470   4.630 -0.0382  0.2041  0.5105
19527TIP3    H179996   2.700   4.525   4.670 -1.7978 -2.8085  1.9657
19527TIP3    H279997   2.750   4.474   4.536 -3.7513 -2.0834  0.9168
19528TIP3   OH279998   3.850   4.109   1.830 -0.7998  0.1356 -0.0983
19528TIP3    H179999   3.806   4.128   1.913  2.0514 -0.0964  1.5830
19528TIP3    H280000   3.846   4.014   1.822 -3.6182  0.3078 -1.8199
19529TIP3   OH280001   5.654   6.268   2.083 -0.1966 -0.1761 -0.3918
19529TIP3    H180002   5.638   6.270   1.989 -2.5959 -0.5387 -0.0537
19529TIP3    H280003   5.570   6.244   2.121  0.4661  0.8558  1.9122
19530TIP3   OH280004   0.469   3.716  16.743 -0.4912 -0.0871 -0.7527
19530TIP3    H180005   0.519   3.698  16.664  0.1446  0.7876 -0.5602
19530TIP3    H280006   0.525   3.772  16.795 -1.1332 -0.1905  0.0763
19531TIP3   OH280007   0.252   0.924  14.383 -0.4697  0.4127  0.3530
19531TIP3    H180008   0.160   0.950  14.372 -0.0083  1.0813 -2.8285
19531TIP3    H280009   0.302   0.999  14.352  1.1009 -0.8048 -0.1531
19532TIP3   OH280010   1.545   2.556   1.271 -0.0613  0.5130 -0.0881
19532TIP3    H180011   1.487   2.625   1.239 -2.2870 -1.6418 -1.0276
19532TIP3    H280012   1.522   2.546   1.364  1.4658  2.0987  0.4990
19533TIP3   OH280013   1.799   0.215   5.578 -0.5584  0.0756  0.0756
19533TIP3    H180014   1.891   0.225   5.601 -1.1139  1.2661  2.0275
19533TIP3    H280015   1.785   0.277   5.507 -0.1078  0.7147  0.5368
19534TIP3   OH280016   0.835   3.925  15.581 -0.1301  0.5861 -0.0743
19534TIP3    H180017   0.896   3.964  15.518  0.9050  0.2262  0.6727
19534TIP3    H280018   0.807   3.843  15.540  1.5755 -0.3088  0.4695
19535TIP3   OH280019   1.350   2.112   5.265  0.6798  0.3118  0.2454
19535TIP3    H180020   1.404   2.052   5.317  1.5845 -1.1404 -2.2064
19535TIP3    H280021   1.355   2.195   5.312  0.2907 -1.1776  3.1954
19536TIP3   OH280022   5.576   0.729  11.304 -0.3995  0.5030 -0.1915
19536TIP3    H180023   5.594   0.735  11.210  0.1977 -2.3885 -0.3438
19536TIP3    H280024   5.483   0.750  11.312 -0.3210  1.3792 -1.3300
19537TIP3   OH280025   1.964   5.277  12.079  0.1472 -1.3496  0.5463
19537TIP3    H180026   1.929   5.316  12.159 -1.8707 -1.1230 -0.3989
19537TIP3    H280027   2.024   5.344  12.044  2.1022 -1.9851  2.4873
19538TIP3   OH280028   0.015   0.380  14.987  0.5683  0.3456  0.3402
19538TIP3    H180029   0.017   0.400  14.893 -1.1371 -0.9235 -0.0095
19538TIP3    H280030   0.005   0.285  14.991  1.4344  0.2840  1.8422
19539TIP3   OH280031   3.548   4.117  13.776  0.0445 -0.1987  0.1694
19539TIP3    H180032   3.505   4.049  13.828 -0.5669  0.3327  0.3786
19539TIP3    H280033   3.476   4.163  13.733  0.4342  0.4257  0.1726
19540TIP3   OH280034   6.003   1.527  12.638  0.5912  0.8232  0.2011
19540TIP3    H180035   6.022   1.503  12.729  2.6891  1.0811 -0.1276
19540TIP3    H280036   5.914   1.495  12.624  1.2533 -1.9604  1.4460
19541TIP3   OH280037   2.428   1.100  12.751  0.4668  0.5743 -0.3620
19541TIP3    H180038   2.474   1.071  12.672 -0.4148  2.4116 -1.6296
19541TIP3    H280039   2.363   1.032  12.767  1.4203 -0.4031 -0.5076
19542TIP3   OH280040   6.165   2.416   5.536 -0.3076 -0.7675 -0.4905
19542TIP3    H180041   6.228   2.364   5.585 -0.4894 -1.3303 -0.8442
19542TIP3    H280042   6.120   2.353   5.479  0.6334 -0.0007 -2.1614
19543TIP3   OH280043   6.376   4.322   3.708  0.6206 -0.1839  0.0208
19543TIP3    H180044   6.369   4.269   3.787 -0.0446  0.2172  0.2336
19543TIP3    H280045   6.289   4.318   3.668  0.5215  0.8607  0.1107
19544TIP3   OH280046   6.619   1.539  16.552 -0.7833  0.2959 -0.0131
19544TIP3    H180047   6.683   1.468  16.556  0.1710  1.0531 -1.0600
19544TIP3    H280048   6.637   1.582  16.468 -1.3632  1.7478  0.5806
19545TIP3   OH280049   5.953   6.397  14.126  0.5347  0.4556  0.5256
19545TIP3    H180050   5.988   6.413  14.213  0.0282  1.1593  0.6045
19545TIP3    H280051   5.907   6.477  14.103 -2.5887 -0.9736  1.1897
19546TIP3   OH280052   3.331   2.521  17.112  0.0006  0.0259  0.2273
19546TIP3    H180053   3.290   2.519  17.025  1.8672  0.7121 -0.7301
19546TIP3    H280054   3.335   2.429  17.138  1.9165 -0.5479 -1.7316
19547TIP3   OH280055   4.120   1.661  10.974  0.0512  0.4386  0.1718
19547TIP3    H180056   4.166   1.732  10.929 -0.6199  0.1141 -1.0936
19547TIP3    H280057   4.184   1.590  10.979  0.4950  0.8762  0.7923
19548TIP3   OH280058   1.993   4.438   0.824 -0.0848 -0.1195 -0.0191
19548TIP3    H180059   2.033   4.524   0.816  2.2063 -1.2154 -1.1766
19548TIP3    H280060   1.905   4.455   0.858 -0.6012  2.8540 -2.4623
19549TIP3   OH280061   2.756   4.473   3.347 -0.0596 -0.3374  0.4642
19549TIP3    H180062   2.701   4.465   3.425  0.5420  1.2152  1.0999
19549TIP3    H280063   2.841   4.439   3.375  0.0505 -0.1388  0.3765
19550TIP3   OH280064   3.212   1.204   0.198  0.3654  0.7879 -0.1539
19550TIP3    H180065   3.290   1.236   0.152 -0.2723  1.6080 -0.7040
19550TIP3    H280066   3.148   1.190   0.129  0.3844 -1.0472  0.1566
19551TIP3   OH280067   1.009   1.378  11.630 -0.0070  0.0357  0.3975
19551TIP3    H180068   1.080   1.334  11.584  0.4740 -0.5679  1.6704
19551TIP3    H280069   1.052   1.425  11.702 -0.9029 -0.4806  1.2878
19552TIP3   OH280070   5.680   2.911  17.099 -0.2767  0.3085 -0.2461
19552TIP3    H180071   5.587   2.934  17.110 -1.5114 -4.0247  0.4579
19552TIP3    H280072   5.690   2.897  17.005 -1.4489 -2.4196 -0.0748
19553TIP3   OH280073   5.489   1.046  15.618 -0.0781  0.2511  0.2079
19553TIP3    H180074   5.453   1.133  15.633  2.5751  1.3771  0.6966
19553TIP3    H280075   5.477   1.001  15.702 -1.4120  0.1323 -0.0264
19554TIP3   OH280076   4.785   0.222   5.862  0.0494  0.3629  0.1324
19554TIP3    H180077   4.853   0.156   5.868 -1.6520 -1.6683 -1.3949
19554TIP3    H280078   4.708   0.181   5.900 -0.9797  1.6032 -0.5254
19555TIP3   OH280079   4.259   2.004   1.862  0.5192  0.4904  0.4065
19555TIP3    H180080   4.175   1.985   1.820 -0.1234 -1.1324  2.2576
19555TIP3    H280081   4.235   2.039   1.948  1.7559  0.3172  0.8410
19556TIP3   OH280082   5.528   3.110  16.439 -0.1655  0.0328 -0.4838
19556TIP3    H180083   5.505   3.179  16.378 -0.9049  0.2817  0.0503
19556TIP3    H280084   5.495   3.141  16.524  0.6182 -0.4066 -0.0009
19557TIP3   OH280085   0.519   2.117   0.802 -0.2898  0.6852  0.2481
19557TIP3    H180086   0.477   2.059   0.738 -0.7222  1.1101  0.1408
19557TIP3    H280087   0.559   2.057   0.866 -2.5202  0.2363  1.3165
19558TIP3   OH280088   4.624   5.047  17.154  0.8758  0.6495  0.1114
19558TIP3    H180089   4.693   5.060  17.219  0.3250 -1.3500  1.1817
19558TIP3    H280090   4.670   5.010  17.078  0.8952 -1.9767  1.3054
19559TIP3   OH280091   2.608   3.961  12.022 -0.0152  0.0967 -0.4464
19559TIP3    H180092   2.640   3.873  12.041 -3.0034 -1.0846 -0.4400
19559TIP3    H280093   2.602   4.004  12.108  0.5982  0.0183 -0.3600
19560TIP3   OH280094   3.389   2.689   4.275 -0.2132  0.0317  0.1703
19560TIP3    H180095   3.444   2.745   4.330  1.2789 -1.6755  0.5421
19560TIP3    H280096   3.446   2.615   4.253 -1.7146 -0.7520 -1.2792
19561TIP3   OH280097   3.314   5.539   1.978  0.3295  0.2702  0.1573
19561TIP3    H180098   3.385   5.537   1.913  0.1792  0.7998 -0.0222
19561TIP3    H280099   3.358   5.524   2.061  0.6538  0.5875  0.0440
19562TIP3   OH280100   1.229   2.474  15.705  0.1273  0.2880  0.0662
19562TIP3    H180101   1.178   2.399  15.737  1.9236 -1.1312 -0.2229
19562TIP3    H280102   1.255   2.521  15.784  0.1623 -0.1949  0.3457
19563TIP3   OH280103   5.270   1.046   0.837  0.2194  0.3962  0.0027
19563TIP3    H180104   5.345   1.006   0.882 -1.4125 -1.4017  1.3002
19563TIP3    H280105   5.222   1.091   0.907 -0.0538  1.3542 -0.7786
19564TIP3   OH280106   6.500   3.875  14.227  0.3158  0.5305  0.5978
19564TIP3    H180107   6.594   3.855  14.235  0.5646  0.7899 -1.1987
19564TIP3    H280108   6.480   3.854  14.136 -1.2837  0.9123  0.8463
19565TIP3   OH280109   5.461   1.967  11.763 -0.2622 -0.9457  0.3480
19565TIP3    H180110   5.440   1.878  11.792 -2.1475 -1.0482 -1.1755
19565TIP3    H280111   5.405   2.023  11.817 -0.0115 -0.7693  0.4251
19566TIP3   OH280112   2.588   4.112  16.739  0.2956  0.8344 -0.0425
19566TIP3    H180113   2.568   4.102  16.646 -0.5438  0.7689  0.1361
19566TIP3    H280114   2.671   4.159  16.741 -0.0795  1.5488 -0.8182
19567TIP3   OH280115   4.095   2.986   4.124  0.7890 -0.4820  0.1128
19567TIP3    H180116   4.126   3.022   4.041  0.6174  0.7228  0.5457
19567TIP3    H280117   4.172   2.991   4.182 -0.4092  4.2923  1.7675
19568TIP3   OH280118   0.565   0.487   6.187  0.3704  0.0424 -0.0156
19568TIP3    H180119   0.481   0.498   6.143  1.1442 -0.1354 -1.5898
19568TIP3    H280120   0.574   0.393   6.199 -0.5134  0.1679  1.9464
19569TIP3   OH280121   4.061   5.837   0.931  0.0089  0.5035  0.5071
19569TIP3    H180122   4.112   5.771   0.884  2.3057  2.4934  0.0097
19569TIP3    H280123   3.970   5.810   0.919  0.7060 -1.0617 -2.0077
19570TIP3   OH280124   4.100   5.743   3.261 -1.1090  0.0891 -0.2575
19570TIP3    H180125   4.037   5.685   3.303 -1.1880  0.5557  0.2773
19570TIP3    H280126   4.121   5.699   3.178 -1.6667 -0.3729 -0.1635
19571TIP3   OH280127   2.189   4.873  12.304  0.1193  1.3653  0.1383
19571TIP3    H180128   2.129   4.911  12.369 -0.9955  0.0771 -0.0859
19571TIP3    H280129   2.180   4.929  12.227 -1.5416  0.6612 -0.2107
19572TIP3   OH280130   5.240   4.786  13.510 -0.0035  0.1571  0.4212
19572TIP3    H180131   5.249   4.821  13.598  1.3628  0.1298  0.3094
19572TIP3    H280132   5.293   4.706  13.510 -2.1644 -1.3757  0.3418
19573TIP3   OH280133   1.009   6.015   0.330 -0.3280  0.1629  0.2913
19573TIP3    H180134   0.931   5.983   0.375 -1.2594  0.4658 -1.0224
19573TIP3    H280135   0.988   6.106   0.308  0.7295  0.5033  0.6068
19574TIP3   OH280136   3.824   3.520  14.910  0.8613 -0.5865 -0.9854
19574TIP3    H180137   3.856   3.538  14.822  0.6224  1.1817 -0.7436
19574TIP3    H280138   3.730   3.539  14.906  0.7435 -1.0370 -0.4914
19575TIP3   OH280139   2.740   5.396  14.803 -0.0486 -0.1252  0.2952
19575TIP3    H180140   2.723   5.466  14.867  0.2718 -0.8088  1.1456
19575TIP3    H280141   2.835   5.389  14.801 -0.0096  0.5308 -0.9866
19576TIP3   OH280142   4.290   6.650  16.042 -0.5104  0.4767 -0.1098
19576TIP3    H180143   4.273   6.726  16.097 -2.4009 -0.1474  0.2359
19576TIP3    H280144   4.258   6.675  15.955 -0.7060  0.2406 -0.1061
19577TIP3   OH280145   6.015   0.849  14.595  0.5461 -0.3811 -0.4266
19577TIP3    H180146   5.988   0.896  14.516  1.4686 -2.5127 -2.0974
19577TIP3    H280147   6.068   0.776  14.563 -0.3142 -2.2367  2.0598
19578TIP3   OH280148   4.924   3.748  16.945  0.2958 -0.2489  0.3782
19578TIP3    H180149   4.907   3.822  17.003  2.0443  0.5079 -0.0164
19578TIP3    H280150   4.971   3.685  16.999  0.4720 -0.2514  0.2239
19579TIP3   OH280151   0.865   2.653   1.344  0.5725  0.2595 -0.4946
19579TIP3    H180152   0.795   2.715   1.327 -1.5294 -2.1887 -1.5280
19579TIP3    H280153   0.932   2.673   1.279 -0.4059  0.9708 -1.3117
19580TIP3   OH280154   4.043   4.537   5.290  0.2988 -0.3252  0.0371
19580TIP3    H180155   4.045   4.443   5.308 -1.0587 -0.0383  2.0908
19580TIP3    H280156   4.117   4.573   5.338 -0.9440 -0.0502  1.8694
19581TIP3   OH280157   5.045   1.956  16.795  0.3615  0.5047  0.4619
19581TIP3    H180158   4.997   2.039  16.791 -0.0023  0.2927  0.3608
19581TIP3    H280159   5.053   1.938  16.889  0.0146  0.4167  0.4781
19582TIP3   OH280160   3.088   5.429   1.293 -0.0991  0.0625  0.0463
19582TIP3    H180161   3.033   5.387   1.227 -2.5093  0.0800  1.8801
19582TIP3    H280162   3.146   5.486   1.243 -1.9280  0.2250 -2.0742
19583TIP3   OH280163   1.275   1.955   6.566  0.2887  0.1501  0.3214
19583TIP3    H180164   1.347   2.000   6.523 -2.3813  2.9910 -1.5981
19583TIP3    H280165   1.268   1.872   6.520  2.4554 -0.3530  0.7894
19584TIP3   OH280166   2.158   3.064   6.120 -0.2475  0.1321  0.2176
19584TIP3    H180167   2.109   3.133   6.166 -1.1401 -1.6531  2.0746
19584TIP3    H280168   2.244   3.064   6.162  0.0892  0.7285 -0.4495
19585TIP3   OH280169   1.770   2.312   3.010 -0.0057  0.1373 -0.6646
19585TIP3    H180170   1.808   2.324   3.097  0.5030  0.8592 -0.9821
19585TIP3    H280171   1.802   2.386   2.959  0.9535 -1.0735 -1.8999
19586TIP3   OH280172   3.238   6.581   3.418 -0.2333 -0.8749  0.0822
19586TIP3    H180173   3.301   6.565   3.489  0.2798  2.9092  0.6911
19586TIP3    H280174   3.155   6.598   3.463 -1.3143 -3.6458 -0.6294
19587TIP3   OH280175   6.011   0.670   4.072 -0.3947  0.3130  0.4216
19587TIP3    H180176   6.032   0.763   4.066 -1.5301  0.7214  2.2695
19587TIP3    H280177   5.939   0.657   4.010  0.5480  0.3675 -0.7283
19588TIP3   OH280178   1.233   0.651   2.158 -0.2521  0.6780  0.2211
19588TIP3    H180179   1.161   0.595   2.189  0.1542  0.6654  1.1632
19588TIP3    H280180   1.311   0.615   2.199  0.4430  0.1779 -1.4545
19589TIP3   OH280181   2.521   5.931  17.067 -0.0395 -0.0213  0.0990
19589TIP3    H180182   2.483   5.934  17.155 -1.3054  1.0332 -0.4507
19589TIP3    H280183   2.542   6.022  17.047 -0.8181 -0.0941 -1.1242
19590TIP3   OH280184   3.074   6.147  12.063 -0.3917 -0.1089 -0.1412
19590TIP3    H180185   3.008   6.215  12.080 -0.0908  0.6737 -1.8695
19590TIP3    H280186   3.051   6.113  11.977 -1.4257 -3.3356  1.2547
19591TIP3   OH280187   2.245   0.024   5.072 -0.2388  0.0445 -0.0413
19591TIP3    H180188   2.327  -0.019   5.046  0.2194  2.4737 -3.2626
19591TIP3    H280189   2.273   0.097   5.126  0.0018  1.7202 -2.2935
19592TIP3   OH280190   3.277   0.569   1.948  0.4311  0.5277  0.1480
19592TIP3    H180191   3.253   0.558   1.856 -1.1829 -2.6033  0.8119
19592TIP3    H280192   3.300   0.481   1.978  0.5687  1.3791  2.8466
19593TIP3   OH280193   6.502   6.434   2.775  0.0760  0.1828  0.2917
19593TIP3    H180194   6.595   6.422   2.796 -0.0838 -0.1824  0.8265
19593TIP3    H280195   6.461   6.447   2.860 -0.5896 -1.2350  0.2130
19594TIP3   OH280196   3.037   3.574   0.972  0.2559  0.1404 -0.0957
19594TIP3    H180197   3.059   3.483   0.992  2.1641  0.4313 -0.6995
19594TIP3    H280198   3.077   3.624   1.043  1.7922  0.7034 -1.3123
19595TIP3   OH280199   3.747   5.434  12.544  0.5264 -0.3461  0.1924
19595TIP3    H180200   3.692   5.499  12.588  0.8477  0.0373  0.0353
19595TIP3    H280201   3.817   5.485  12.504  0.0494 -0.6318 -1.0764
19596TIP3   OH280202   4.574   3.418   3.590 -0.2847  0.2596  0.3824
19596TIP3    H180203   4.528   3.334   3.596 -1.6601  0.8563 -1.1795
19596TIP3    H280204   4.666   3.396   3.607 -0.6720 -1.5073  0.3575
19597TIP3   OH280205   0.309   5.686  15.384 -0.5675 -0.5082 -0.0307
19597TIP3    H180206   0.234   5.745  15.385  0.5256  0.9366 -0.2058
19597TIP3    H280207   0.275   5.603  15.418 -2.8964 -0.7680 -2.7153
19598TIP3   OH280208   0.845   4.839  12.648 -0.1383 -0.6494  0.0508
19598TIP3    H180209   0.934   4.837  12.614  0.1918 -3.1097  0.8812
19598TIP3    H280210   0.853   4.809  12.739 -1.8568 -1.6860 -0.0944
19599TIP3   OH280211   5.535   3.332   3.425  0.7130 -0.0742 -0.3611
19599TIP3    H180212   5.455   3.350   3.375  1.9002  0.4168 -2.1834
19599TIP3    H280213   5.564   3.417   3.456 -0.0690 -0.3826  1.3794
19600TIP3   OH280214   0.448   3.452   0.355 -0.4002  0.1375  0.5644
19600TIP3    H180215   0.388   3.382   0.329  0.7934  0.0525 -2.3622
19600TIP3    H280216   0.399   3.533   0.340 -0.5650  0.0082  0.4100
19601TIP3   OH280217   5.896   6.098   2.020  0.0324  0.8155  0.1702
19601TIP3    H180218   5.819   6.138   2.060 -0.5846 -0.5653  0.4411
19601TIP3    H280219   5.910   6.018   2.071  1.2880  0.7298 -0.2698
19602TIP3   OH280220   4.275   6.274   1.052 -0.0794 -0.5648  0.4458
19602TIP3    H180221   4.232   6.299   1.133 -0.3620 -0.3616  0.2343
19602TIP3    H280222   4.369   6.277   1.072  0.0508  2.6667 -0.1080
19603TIP3   OH280223   1.668   4.229   0.207  0.4179  0.4977 -0.4182
19603TIP3    H180224   1.693   4.137   0.194  0.4029  0.6702 -1.9243
19603TIP3    H280225   1.724   4.278   0.146 -0.0295  1.4174 -0.1094
19604TIP3   OH280226   0.480   4.207   5.915  0.6408 -0.6821 -0.2802
19604TIP3    H180227   0.536   4.163   5.980 -0.1065 -0.7322  0.3380
19604TIP3    H280228   0.513   4.296   5.911 -0.0723 -0.3268  1.0953
19605TIP3   OH280229   6.012   2.490   1.453  0.3534  0.0313 -0.1715
19605TIP3    H180230   6.027   2.582   1.431  1.9166 -0.3439 -0.8360
19605TIP3    H280231   5.919   2.475   1.436  0.0159  1.5524  0.2222
19606TIP3   OH280232   2.297   2.337  13.735  0.1819 -0.2760 -0.6128
19606TIP3    H180233   2.242   2.385  13.796  0.5066  2.1381 -2.0902
19606TIP3    H280234   2.344   2.273  13.790 -0.8913  0.5225  1.3203
19607TIP3   OH280235   0.015   4.131   4.659 -0.1494 -0.6512  0.1769
19607TIP3    H180236  -0.027   4.046   4.647  1.5934 -1.7019  1.0398
19607TIP3    H280237   0.010   4.146   4.754  0.9412 -0.5971  0.2429
19608TIP3   OH280238   1.868   4.491  16.832  0.3705  0.2364 -0.3852
19608TIP3    H180239   1.816   4.452  16.902  0.2778 -1.5117 -1.3664
19608TIP3    H280240   1.804   4.537  16.778  0.0977 -0.3782 -0.5926
19609TIP3   OH280241   0.674   2.470  14.307  0.2156 -0.2141 -0.2951
19609TIP3    H180242   0.739   2.457  14.376 -0.4896  0.6818  0.5628
19609TIP3    H280243   0.622   2.545  14.336  0.1352  0.4289 -1.9868
19610TIP3   OH280244   0.992   1.144  14.583 -0.1437  0.2919  0.3711
19610TIP3    H180245   0.974   1.093  14.503 -1.8582 -0.2145  1.0499
19610TIP3    H280246   1.050   1.214  14.553  0.5067 -0.7669 -1.0187
19611TIP3   OH280247   5.102   6.024  15.035  0.4505 -0.5186 -0.0282
19611TIP3    H180248   5.175   6.079  15.007 -0.1249 -0.1422 -0.8115
19611TIP3    H280249   5.038   6.031  14.964 -0.7642 -0.0610  1.0816
19612TIP3   OH280250   1.387   5.199  16.099 -0.2543  0.0836  0.0382
19612TIP3    H180251   1.351   5.156  16.177 -0.1094 -0.0843  0.0133
19612TIP3    H280252   1.354   5.288  16.104  1.4584  0.7018  1.4319
19613TIP3   OH280253   1.864   0.761   4.064 -0.0778  0.2463  0.6532
19613TIP3    H180254   1.904   0.823   4.125 -0.8012  0.0947  1.3068
19613TIP3    H280255   1.937   0.711   4.029  0.4888  1.2545  0.3514
19614TIP3   OH280256   3.727   5.171   1.491  0.1286  0.0182 -0.0586
19614TIP3    H180257   3.750   5.176   1.398  1.1853 -0.7064  0.1399
19614TIP3    H280258   3.703   5.079   1.504 -0.9909  0.3293  0.1913
19615TIP3   OH280259   5.306   1.518  15.685 -0.2558 -0.2645  0.1396
19615TIP3    H180260   5.279   1.547  15.772 -2.4970 -1.3300 -0.1267
19615TIP3    H280261   5.251   1.568  15.625  1.4568  0.6569 -0.7152
19616TIP3   OH280262   0.077   5.498   2.891  0.5678 -0.1328  0.8923
19616TIP3    H180263  -0.003   5.507   2.943 -0.5427  2.2497 -1.0295
19616TIP3    H280264   0.054   5.436   2.822 -0.0071  1.3064 -0.2448
19617TIP3   OH280265   4.462   0.085  14.165  0.4197  0.6704 -0.2912
19617TIP3    H180266   4.518   0.096  14.088  1.0244  1.0777  0.1997
19617TIP3    H280267   4.462   0.171  14.207 -1.5674  1.0275 -0.9283
19618TIP3   OH280268   2.719   0.720  16.573  0.0704 -0.9990  0.3366
19618TIP3    H180269   2.665   0.782  16.621  1.7001 -0.3538  1.3963
19618TIP3    H280270   2.771   0.774  16.514 -0.8788 -1.6723 -1.2005
19619TIP3   OH280271   4.581   2.463   6.448  0.7792  0.0325  0.3014
19619TIP3    H180272   4.546   2.443   6.361  0.9929  0.9121  0.0049
19619TIP3    H280273   4.600   2.557   6.445 -0.7676  0.4520  1.8323
19620TIP3   OH280274   0.663   6.707  15.324  0.2584 -0.2691 -0.4731
19620TIP3    H180275   0.657   6.611  15.322  2.2478 -0.4243 -0.4938
19620TIP3    H280276   0.751   6.727  15.292  0.6962  1.4561  1.5662
19621TIP3   OH280277   4.442   1.341  11.767 -0.8430  0.0457 -0.2731
19621TIP3    H180278   4.507   1.368  11.703 -1.8913 -0.7637 -1.7293
19621TIP3    H280279   4.370   1.305  11.715 -1.7003 -0.7179  1.3621
19622TIP3   OH280280   5.331   0.531  11.968  0.2836 -0.2497 -0.0851
19622TIP3    H180281   5.257   0.484  11.929 -0.8814  1.9342 -0.6736
19622TIP3    H280282   5.316   0.527  12.062  0.6662 -1.7247 -0.0675
19623TIP3   OH280283   1.365   4.606  16.943 -0.7482  0.0616 -0.4309
19623TIP3    H180284   1.451   4.648  16.951 -0.8184  0.1250  0.0131
19623TIP3    H280285   1.377   4.520  16.982 -1.3693  0.7626  1.4468
19624TIP3   OH280286   2.241   3.809  12.746  0.1146 -0.2171  0.0367
19624TIP3    H180287   2.272   3.722  12.772 -0.9395 -0.5624  0.1784
19624TIP3    H280288   2.150   3.812  12.775  0.6239  1.6116  1.6571
19625TIP3   OH280289   5.801   1.254  16.900 -0.2835 -0.0385 -0.3623
19625TIP3    H180290   5.781   1.184  16.962 -2.3406 -0.2415 -1.1717
19625TIP3    H280291   5.828   1.208  16.820  0.9221  0.1820 -0.0933
19626TIP3   OH280292   5.333   6.310   1.458 -0.6316 -0.1861  0.0563
19626TIP3    H180293   5.371   6.222   1.450  0.0905  0.1577 -0.4081
19626TIP3    H280294   5.378   6.361   1.390 -0.7333  0.6456  0.6086
19627TIP3   OH280295   6.408   6.387   0.372 -0.1009  0.2927 -0.4904
19627TIP3    H180296   6.451   6.302   0.388  0.1801  0.4539 -0.3716
19627TIP3    H280297   6.462   6.428   0.305 -0.6972  0.0459 -1.1307
19628TIP3   OH280298   6.161   4.667  17.187  0.2817 -0.4099 -0.8948
19628TIP3    H180299   6.139   4.589  17.135 -0.5941  1.8369 -4.2513
19628TIP3    H280300   6.130   4.740  17.133  0.5616  2.2860  2.3182
19629TIP3   OH280301   4.884   2.951  11.808 -0.1019 -0.0729  0.4031
19629TIP3    H180302   4.934   2.932  11.729  1.7769 -0.3862  1.6202
19629TIP3    H280303   4.909   3.040  11.831 -1.8192  0.6061 -0.1422
19630TIP3   OH280304   1.834   5.881  12.039 -0.1639  0.5028 -0.1683
19630TIP3    H180305   1.873   5.911  11.957 -0.2167  0.3872 -0.2352
19630TIP3    H280306   1.782   5.956  12.069 -1.3035  0.0611 -0.9676
19631TIP3   OH280307   4.233   0.324  12.345 -0.0628  0.1667 -0.0067
19631TIP3    H180308   4.296   0.351  12.278  0.8308  1.0555  1.1597
19631TIP3    H280309   4.174   0.399  12.355 -1.1976 -0.5620 -0.9017
19632TIP3   OH280310   5.357   4.512   5.488  0.1739 -0.0884  0.4676
19632TIP3    H180311   5.447   4.511   5.519  0.4950 -0.4480 -0.4318
19632TIP3    H280312   5.363   4.484   5.397 -0.9295 -0.9144  0.6242
19633TIP3   OH280313   0.278   4.412   3.736  0.3373  0.0749 -0.0592
19633TIP3    H180314   0.351   4.399   3.676  0.6304 -0.9369  0.4967
19633TIP3    H280315   0.277   4.507   3.752  1.4539  0.1255 -0.1797
19634TIP3   OH280316   1.776   1.730  16.989  0.3480  0.3481 -0.3070
19634TIP3    H180317   1.691   1.726  16.946  0.1739  1.3370 -0.0758
19634TIP3    H280318   1.788   1.643  17.027  0.2351 -0.3495 -1.8268
19635TIP3   OH280319   6.665   1.750   1.400  0.4373 -0.3960  0.5255
19635TIP3    H180320   6.621   1.769   1.317 -0.5653 -1.0105  0.8958
19635TIP3    H280321   6.658   1.655   1.409 -0.5181 -0.2173  1.8746
19636TIP3   OH280322   3.092   2.904   3.860 -0.0719  0.6418 -0.1089
19636TIP3    H180323   3.130   2.863   3.938 -0.7489  1.9708  0.9701
19636TIP3    H280324   3.137   2.862   3.786 -2.7702 -4.2439  0.6289
19637TIP3   OH280325   6.078   1.609   2.359  0.2726 -0.2885 -0.4341
19637TIP3    H180326   6.107   1.693   2.392  1.6748 -0.8970 -0.0553
19637TIP3    H280327   6.099   1.610   2.265  2.6456 -1.1215  0.0202
19638TIP3   OH280328   4.317   0.227   2.150 -0.2551  0.3860  0.1434
19638TIP3    H180329   4.228   0.242   2.180  0.1707  1.7074  0.8277
19638TIP3    H280330   4.309   0.157   2.086 -1.2642 -2.4021  3.0443
19639TIP3   OH280331   6.477   4.071  12.918 -0.0879 -0.8122 -0.9355
19639TIP3    H180332   6.402   4.015  12.936  0.5522 -1.2212  0.5928
19639TIP3    H280333   6.547   4.011  12.892  0.0484 -0.5467 -1.1894
19640TIP3   OH280334   1.884   3.501  13.114 -0.6084 -0.2468 -0.6997
19640TIP3    H180335   1.893   3.553  13.193 -0.7784  0.1035 -0.9111
19640TIP3    H280336   1.842   3.420  13.143  0.7288 -0.7703 -0.1678
19641TIP3   OH280337   4.804   0.531   5.468 -0.1628 -0.5878 -0.4795
19641TIP3    H180338   4.721   0.533   5.421 -0.1762  0.2334 -0.4296
19641TIP3    H280339   4.845   0.615   5.448  0.4248 -0.7748 -0.0846
19642TIP3   OH280340   6.307   6.095  13.799 -0.2259 -0.0019  0.6614
19642TIP3    H180341   6.288   6.003  13.780 -2.4897  0.7716 -1.3993
19642TIP3    H280342   6.231   6.126  13.847  0.1981  0.9520  0.7386
19643TIP3   OH280343   5.049   5.244  11.038 -0.2809 -0.0435 -0.0036
19643TIP3    H180344   5.026   5.291  10.958 -1.0477  0.0856  0.2824
19643TIP3    H280345   4.965   5.228  11.081  0.0673 -0.7016  0.4451
19644TIP3   OH280346   2.089   6.202   5.233 -0.2344  0.4885  0.3495
19644TIP3    H180347   2.175   6.237   5.257 -0.2506  0.0538  1.0475
19644TIP3    H280348   2.103   6.108   5.222 -0.5714  0.4515  0.2232
19645TIP3   OH280349   5.678   0.712  12.662  0.3938 -0.1224  0.0560
19645TIP3    H180350   5.671   0.671  12.575 -1.1096  0.6998 -0.2436
19645TIP3    H280351   5.590   0.705  12.699  0.3663  1.8194  0.4561
19646TIP3   OH280352   0.820   6.743  12.495  0.1787 -0.0385 -0.1730
19646TIP3    H180353   0.865   6.672  12.450  0.8868  0.6825 -0.6417
19646TIP3    H280354   0.885   6.813  12.500 -0.4372  0.5037  0.4517
19647TIP3   OH280355   3.425   3.242  16.423  0.4716  0.4106  0.0122
19647TIP3    H180356   3.455   3.333  16.428  0.0407  0.5857 -0.5346
19647TIP3    H280357   3.455   3.211  16.338  0.0222  0.2544 -0.0905
19648TIP3   OH280358   4.203   4.384  10.831  0.1673  0.0439 -0.0509
19648TIP3    H180359   4.130   4.327  10.807  0.2007 -0.1607  0.3171
19648TIP3    H280360   4.269   4.366  10.765  0.5212 -1.0232  0.5531
19649TIP3   OH280361   2.725   5.892   1.341  0.3193  0.0444  0.0291
19649TIP3    H180362   2.763   5.829   1.280  0.1367  0.2795 -0.3299
19649TIP3    H280363   2.632   5.892   1.322  0.2514  0.0822  0.3462
19650TIP3   OH280364   2.437   6.084  14.232  0.3058 -0.1133  0.1744
19650TIP3    H180365   2.482   6.009  14.193  0.7325 -0.6729  1.6683
19650TIP3    H280366   2.483   6.160  14.196  0.2303 -0.5720 -0.9293
19651TIP3   OH280367   4.817   2.064   0.317 -0.1223  0.1599 -0.1787
19651TIP3    H180368   4.803   2.031   0.405 -1.3911 -1.4476 -0.9410
19651TIP3    H280369   4.793   2.157   0.322 -2.5287 -0.4412  0.6622
19652TIP3   OH280370   5.434   4.217  13.171  0.0935  0.0671 -0.1456
19652TIP3    H180371   5.507   4.268  13.135  0.4008  0.2350  0.6900
19652TIP3    H280372   5.434   4.238  13.264 -0.7857 -0.2354 -0.0685
19653TIP3   OH280373   1.515   0.953   3.097  0.4456 -0.0927 -0.0295
19653TIP3    H180374   1.474   1.019   3.041  1.1416  0.3145 -0.0647
19653TIP3    H280375   1.595   0.995   3.129  1.4359 -1.2903 -0.8790
19654TIP3   OH280376   1.325   0.818   3.910 -0.3018 -0.1098 -0.0459
19654TIP3    H180377   1.297   0.773   3.990  3.4865  0.4007  1.7909
19654TIP3    H280378   1.406   0.774   3.885 -0.7373  0.5688 -2.9892
19655TIP3   OH280379   5.927   0.314  14.982  0.3596  0.3685  0.2300
19655TIP3    H180380   5.958   0.331  15.071  0.3043 -0.8384  0.4945
19655TIP3    H280381   5.984   0.243  14.950 -0.0510  0.3359 -0.4485
19656TIP3   OH280382   4.403   1.706   2.545  0.4347 -0.4171  0.0031
19656TIP3    H180383   4.452   1.771   2.495  1.1682 -0.8874  0.1124
19656TIP3    H280384   4.311   1.731   2.533  0.6406 -0.1540 -1.0538
19657TIP3   OH280385   4.239   0.001  12.762  0.3673 -0.2522 -0.0854
19657TIP3    H180386   4.257  -0.049  12.842 -1.7606 -0.2209  0.4633
19657TIP3    H280387   4.264   0.090  12.783 -0.8370 -0.1034  0.8427
19658TIP3   OH280388   3.145   1.720   3.328 -0.1700  0.3372  0.0197
19658TIP3    H180389   3.221   1.775   3.350  0.3945 -0.0494 -0.9280
19658TIP3    H280390   3.164   1.636   3.369 -0.1430  0.2737 -0.1243
19659TIP3   OH280391   4.057   0.926   4.785  0.5679 -0.3105 -0.2635
19659TIP3    H180392   4.137   0.902   4.738 -0.2518  0.0820 -1.9173
19659TIP3    H280393   4.049   1.021   4.773  0.2126 -0.2324  0.4956
19660TIP3   OH280394   1.160   1.155  16.559  0.1404 -0.0865 -0.4270
19660TIP3    H180395   1.101   1.188  16.627  0.2808  0.0875 -0.3881
19660TIP3    H280396   1.247   1.185  16.587  0.2986 -0.6798 -0.2737
19661TIP3   OH280397   6.751   2.911   3.793  0.7240  0.4821 -0.3614
19661TIP3    H180398   6.779   2.926   3.884  0.8897  1.5168 -0.5716
19661TIP3    H280399   6.658   2.936   3.792  0.2842 -1.0618 -0.1213
19662TIP3   OH280400   5.396   6.695  12.473 -0.5847 -0.3007 -0.0684
19662TIP3    H180401   5.480   6.649  12.470 -0.1428  0.4312  0.7522
19662TIP3    H280402   5.416   6.782  12.438 -0.9635 -0.0735  0.2755
19663TIP3   OH280403   3.622   6.538  12.208  0.2881  0.1807 -0.0592
19663TIP3    H180404   3.577   6.477  12.149 -0.0460 -1.5074  1.8397
19663TIP3    H280405   3.587   6.624  12.184 -0.2580 -0.5020 -1.9146
19664TIP3   OH280406   5.287   0.864   0.348 -0.3120 -0.1334 -0.4662
19664TIP3    H180407   5.334   0.786   0.380 -0.9372  0.3255  1.7002
19664TIP3    H280408   5.325   0.936   0.397 -0.1098  0.9069 -2.0800
19665TIP3   OH280409   3.793   6.689   4.695  0.0245 -0.3028  0.0828
19665TIP3    H180410   3.856   6.663   4.627  1.4420  0.6756  0.9521
19665TIP3    H280411   3.712   6.704   4.648  0.5614 -1.1367 -1.1658
19666TIP3   OH280412   6.733   1.280   1.403 -0.5752 -0.0203 -0.3312
19666TIP3    H180413   6.721   1.242   1.491  1.6478  0.7722  0.3902
19666TIP3    H280414   6.657   1.250   1.354 -0.8276 -2.2864  1.2474
19667TIP3   OH280415   0.586   4.968  14.050 -0.4923  0.1771  0.5631
19667TIP3    H180416   0.604   4.890  14.103  1.3580  1.0157  1.2419
19667TIP3    H280417   0.672   4.999  14.023 -1.2726  1.2725 -0.7801
19668TIP3   OH280418   1.381   1.112  11.121 -0.6495 -0.5551  0.4592
19668TIP3    H180419   1.411   1.062  11.196 -2.0136 -0.9061  0.8060
19668TIP3    H280420   1.369   1.047  11.052 -1.7586 -0.6309  0.7016
19669TIP3   OH280421   4.898   4.934   2.652  0.3993  0.2010 -0.0773
19669TIP3    H180422   4.823   4.984   2.687  1.4415  0.9600  1.1835
19669TIP3    H280423   4.859   4.854   2.617 -1.1577  1.2140 -0.7787
19670TIP3   OH280424   0.933   0.140  11.903 -0.0524 -0.2576  0.7151
19670TIP3    H180425   0.907   0.232  11.896 -0.9111 -0.6122 -1.1826
19670TIP3    H280426   0.959   0.115  11.815  1.1244 -1.5813  1.4046
19671TIP3   OH280427   3.744   5.932   0.244 -0.3031  0.0112 -0.2620
19671TIP3    H180428   3.658   5.897   0.269 -1.6552  3.4027  0.4026
19671TIP3    H280429   3.728   5.980   0.163  1.7469 -1.8164 -1.8842
19672TIP3   OH280430   5.614   6.630  12.692 -0.5385 -0.0189 -0.2734
19672TIP3    H180431   5.520   6.613  12.679 -0.9470  2.5666 -1.2851
19672TIP3    H280432   5.649   6.638  12.604  0.4735 -0.1291  0.1117
19673TIP3   OH280433   1.091   1.948   1.939 -0.3456  0.0604  0.4012
19673TIP3    H180434   1.185   1.937   1.927 -0.3324  0.2952  0.3030
19673TIP3    H280435   1.082   2.023   1.997 -0.5352  1.1743 -1.0251
19674TIP3   OH280436   0.969   4.975   1.036 -0.4575  0.1534  0.0978
19674TIP3    H180437   1.036   4.912   1.011  0.1569  0.5207  0.7712
19674TIP3    H280438   0.953   5.027   0.957  0.3020  0.2806  0.0263
19675TIP3   OH280439   0.270   0.590   3.415 -1.1512  0.2396 -0.1504
19675TIP3    H180440   0.243   0.507   3.453  0.4815 -0.2549  0.0347
19675TIP3    H280441   0.322   0.632   3.484 -1.3762  1.0985 -0.4914
19676TIP3   OH280442   2.630   4.207   3.135 -0.6687  0.0193 -0.1380
19676TIP3    H180443   2.595   4.140   3.077  1.6763 -1.3201 -0.1346
19676TIP3    H280444   2.622   4.170   3.223 -0.2201  0.1396 -0.0443
19677TIP3   OH280445   0.177   6.211  14.059  0.2474  0.1340 -0.0240
19677TIP3    H180446   0.254   6.267  14.048  0.0976  0.0560 -1.6257
19677TIP3    H280447   0.134   6.245  14.138  0.6500  1.6991 -0.4504
19678TIP3   OH280448   3.029   5.332   0.281 -0.3137 -0.5512 -0.4647
19678TIP3    H180449   3.085   5.283   0.221  2.0790  0.3117  0.9025
19678TIP3    H280450   3.008   5.413   0.234  0.3679 -0.4984 -0.6903
19679TIP3   OH280451   5.561   0.282  14.183  0.5217 -0.6612  0.1037
19679TIP3    H180452   5.537   0.342  14.112 -0.5777 -0.2909  0.7657
19679TIP3    H280453   5.590   0.339  14.254 -0.2863 -0.9148  0.6499
19680TIP3   OH280454   4.298   5.743   0.562 -0.0023 -0.5127 -0.0063
19680TIP3    H180455   4.327   5.695   0.640  1.6438  0.0650 -0.2211
19680TIP3    H280456   4.375   5.793   0.535 -1.5908  2.2754  0.2040
19681TIP3   OH280457   5.082   6.142   4.559 -0.3848  0.2758  0.0859
19681TIP3    H180458   5.105   6.182   4.643  0.4239 -0.5723  0.2869
19681TIP3    H280459   5.070   6.216   4.500  0.8318  0.8426  0.5082
19682TIP3   OH280460   3.447   5.295   2.528  0.8233  0.1776 -0.1523
19682TIP3    H180461   3.451   5.386   2.558  1.2400 -0.4387  1.8123
19682TIP3    H280462   3.520   5.286   2.467  0.4056  1.2875 -0.8549
19683TIP3   OH280463   4.177   3.434   5.674  0.4086 -0.0587  0.3426
19683TIP3    H180464   4.168   3.505   5.738 -1.7002  0.8558 -0.8621
19683TIP3    H280465   4.131   3.360   5.714 -1.8981  0.8461 -0.4991
19684TIP3   OH280466   2.562   1.329   6.506 -0.2572 -0.4001 -0.2934
19684TIP3    H180467   2.468   1.326   6.520  0.1004 -2.8916  2.5743
19684TIP3    H280468   2.586   1.239   6.484  1.5791 -0.1490  0.4703
19685TIP3   OH280469   6.636   0.715   5.662  0.8325  0.4170 -0.5727
19685TIP3    H180470   6.701   0.757   5.719 -1.5404  0.2118  2.4987
19685TIP3    H280471   6.596   0.788   5.615  0.6059  0.9821  0.4730
19686TIP3   OH280472   5.627   6.324  16.588  0.4484  0.7403  0.0322
19686TIP3    H180473   5.663   6.241  16.555 -0.8776  0.2226 -0.1946
19686TIP3    H280474   5.665   6.391  16.532  0.5750  0.1556 -0.5945
19687TIP3   OH280475   1.184   1.648  13.132  0.5233  0.3601  0.2488
19687TIP3    H180476   1.106   1.692  13.167  0.1341  0.4203 -0.6720
19687TIP3    H280477   1.157   1.616  13.047  1.0965 -0.8610  0.5121
19688TIP3   OH280478   4.427   5.978  11.954 -0.4469  0.1572  0.3543
19688TIP3    H180479   4.363   5.988  11.883  0.1302 -0.2493 -0.2339
19688TIP3    H280480   4.408   5.893  11.992 -0.9330  0.4925  0.8759
19689TIP3   OH280481   4.520   5.403  16.311 -0.1418 -0.2580 -0.1023
19689TIP3    H180482   4.519   5.375  16.220 -0.4671  0.3819 -0.2985
19689TIP3    H280483   4.520   5.321  16.361 -1.7527 -0.6315 -0.6496
19690TIP3   OH280484   0.433   5.816  13.691  0.2920 -0.2387 -0.4913
19690TIP3    H180485   0.486   5.743  13.661  1.5721  0.5413 -0.1874
19690TIP3    H280486   0.484   5.856  13.761 -0.1610  1.2386 -0.9698
19691TIP3   OH280487   0.764   3.338  13.721  0.0567  0.1982 -0.2386
19691TIP3    H180488   0.678   3.298  13.709 -0.4457  0.6373  1.6251
19691TIP3    H280489   0.790   3.366  13.633 -1.0334 -1.2401 -1.0689
19692TIP3   OH280490   0.673   6.542  15.631  0.6326 -0.0807 -0.1124
19692TIP3    H180491   0.593   6.497  15.605  1.0975 -0.7034 -0.5010
19692TIP3    H280492   0.743   6.494  15.586  1.3220 -0.2427  1.0853
19693TIP3   OH280493   6.444   1.248   6.027 -0.0064  0.4338 -0.4228
19693TIP3    H180494   6.466   1.291   6.110 -0.3091 -0.9040  0.3872
19693TIP3    H280495   6.528   1.243   5.980  0.3581  0.3557  0.2214
19694TIP3   OH280496   0.914   3.745  11.330 -0.0468 -0.2556  0.0166
19694TIP3    H180497   0.925   3.654  11.357 -2.0616 -0.1706  1.2708
19694TIP3    H280498   0.868   3.739  11.246  1.3177 -0.3852 -0.7576
19695TIP3   OH280499   3.185   3.624   2.286 -0.2109 -0.2199 -0.3347
19695TIP3    H180500   3.178   3.673   2.368  1.6922 -1.4726  0.6564
19695TIP3    H280501   3.114   3.561   2.289 -0.6984  0.3390 -0.0749
19696TIP3   OH280502   6.342   3.991  11.081  0.0854  0.1718 -0.6544
19696TIP3    H180503   6.415   4.001  11.019  1.0165 -0.6559  0.2501
19696TIP3    H280504   6.299   4.076  11.082  1.7381  1.0470 -0.3802
19697TIP3   OH280505   3.625   5.324   0.672  0.1586 -0.0246 -0.6761
19697TIP3    H180506   3.546   5.367   0.639  0.3791 -0.0143 -1.1973
19697TIP3    H280507   3.692   5.393   0.669  0.9830 -0.8658 -3.2675
19698TIP3   OH280508   6.641   6.321  11.319 -0.3889 -0.4482 -0.2951
19698TIP3    H180509   6.603   6.243  11.279  1.0074 -1.7031  0.6853
19698TIP3    H280510   6.705   6.286  11.381  1.1748  1.5066 -0.7154
19699TIP3   OH280511   3.172   6.226  16.226 -0.7149 -0.0523 -0.3566
19699TIP3    H180512   3.187   6.211  16.133 -1.5455 -0.9003 -0.3691
19699TIP3    H280513   3.216   6.309  16.245 -0.6621  0.1991 -1.5300
19700TIP3   OH280514   3.987   5.400   6.271 -0.2004 -0.7655  0.1444
19700TIP3    H180515   3.966   5.359   6.355  2.6344  0.8141  1.8286
19700TIP3    H280516   4.022   5.329   6.217  0.4361 -1.3897  1.3286
19701TIP3   OH280517   4.961   3.739   5.363 -0.1053  0.8187  0.7394
19701TIP3    H180518   5.040   3.730   5.415  0.7475  0.6086 -0.5617
19701TIP3    H280519   4.981   3.809   5.301 -0.0235 -0.8711 -1.2105
19702TIP3   OH280520   1.702   1.811   2.930  0.3850  0.1412  0.3405
19702TIP3    H180521   1.781   1.796   2.983  2.2730  1.6266 -1.8504
19702TIP3    H280522   1.686   1.905   2.938  0.2457  0.2490 -1.0501
19703TIP3   OH280523   4.059   6.721   3.552 -0.0776 -0.1392  0.0307
19703TIP3    H180524   4.113   6.747   3.478 -0.7661 -1.0635 -0.8329
19703TIP3    H280525   4.121   6.698   3.621  0.5671  1.0781 -0.1253
19704TIP3   OH280526   4.599   2.213   4.176  0.2552  0.0690  0.6970
19704TIP3    H180527   4.599   2.140   4.238  0.8775  0.4383  1.1347
19704TIP3    H280528   4.670   2.191   4.115  0.1502  0.0944  0.5642
19705TIP3   OH280529   6.242   1.364   0.541 -0.3006  0.0152  0.1990
19705TIP3    H180530   6.158   1.336   0.504 -0.3452  1.5538 -0.9703
19705TIP3    H280531   6.227   1.454   0.569  0.8108  0.1203  0.5056
19706TIP3   OH280532   1.650   5.521   1.734 -0.4575 -0.4651 -0.3439
19706TIP3    H180533   1.694   5.459   1.792  0.8500  2.1197  1.6474
19706TIP3    H280534   1.557   5.508   1.753 -0.3803 -3.0065 -1.3729
19707TIP3   OH280535   6.540   6.264  15.238 -0.1364 -0.4255 -0.4061
19707TIP3    H180536   6.601   6.270  15.311 -0.0224  2.2001 -0.6173
19707TIP3    H280537   6.580   6.317  15.169 -2.0527  0.4199 -0.9461
19708TIP3   OH280538   0.383   0.729   0.095  0.6089 -0.1345  0.2466
19708TIP3    H180539   0.369   0.650   0.043 -0.0878  0.6591 -0.8408
19708TIP3    H280540   0.464   0.766   0.061  0.9814 -0.4318  0.8153
19709TIP3   OH280541   2.982   4.306   5.070  0.1556 -0.3307  0.7676
19709TIP3    H180542   2.960   4.263   4.987  1.3572  1.3285 -0.4905
19709TIP3    H280543   3.008   4.235   5.128 -0.1560 -1.4874 -0.4604
19710TIP3   OH280544   1.351   3.523  14.732  0.5853  0.4094 -0.1410
19710TIP3    H180545   1.275   3.551  14.681 -1.3536 -1.4189  1.5476
19710TIP3    H280546   1.392   3.604  14.760 -0.3613  1.4626 -1.5911
19711TIP3   OH280547   4.590   2.675  16.935  0.3044  0.0816  0.5041
19711TIP3    H180548   4.557   2.657  17.022  1.4838 -0.9692  0.7734
19711TIP3    H280549   4.616   2.589  16.901  1.5707  0.6806 -0.1393
19712TIP3   OH280550   1.781   5.150   1.425  0.4238  0.1312 -0.1895
19712TIP3    H180551   1.711   5.212   1.448 -0.2746 -0.7532  0.1189
19712TIP3    H280552   1.834   5.145   1.504 -0.4609 -0.8836  0.3738
19713TIP3   OH280553   3.665   1.596  11.900 -0.1449  0.0297  0.2624
19713TIP3    H180554   3.615   1.590  11.818  1.1307 -1.2004 -0.4750
19713TIP3    H280555   3.711   1.512  11.905  1.0958  0.7569  1.3953
19714TIP3   OH280556   4.380   6.554   4.908 -0.4941  0.0889  0.2329
19714TIP3    H180557   4.358   6.621   4.973 -0.4744 -0.3176  0.6580
19714TIP3    H280558   4.341   6.587   4.827  1.0694  1.5252  0.0181
19715TIP3   OH280559   5.422   3.652   1.967 -0.2488  0.2752 -1.2835
19715TIP3    H180560   5.330   3.643   1.992 -0.1607 -0.8627 -1.3305
19715TIP3    H280561   5.471   3.635   2.047 -0.0694  3.4730 -0.5549
19716TIP3   OH280562   0.673   5.690  12.480  0.2957 -0.0559  0.4558
19716TIP3    H180563   0.769   5.688  12.478  0.2836 -1.3761  0.5569
19716TIP3    H280564   0.647   5.616  12.425 -0.6919  1.0789 -0.6577
19717TIP3   OH280565   2.946   4.600   4.315 -0.4198  0.3252 -0.1990
19717TIP3    H180566   3.000   4.567   4.243 -0.5367 -1.6667  0.5643
19717TIP3    H280567   2.936   4.694   4.297  2.6710  0.6446 -0.7416
19718TIP3   OH280568   5.103   6.384  16.014  0.8415 -0.4516  0.2053
19718TIP3    H180569   5.032   6.413  16.073  1.1082  1.3349 -0.3037
19718TIP3    H280570   5.168   6.453  16.020  0.4119  0.3676 -3.0075
19719TIP3   OH280571   6.180   3.605  14.266 -0.2278  0.5567  0.6036
19719TIP3    H180572   6.264   3.579  14.229 -0.3439  1.5512 -0.4038
19719TIP3    H280573   6.202   3.679  14.323 -0.6895  2.5855 -1.7034
19720TIP3   OH280574   3.755   5.614  12.178 -0.0099  0.0191 -0.4238
19720TIP3    H180575   3.792   5.528  12.159 -2.0058 -0.8920 -0.3405
19720TIP3    H280576   3.725   5.647  12.093  1.5442  1.0935 -0.6194
19721TIP3   OH280577   3.064   1.448   2.238 -0.1691  0.4111 -0.2563
19721TIP3    H180578   3.089   1.449   2.145 -0.4720  1.1863 -0.3368
19721TIP3    H280579   3.119   1.515   2.278  0.7251 -0.6449  0.3454
19722TIP3   OH280580   3.957   4.071  13.313  0.5409  0.6547 -0.1957
19722TIP3    H180581   4.003   4.153  13.332  0.4346  0.6854 -0.0711
19722TIP3    H280582   3.885   4.097  13.255  0.7663  0.5854 -0.5085
19723TIP3   OH280583   4.432   4.518   4.970 -0.3142 -0.3085  0.4433
19723TIP3    H180584   4.414   4.468   4.891 -0.1260  1.2435 -0.6312
19723TIP3    H280585   4.346   4.534   5.009 -0.4879 -0.3487  0.0742
19724TIP3   OH280586   5.031   2.089  14.855 -0.7625 -0.4879  0.1161
19724TIP3    H180587   5.072   2.169  14.823 -0.0409  0.8745  3.8445
19724TIP3    H280588   5.101   2.024  14.855  0.0872  0.3659  1.6307
19725TIP3   OH280589   2.525   4.194  11.018  0.1604  0.3480  0.0649
19725TIP3    H180590   2.499   4.265  10.960  0.9377  1.9369  1.5874
19725TIP3    H280591   2.443   4.147  11.037 -0.6302  1.7363  0.1887
19726TIP3   OH280592   2.854   0.869  12.807  0.0428  0.2721  0.2825
19726TIP3    H180593   2.889   0.794  12.854  0.9585 -0.2982 -1.2409
19726TIP3    H280594   2.911   0.942  12.833  1.6762 -0.3941 -1.2145
19727TIP3   OH280595   2.117   5.924   3.326 -0.4614 -0.7399  0.5388
19727TIP3    H180596   2.209   5.912   3.348 -0.0769 -1.3402 -1.2279
19727TIP3    H280597   2.103   6.019   3.330  0.4049 -0.5933  0.2099
19728TIP3   OH280598   2.745   1.151  13.921 -0.2420  0.8256 -0.0530
19728TIP3    H180599   2.662   1.198  13.929 -0.1046  1.0640 -0.0466
19728TIP3    H280600   2.728   1.067  13.964 -0.0731  1.3860  1.1357
19729TIP3   OH280601   6.565   5.715  11.925  0.1045 -0.5869  0.9987
19729TIP3    H180602   6.608   5.706  12.010 -0.8260  0.0914  1.5567
19729TIP3    H280603   6.521   5.631  11.912  3.1380 -2.1160 -0.5308
19730TIP3   OH280604   5.284   6.205   5.127  0.4121  0.1543  0.0041
19730TIP3    H180605   5.207   6.250   5.164 -0.0846  0.8619 -1.8077
19730TIP3    H280606   5.269   6.112   5.147  0.1220  0.4819  1.4424
19731TIP3   OH280607   2.289   0.839   3.055 -0.6811  0.3511 -0.1279
19731TIP3    H180608   2.222   0.874   3.114  0.8949  1.8623  0.8488
19731TIP3    H280609   2.305   0.750   3.088 -0.2153  0.9812  1.4528
19732TIP3   OH280610   1.900   0.187   4.108 -0.0727  0.5677  0.4916
19732TIP3    H180611   1.905   0.214   4.017 -0.3875  0.6976  0.5120
19732TIP3    H280612   1.863   0.099   4.106 -0.0043  0.5393  0.4878
19733TIP3   OH280613   6.595   1.667  11.002  0.2374  0.2006 -0.3779
19733TIP3    H180614   6.543   1.687  11.080 -1.1626  1.6519 -1.6419
19733TIP3    H280615   6.538   1.613  10.948  0.7384  0.2621 -0.9738
19734TIP3   OH280616   4.446   5.656   3.076 -0.0407 -0.5627 -0.0095
19734TIP3    H180617   4.421   5.748   3.081  2.2457  0.1357 -0.7174
19734TIP3    H280618   4.445   5.636   2.983  1.8114 -0.5430 -0.0558
19735TIP3   OH280619   1.090   5.439   2.653 -0.3062  0.0788 -0.7272
19735TIP3    H180620   1.070   5.360   2.603  1.2385 -0.9388  0.1849
19735TIP3    H280621   1.177   5.423   2.689  0.4846  2.5934 -1.2996
19736TIP3   OH280622   1.358   2.020  15.439 -0.0172  0.4206 -0.3851
19736TIP3    H180623   1.385   1.955  15.504 -1.3837 -0.7932 -0.9739
19736TIP3    H280624   1.263   2.010  15.433 -0.3722  2.9774 -0.0067
19737TIP3   OH280625   6.171   4.358   2.683  0.2047  0.2699  0.3191
19737TIP3    H180626   6.200   4.268   2.672 -1.6139 -0.0824 -2.8102
19737TIP3    H280627   6.079   4.350   2.707 -0.3578  1.2211 -1.3792
19738TIP3   OH280628   3.378   1.259   5.619  0.1008  0.4163  0.8030
19738TIP3    H180629   3.293   1.221   5.596  0.8792 -0.0429 -1.6316
19738TIP3    H280630   3.379   1.260   5.715 -1.5131 -2.1616  0.9350
19739TIP3   OH280631   5.814   5.958   3.656 -0.0730 -1.1097 -0.4710
19739TIP3    H180632   5.908   5.952   3.668  0.1893 -0.2594 -1.8377
19739TIP3    H280633   5.784   6.018   3.724  0.3001 -1.7460  0.2605
19740TIP3   OH280634   0.720   5.933   1.500 -0.0909  0.7005 -0.0017
19740TIP3    H180635   0.790   5.923   1.436  0.1775  1.2263  0.2070
19740TIP3    H280636   0.646   5.967   1.450 -0.5231 -0.7740 -0.4168
19741TIP3   OH280637   6.185   5.288  14.169  0.3629 -0.3225  0.3157
19741TIP3    H180638   6.276   5.270  14.190  0.6202  0.9715  0.3621
19741TIP3    H280639   6.150   5.331  14.247  0.6722  2.3291 -0.9045
19742TIP3   OH280640   4.920   5.385  15.239  0.2869  0.5051 -1.0626
19742TIP3    H180641   4.911   5.459  15.299 -0.0269 -0.1869 -0.2383
19742TIP3    H280642   4.988   5.330  15.278 -1.9191 -1.4730  0.3502
19743TIP3   OH280643   0.569   4.848  14.893 -0.2690 -0.2048 -0.0981
19743TIP3    H180644   0.645   4.906  14.881 -1.5399  1.5594  0.0574
19743TIP3    H280645   0.497   4.893  14.849 -1.1422 -2.1236 -0.7606
19744TIP3   OH280646   4.404   2.817   6.499  0.3478 -0.2564 -0.1445
19744TIP3    H180647   4.470   2.755   6.468  0.9002  0.1994  0.1218
19744TIP3    H280648   4.329   2.802   6.441  1.4784  0.8472 -2.0032
19745TIP3   OH280649   4.845   1.858   5.679 -0.3912 -0.2884 -0.4082
19745TIP3    H180650   4.926   1.907   5.661 -0.2613 -0.1562  0.4983
19745TIP3    H280651   4.841   1.852   5.774 -0.6254 -1.6995 -0.4920
19746TIP3   OH280652   4.751   2.258   4.458  0.5434  0.3399 -0.7058
19746TIP3    H180653   4.818   2.274   4.392  0.5023 -0.0522 -0.8480
19746TIP3    H280654   4.735   2.163   4.453  0.5765  0.3017 -0.1001
19747TIP3   OH280655   6.434   3.879   0.429  0.3436  0.1052 -0.3405
19747TIP3    H180656   6.408   3.945   0.493 -1.6694 -0.1391 -0.8300
19747TIP3    H280657   6.446   3.928   0.348  0.4469  0.0925 -0.3326
19748TIP3   OH280658   3.632   0.742   1.087 -0.7142  0.0871 -0.0543
19748TIP3    H180659   3.715   0.760   1.132 -1.2281  0.3545  0.7892
19748TIP3    H280660   3.571   0.806   1.122 -1.0675  0.4779 -1.3255
19749TIP3   OH280661   1.635   5.272   5.585 -0.4234 -0.4345 -0.0947
19749TIP3    H180662   1.648   5.217   5.662 -0.5701  2.3127  2.0835
19749TIP3    H280663   1.545   5.304   5.594 -0.3176  0.2276 -1.2122
19750TIP3   OH280664   0.528   0.308   4.330  0.6008  0.4660 -0.2495
19750TIP3    H180665   0.526   0.398   4.299 -1.6187  0.5626 -0.0332
19750TIP3    H280666   0.618   0.293   4.359  1.2101  2.3115 -1.0883
19751TIP3   OH280667   6.338   5.810  13.699  0.4350  0.2729 -0.5724
19751TIP3    H180668   6.392   5.811  13.778 -1.1830 -1.2350  0.6126
19751TIP3    H280669   6.400   5.793  13.628  1.4745 -2.0698  0.8116
19752TIP3   OH280670   0.378   6.747  14.112 -0.1612 -0.2493  0.3220
19752TIP3    H180671   0.289   6.764  14.141 -0.5254  0.6367 -1.2361
19752TIP3    H280672   0.427   6.824  14.141 -0.3497  0.2445 -0.6631
19753TIP3   OH280673   1.450   1.294   1.010 -0.1550  0.0847 -0.3542
19753TIP3    H180674   1.545   1.295   0.999 -0.0183  0.1308  0.7229
19753TIP3    H280675   1.421   1.215   0.965  0.3556  0.2281 -0.9428
19754TIP3   OH280676   6.102   5.455  15.868  0.4156 -0.3304 -0.0602
19754TIP3    H180677   6.016   5.422  15.844  0.6947  0.0225 -1.6539
19754TIP3    H280678   6.147   5.381  15.908 -0.6205 -0.5070  0.8217
19755TIP3   OH280679   2.885   0.683   4.159  0.2977  0.0279  0.1675
19755TIP3    H180680   2.909   0.671   4.251 -1.8661 -0.3553  0.7425
19755TIP3    H280681   2.957   0.642   4.110  1.9557  1.0666  1.6237
19756TIP3   OH280682   6.146   5.829   1.590 -0.1456 -0.3120  0.1100
19756TIP3    H180683   6.094   5.778   1.528 -0.0385 -1.2733  0.7829
19756TIP3    H280684   6.082   5.865   1.652 -0.1032 -0.7439  0.4097
19757TIP3   OH280685   1.320   2.802  16.790 -0.2365  0.4662 -0.3791
19757TIP3    H180686   1.374   2.857  16.846 -0.6088  1.5830 -1.0794
19757TIP3    H280687   1.301   2.856  16.714 -1.4771 -0.2632 -0.6257
19758TIP3   OH280688   6.085   3.579  16.018 -0.1955 -0.0713 -0.6052
19758TIP3    H180689   6.172   3.554  15.988  0.9293 -0.9571  3.0152
19758TIP3    H280690   6.083   3.675  16.009  1.0296 -0.0609 -0.9051
19759TIP3   OH280691   2.859   3.512   1.281  0.4903 -0.3767 -0.1819
19759TIP3    H180692   2.946   3.539   1.254  0.3458  0.6145  0.2837
19759TIP3    H280693   2.807   3.593   1.277 -0.5325 -1.0504 -0.9473
19760TIP3   OH280694   4.402   5.870   2.179 -0.0449  0.6283  0.7513
19760TIP3    H180695   4.473   5.915   2.226  0.2460  0.0435  0.8857
19760TIP3    H280696   4.442   5.788   2.149 -0.4449  0.6515  0.1369
19761TIP3   OH280697   5.847   4.998  14.939 -0.2756 -0.1183  0.2633
19761TIP3    H180698   5.757   4.988  14.907 -0.9569  2.3987  1.1200
19761TIP3    H280699   5.837   5.014  15.033  1.2301 -1.5268  0.6957
19762TIP3   OH280700   2.456   5.313  16.920  0.2807 -0.3730 -0.4150
19762TIP3    H180701   2.549   5.289  16.914  0.4604  0.3697 -0.8335
19762TIP3    H280702   2.444   5.379  16.851  0.1704  1.7084  1.4516
19763TIP3   OH280703   0.505   5.012   1.539 -0.0194  0.1180 -1.0532
19763TIP3    H180704   0.519   4.917   1.548 -0.3940  0.0999 -0.5999
19763TIP3    H280705   0.443   5.020   1.466 -2.4333 -0.2178  0.8171
19764TIP3   OH280706   3.204   6.337   0.446  0.5175  0.2224 -0.5593
19764TIP3    H180707   3.213   6.359   0.353 -0.4174  0.2109 -0.6532
19764TIP3    H280708   3.124   6.285   0.451  1.7701 -1.7758 -0.0914
19765TIP3   OH280709   2.963   2.854  13.057 -0.3686 -0.9547  0.2872
19765TIP3    H180710   2.918   2.838  12.974 -1.8832  1.3867  0.5469
19765TIP3    H280711   2.970   2.768  13.098 -2.6597 -1.7434 -0.7843
19766TIP3   OH280712   4.021   4.799  17.132  0.0499  0.4136  0.3946
19766TIP3    H180713   4.085   4.755  17.188  0.3721 -0.3580 -0.5443
19766TIP3    H280714   4.052   4.782  17.043 -2.2632 -1.3011 -0.1739
19767TIP3   OH280715   5.150   4.485   4.260 -0.0487 -0.3467  0.1746
19767TIP3    H180716   5.229   4.518   4.304  0.2943 -0.2123 -0.5129
19767TIP3    H280717   5.182   4.456   4.174 -0.8154  0.0940 -0.2682
19768TIP3   OH280718   3.371   0.300  16.680  0.1041  0.6729 -0.1278
19768TIP3    H180719   3.426   0.300  16.758 -1.5063  0.1313  1.0558
19768TIP3    H280720   3.430   0.325  16.609  1.6406  1.0411  1.2279
19769TIP3   OH280721   2.350   3.516   2.200 -0.3079  0.3181 -0.3626
19769TIP3    H180722   2.314   3.434   2.167  0.3169 -0.1691  0.1603
19769TIP3    H280723   2.297   3.584   2.157 -2.6449 -0.3703  1.1969
19770TIP3   OH280724   2.920   0.078  15.879 -0.3490  0.6383  0.1007
19770TIP3    H180725   2.833   0.051  15.908 -1.4259  2.7675 -0.9040
19770TIP3    H280726   2.937   0.024  15.802  0.2067 -1.2822  1.5017
19771TIP3   OH280727   3.122   2.254   0.581 -0.2642 -0.2638 -0.0046
19771TIP3    H180728   3.040   2.300   0.595  0.8762  1.9784 -0.3332
19771TIP3    H280729   3.188   2.307   0.625  1.2926 -0.8586 -1.4881
19772TIP3   OH280730   4.391   0.178  13.452 -0.4996 -0.6351 -0.2550
19772TIP3    H180731   4.382   0.269  13.423 -1.3857 -0.6051  0.0738
19772TIP3    H280732   4.485   0.163  13.456 -0.3192  0.5732  0.6025
19773TIP3   OH280733   2.049   1.805   6.073 -0.1343  0.6851  0.0804
19773TIP3    H180734   2.087   1.884   6.036  0.1922  1.0375  1.1113
19773TIP3    H280735   2.002   1.836   6.151  1.6552 -0.3317  1.6433
19774TIP3   OH280736   6.355   4.308  13.052 -0.2175 -0.1893  0.3299
19774TIP3    H180737   6.377   4.225  13.010 -1.6625 -0.7646  0.6564
19774TIP3    H280738   6.415   4.371  13.013  1.4190 -1.5129  0.6291
19775TIP3   OH280739   1.909   4.063   5.120 -0.0409  0.4072  0.2102
19775TIP3    H180740   1.910   4.143   5.172 -1.6257  0.3677  0.3471
19775TIP3    H280741   1.913   3.992   5.184 -2.5719  0.3474  0.3962
19776TIP3   OH280742   6.112   4.181  15.190 -0.1818  0.3655  0.1916
19776TIP3    H180743   6.099   4.090  15.215  0.5278  0.0725 -0.4802
19776TIP3    H280744   6.062   4.192  15.109  1.1685  0.0821 -0.6941
19777TIP3   OH280745   4.166   2.358   3.016 -0.2587  0.1406 -0.2592
19777TIP3    H180746   4.237   2.304   2.981 -0.1090  0.7483 -0.9354
19777TIP3    H280747   4.207   2.443   3.031 -0.4221 -0.0025  1.0587
19778TIP3   OH280748   1.011   1.465  16.952  0.2953  0.1143 -0.4722
19778TIP3    H180749   0.987   1.410  16.878  0.2117  2.8923 -2.6789
19778TIP3    H280750   1.073   1.412  17.002 -0.2394 -2.1717 -2.0867
19779TIP3   OH280751   1.953   0.755   5.153  0.7898 -0.1235  0.1746
19779TIP3    H180752   1.897   0.822   5.114  1.1808  0.2545  0.2555
19779TIP3    H280753   2.030   0.753   5.097  1.0564 -0.0574  0.5375
19780TIP3   OH280754   3.496   0.290   2.715  0.2171  0.1015 -0.5653
19780TIP3    H180755   3.519   0.343   2.639 -0.1694  1.2507  0.1069
19780TIP3    H280756   3.578   0.249   2.741  0.1617 -1.1972 -2.2405
19781TIP3   OH280757   6.390   3.045  12.852 -0.4099  0.2475  0.6200
19781TIP3    H180758   6.372   2.958  12.889 -1.2119  0.4965  0.8527
19781TIP3    H280759   6.365   3.038  12.760 -3.6234  1.0751  1.3063
19782TIP3   OH280760   3.787   1.416  11.352  0.2756  0.1680  0.7836
19782TIP3    H180761   3.730   1.478  11.307 -1.2085 -1.5418  0.1674
19782TIP3    H280762   3.855   1.396  11.288 -1.0971 -1.2575 -0.3233
19783TIP3   OH280763   2.392   2.750   4.819 -0.7218  0.1656 -0.3968
19783TIP3    H180764   2.445   2.723   4.744 -1.2998  0.1971 -0.8277
19783TIP3    H280765   2.446   2.731   4.895 -0.2588 -0.1830 -0.8074
19784TIP3   OH280766   2.988   5.121  13.095 -0.3132  0.3363  0.4922
19784TIP3    H180767   2.915   5.060  13.098 -0.9042  1.0428  0.7944
19784TIP3    H280768   2.969   5.185  13.163  1.1320 -0.0622  1.3137
19785TIP3   OH280769   4.515   6.245  13.644 -0.2162  0.1800  0.4027
19785TIP3    H180770   4.529   6.260  13.738  0.3253 -0.0118  0.3539
19785TIP3    H280771   4.601   6.220  13.611 -0.2661  0.8885 -0.2731
19786TIP3   OH280772   3.438   3.421   6.133 -0.2298  0.1975 -0.1140
19786TIP3    H180773   3.440   3.325   6.131  0.5543  0.2146 -1.5659
19786TIP3    H280774   3.373   3.445   6.067 -2.3648  0.6770  2.0359
19787TIP3   OH280775   4.469   0.652  16.200  0.5531 -0.5564 -0.2537
19787TIP3    H180776   4.392   0.696  16.236 -1.3926 -1.3268 -3.0732
19787TIP3    H280777   4.456   0.560  16.222  0.9538 -0.6274 -0.3070
19788TIP3   OH280778   6.414   6.534   2.997 -0.1337  0.3311  0.3541
19788TIP3    H180779   6.370   6.541   3.082  1.0461  1.5577  0.8983
19788TIP3    H280780   6.377   6.605   2.945 -2.3958 -1.6594 -0.9676
19789TIP3   OH280781   5.271   5.492   5.943 -0.2150  0.1379 -0.1380
19789TIP3    H180782   5.243   5.538   6.022 -0.9345 -1.3173  0.4961
19789TIP3    H280783   5.197   5.500   5.883  0.6495  1.9689 -1.0474
19790TIP3   OH280784   3.217   2.849   4.109 -0.5960 -0.5423  0.1048
19790TIP3    H180785   3.232   2.775   4.168 -0.1152  0.0735  0.7724
19790TIP3    H280786   3.288   2.909   4.128 -1.2033  0.2696 -0.1478
19791TIP3   OH280787   3.147   2.341  15.865 -0.1116  0.1294 -0.3244
19791TIP3    H180788   3.178   2.253  15.886 -2.2054 -0.1410  2.0665
19791TIP3    H280789   3.199   2.367  15.788  1.5503 -2.5939 -0.2523
19792TIP3   OH280790   4.955   1.432  16.834 -0.2557 -0.2557  0.2456
19792TIP3    H180791   5.016   1.500  16.805  0.5471 -0.7366  0.7634
19792TIP3    H280792   4.936   1.381  16.755 -0.1142 -0.0058  0.0486
19793TIP3   OH280793   0.577   2.282   2.213  0.0391 -0.1902  0.2740
19793TIP3    H180794   0.579   2.196   2.256 -2.2300  0.6952  2.4485
19793TIP3    H280795   0.578   2.344   2.286 -0.3610  1.5576 -1.1612
19794TIP3   OH280796   3.779   5.632   4.513  0.2547 -0.4259 -0.0969
19794TIP3    H180797   3.697   5.659   4.556  0.5567 -0.8079  0.7606
19794TIP3    H280798   3.781   5.537   4.525  0.7994 -0.4231 -0.1567
19795TIP3   OH280799   2.856   1.566   5.194 -0.2867  0.1878 -0.2008
19795TIP3    H180800   2.906   1.618   5.131  0.3548  0.1471  0.2737
19795TIP3    H280801   2.916   1.499   5.224 -0.9048 -0.4265 -0.3005
19796TIP3   OH280802   5.614   5.807   3.184 -0.0514  0.0193  0.6225
19796TIP3    H180803   5.664   5.828   3.263 -1.2805 -1.9968  2.0197
19796TIP3    H280804   5.539   5.867   3.188  0.8254  1.2068 -0.0595
19797TIP3   OH280805   3.353   1.158   4.024 -0.3975 -0.8217  0.0144
19797TIP3    H180806   3.317   1.097   3.959 -1.4533  0.3547 -0.5432
19797TIP3    H280807   3.332   1.118   4.109 -2.3112 -0.6057 -0.3141
19798TIP3   OH280808   1.722   1.638  16.029  0.2509  0.0333  0.3841
19798TIP3    H180809   1.742   1.718  15.981  0.0684 -0.0470  0.1724
19798TIP3    H280810   1.630   1.620  16.009 -0.6709  1.5109  2.9649
19799TIP3   OH280811   6.651   0.482   4.955  0.0692 -0.6143  0.1315
19799TIP3    H180812   6.676   0.396   4.987  0.0766 -0.2895  1.0284
19799TIP3    H280813   6.628   0.532   5.034  0.1485  0.2301 -0.3622
19800TIP3   OH280814   2.229   2.204   1.099 -0.2584  0.1061 -0.1398
19800TIP3    H180815   2.217   2.288   1.054 -1.4299 -0.0245 -0.1032
19800TIP3    H280816   2.147   2.190   1.147  0.3886 -0.4770  0.8472
19801TIP3   OH280817   1.900   4.440   2.583  1.0745 -0.3216 -0.6682
19801TIP3    H180818   1.991   4.410   2.589  1.2142 -0.0926 -1.4984
19801TIP3    H280819   1.873   4.453   2.674  1.8212 -0.5433 -0.4060
19802TIP3   OH280820   3.376   3.513  11.490  0.1926  0.1351  0.1827
19802TIP3    H180821   3.462   3.471  11.491  0.0098 -0.3207 -0.9737
19802TIP3    H280822   3.349   3.516  11.582  0.5251 -1.6521  0.3713
19803TIP3   OH280823   0.785   4.798   1.713  0.3034 -0.4293 -0.4284
19803TIP3    H180824   0.859   4.828   1.661 -0.1688 -1.1141 -1.5421
19803TIP3    H280825   0.819   4.788   1.801  0.7426  2.3061 -0.2193
19804TIP3   OH280826   1.910   5.085  14.781 -0.2741  0.1583 -0.1631
19804TIP3    H180827   1.947   5.130  14.857  0.2618  1.4684 -1.1698
19804TIP3    H280828   1.938   4.994  14.791 -1.8197 -0.1460  2.1908
19805TIP3   OH280829   0.637   0.075  11.254  0.5931 -0.0761 -0.1656
19805TIP3    H180830   0.729   0.079  11.281  1.0729 -0.6817 -1.6017
19805TIP3    H280831   0.636   0.115  11.167 -1.2173  3.6513  1.3319
19806TIP3   OH280832   0.201   6.743  15.104  0.2625  0.5638  0.1966
19806TIP3    H180833   0.241   6.671  15.152 -0.0542  0.6623  0.6126
19806TIP3    H280834   0.219   6.723  15.012  1.7890  0.9303  0.3945
19807TIP3   OH280835   2.190   3.591  16.247  0.0938  0.2114 -0.0741
19807TIP3    H180836   2.257   3.576  16.314  1.5978  1.2815 -1.2610
19807TIP3    H280837   2.141   3.668  16.279  0.3688  0.3136  0.1077
19808TIP3   OH280838   0.472   0.669  14.021 -1.0083 -0.1794 -0.5540
19808TIP3    H180839   0.496   0.606  13.953  0.3092  1.2583 -1.4915
19808TIP3    H280840   0.497   0.754  13.985  0.6700  0.5676  2.0759
19809TIP3   OH280841   3.857   0.140   5.056 -0.0337 -0.2523 -0.4330
19809TIP3    H180842   3.803   0.122   4.979 -0.7454  0.5321 -0.1313
19809TIP3    H280843   3.800   0.122   5.131 -0.4739  2.0685 -0.1018
19810TIP3   OH280844   0.082   5.726  16.084  0.6257 -0.3593  0.0855
19810TIP3    H180845   0.161   5.774  16.058  1.7199 -1.3870  1.3170
19810TIP3    H280846   0.114   5.658  16.144 -1.1873 -0.9170  0.4978
19811TIP3   OH280847   5.685   4.540   4.421 -0.2484  0.0540 -0.3265
19811TIP3    H180848   5.676   4.489   4.341  0.2634 -1.1373  0.3436
19811TIP3    H280849   5.767   4.589   4.409 -1.4068  1.8158 -1.5260
19812TIP3   OH280850   0.559   3.605  12.826  0.1672  0.0428 -0.3335
19812TIP3    H180851   0.501   3.568  12.760 -1.1619  0.6464  0.4596
19812TIP3    H280852   0.576   3.532  12.886 -0.6297  0.1267  0.0024
19813TIP3   OH280853   2.982   5.086   5.677 -0.4363 -0.0700  0.0458
19813TIP3    H180854   2.903   5.123   5.637 -0.8511  0.3642  1.2427
19813TIP3    H280855   2.990   5.131   5.761  0.1567 -1.3069  0.6764
19814TIP3   OH280856   5.472   4.815  13.302  0.1349 -0.3142 -0.1378
19814TIP3    H180857   5.483   4.910  13.311 -1.3031 -0.2671  1.5193
19814TIP3    H280858   5.546   4.778  13.349  1.2547 -0.0709 -1.6104
19815TIP3   OH280859   3.398   3.359  16.821 -0.1781 -0.2295 -0.3558
19815TIP3    H180860   3.351   3.338  16.902  1.1852  2.0734  1.1809
19815TIP3    H280861   3.487   3.326  16.836  0.2262  0.6870 -0.6398
19816TIP3   OH280862   6.032   0.989  16.466 -0.7026 -0.5394  0.3850
19816TIP3    H180863   5.982   0.908  16.464  0.3992 -1.2528  1.4079
19816TIP3    H280864   5.984   1.047  16.406 -3.7352 -0.6020  2.4833
19817TIP3   OH280865   5.039   2.907  11.575  0.1385 -0.4664 -0.0391
19817TIP3    H180866   5.107   2.841  11.587 -0.2992 -0.7816  0.8012
19817TIP3    H280867   5.086   2.986  11.548  0.8884 -0.5434  1.0066
19818TIP3   OH280868   5.217   1.910   3.125 -0.0419 -0.2009 -0.5796
19818TIP3    H180869   5.252   1.845   3.064 -1.5374 -2.2914  0.6510
19818TIP3    H280870   5.125   1.919   3.101 -0.7374 -1.2531  1.4006
19819TIP3   OH280871   4.143   1.653   2.254  0.1550  0.8057  0.2699
19819TIP3    H180872   4.117   1.740   2.225  1.8172  1.7092  1.2792
19819TIP3    H280873   4.160   1.663   2.348  1.4561 -0.3131  0.1922
19820TIP3   OH280874   1.573   5.295  11.266  0.6693  0.2569 -0.3635
19820TIP3    H180875   1.619   5.225  11.220  0.3912 -0.1837  0.0162
19820TIP3    H280876   1.533   5.347  11.197 -0.0350 -0.5990 -0.6135
19821TIP3   OH280877   0.152   3.040  16.712  0.2017 -0.8187 -0.1959
19821TIP3    H180878   0.127   3.062  16.622 -0.6303 -0.8901  0.0008
19821TIP3    H280879   0.243   3.067  16.720  0.3744 -1.0881 -1.1546
19822TIP3   OH280880   2.102   3.530   5.178 -0.1401  0.8641 -0.1726
19822TIP3    H180881   2.060   3.457   5.223 -1.1436  1.5043 -0.0406
19822TIP3    H280882   2.189   3.535   5.217 -1.0904  1.6034  1.9690
19823TIP3   OH280883   4.096   3.385  15.578 -0.3039 -0.3034  0.6571
19823TIP3    H180884   4.142   3.309  15.542 -1.3156 -0.2137 -0.8977
19823TIP3    H280885   4.036   3.348  15.643  0.8814 -0.5578  1.6594
19824TIP3   OH280886   6.196   0.626   5.622  0.2559  0.3592  0.3713
19824TIP3    H180887   6.129   0.563   5.649  1.4917 -1.6667 -1.0295
19824TIP3    H280888   6.261   0.622   5.692 -0.4822  1.4692  1.1596
19825TIP3   OH280889   5.761   1.075  17.137 -0.1444  0.4233 -0.6902
19825TIP3    H180890   5.796   1.103  17.222  1.7801 -0.3626 -1.1591
19825TIP3    H280891   5.822   1.007  17.108 -2.5168 -1.5392 -1.3126
19826TIP3   OH280892   1.818   5.579  16.228 -0.9674 -0.2257 -0.2305
19826TIP3    H180893   1.863   5.496  16.211  3.3192  1.8555 -0.5539
19826TIP3    H280894   1.839   5.599  16.319 -0.0844  1.3984 -0.7539
19827TIP3   OH280895   0.243   1.914  13.605  0.1078  0.2120  0.3527
19827TIP3    H180896   0.272   1.919  13.514  0.0924 -1.2030  0.2515
19827TIP3    H280897   0.321   1.932  13.656  0.5381 -0.7110  0.0515
19828TIP3   OH280898   5.814   0.955  10.327 -0.7486 -0.3509  0.1800
19828TIP3    H180899   5.873   0.938  10.254 -0.6630 -0.7326  0.3352
19828TIP3    H280900   5.863   1.013  10.386 -0.6142 -0.4806  0.1963
19829TIP3   OH280901   0.895   1.283   4.579 -0.1482  0.0048 -0.6597
19829TIP3    H180902   0.962   1.339   4.618 -0.1964  0.2383 -0.9130
19829TIP3    H280903   0.904   1.200   4.626  1.7702 -0.6931 -2.1114
19830TIP3   OH280904   1.588   6.148  14.190 -0.2058 -0.2273  0.4346
19830TIP3    H180905   1.494   6.159  14.206 -0.8311 -2.2986 -1.3947
19830TIP3    H280906   1.620   6.101  14.267 -0.6794  0.2634  0.9466
19831TIP3   OH280907   6.171   1.490   3.764  0.5893 -0.9002  0.7536
19831TIP3    H180908   6.163   1.397   3.785 -1.1504 -0.5671  1.7282
19831TIP3    H280909   6.105   1.505   3.697 -0.6455  0.0101  2.0961
19832TIP3   OH280910   2.939   5.682  15.837 -0.2082  0.0021 -0.5183
19832TIP3    H180911   2.877   5.633  15.782 -0.7488 -2.2577  1.9195
19832TIP3    H280912   3.013   5.623  15.848  0.4666  0.9381  0.1314
19833TIP3   OH280913   0.932   3.902  11.881  0.1207  0.4376 -0.3484
19833TIP3    H180914   0.891   3.820  11.910  0.3616  0.2956 -0.4053
19833TIP3    H280915   1.018   3.875  11.849  0.0728  0.6696 -0.6732
19834TIP3   OH280916   0.792   3.536   0.965 -0.7515 -0.0206 -0.8093
19834TIP3    H180917   0.874   3.490   0.985 -1.7372 -1.7242 -0.4300
19834TIP3    H280918   0.812   3.592   0.890  1.1543  0.8462  0.2770
19835TIP3   OH280919   0.693   0.084   2.865  0.0097  0.4707 -0.4954
19835TIP3    H180920   0.703   0.046   2.778 -1.2600  1.8073 -1.2740
19835TIP3    H280921   0.605   0.059   2.893  0.4723 -0.1024  0.5000
19836TIP3   OH280922   3.076   0.122   0.303 -0.1664  0.9676 -0.4310
19836TIP3    H180923   3.097   0.040   0.348  0.9968  2.2364  1.5080
19836TIP3    H280924   2.995   0.104   0.257 -0.5672 -0.9454  0.8943
19837TIP3   OH280925   3.030   3.187   0.247 -0.1536  0.3371 -0.2332
19837TIP3    H180926   2.976   3.114   0.277  0.5101 -0.8014 -1.6739
19837TIP3    H280927   3.117   3.170   0.282 -0.0295  0.5215 -0.4474
19838TIP3   OH280928   5.666   2.944   1.299 -0.8600 -0.3535 -0.4535
19838TIP3    H180929   5.606   2.964   1.371  0.0159 -0.3090  0.2868
19838TIP3    H280930   5.715   3.025   1.286 -0.4270 -0.6242 -0.5156
19839TIP3   OH280931   0.035   0.144   0.779  0.2360 -0.8129 -0.2347
19839TIP3    H180932  -0.014   0.190   0.847 -1.6982 -1.8755 -0.8348
19839TIP3    H280933   0.111   0.107   0.824  1.2411  1.8749  0.4987
19840TIP3   OH280934   1.878   2.946  17.158  0.2345  0.4664  0.6702
19840TIP3    H180935   1.951   2.897  17.197  0.2059 -0.2431 -0.1379
19840TIP3    H280936   1.906   3.037  17.160  1.4750  0.1349 -0.2989
19841TIP3   OH280937   4.527   6.247   2.441 -0.1752 -0.4181 -0.4997
19841TIP3    H180938   4.562   6.218   2.356 -0.4657 -0.1219 -0.7192
19841TIP3    H280939   4.587   6.209   2.505  1.7947  1.7723 -0.9349
19842TIP3   OH280940   4.914   5.771  11.023  0.3147 -0.3083 -0.2115
19842TIP3    H180941   4.863   5.692  11.009  1.3579 -1.4008  1.7277
19842TIP3    H280942   4.966   5.781  10.943  0.7533 -2.0678 -0.1800
19843TIP3   OH280943   1.591   3.061   2.656 -0.5463  0.0584  0.0271
19843TIP3    H180944   1.569   3.006   2.581 -1.0449  0.6453 -0.2672
19843TIP3    H280945   1.686   3.052   2.665 -0.1940  1.3134 -1.7755
19844TIP3   OH280946   5.350   1.060   4.677 -0.2052 -0.5319 -0.2182
19844TIP3    H180947   5.309   0.992   4.730 -1.2111  0.1683 -0.0745
19844TIP3    H280948   5.285   1.082   4.611 -0.3472  1.0536  0.3962
19845TIP3   OH280949   6.435   6.299  16.524  0.0037 -0.7379 -0.0697
19845TIP3    H180950   6.421   6.342  16.440  3.6971  0.2430 -0.3242
19845TIP3    H280951   6.437   6.371  16.588 -0.9745 -1.3062  0.6306
19846TIP3   OH280952   4.541   4.195   4.057  0.1676 -0.4483 -0.1430
19846TIP3    H180953   4.458   4.186   4.011 -0.3877 -0.9102  0.9230
19846TIP3    H280954   4.607   4.185   3.989 -0.5228 -4.5709 -0.4612
19847TIP3   OH280955   0.500   2.307   0.446 -0.7004  0.0792  0.1795
19847TIP3    H180956   0.456   2.365   0.508 -2.6826 -2.0276  0.8472
19847TIP3    H280957   0.522   2.364   0.372 -0.1312  2.2140  1.9037
19848TIP3   OH280958   3.570   5.788   1.435 -0.4425 -0.2077 -0.0821
19848TIP3    H180959   3.499   5.841   1.469  0.4919  0.6527  0.5673
19848TIP3    H280960   3.644   5.806   1.493  0.5091 -0.5489 -1.1593
19849TIP3   OH280961   0.965   1.890  14.743 -0.1842 -0.6276  0.0642
19849TIP3    H180962   0.921   1.882  14.658  0.5164  0.5982 -0.4347
19849TIP3    H280963   1.058   1.889  14.721 -0.0009  0.2256  0.7608
19850TIP3   OH280964   4.671   1.578   2.641  0.1029 -0.1511  0.7112
19850TIP3    H180965   4.581   1.585   2.610 -0.5397 -0.6175  2.3594
19850TIP3    H280966   4.712   1.661   2.616 -0.7335  0.0001 -0.1967
19851TIP3   OH280967   5.438   4.875   1.695 -0.1385  0.6822  0.2798
19851TIP3    H180968   5.385   4.813   1.645 -0.7401  0.6161  0.9987
19851TIP3    H280969   5.379   4.909   1.762  0.4534  1.3325  0.4778
19852TIP3   OH280970   2.155   5.229   2.003 -0.4736 -0.0041 -0.1525
19852TIP3    H180971   2.196   5.262   1.923 -0.9056  0.1829 -0.3035
19852TIP3    H280972   2.152   5.134   1.991 -0.0900 -0.0190 -0.1384
19853TIP3   OH280973   5.201   1.093   2.036 -0.1029 -0.3960 -0.2952
19853TIP3    H180974   5.235   1.009   2.065 -0.5416 -0.5967 -0.3547
19853TIP3    H280975   5.106   1.084   2.043 -0.1372  0.7163  1.5172
19854TIP3   OH280976   6.542   0.573  13.266 -0.0496 -0.3276 -0.1352
19854TIP3    H180977   6.611   0.594  13.329 -0.2009 -1.4766  0.4458
19854TIP3    H280978   6.509   0.658  13.236 -0.5821  0.2781  2.0069
19855TIP3   OH280979   2.408   2.679   0.769  0.5251 -0.0268 -0.1002
19855TIP3    H180980   2.420   2.606   0.829  2.6461 -0.3610 -0.8621
19855TIP3    H280981   2.465   2.660   0.695  0.0706  1.7165 -0.9632
19856TIP3   OH280982   4.237   5.342   2.167  0.1638  0.1964  0.4353
19856TIP3    H180983   4.262   5.432   2.187 -0.4776  0.8043 -1.3035
19856TIP3    H280984   4.310   5.308   2.115  0.5604 -0.4245  1.3739
19857TIP3   OH280985   5.480   2.910   3.565  0.2293  0.3903  0.1118
19857TIP3    H180986   5.446   2.994   3.535  0.2369  0.1710 -0.5285
19857TIP3    H280987   5.412   2.876   3.623  0.5197  1.1363  0.8983
19858TIP3   OH280988   6.050   5.472  15.223 -0.5602  0.3983 -0.5709
19858TIP3    H180989   6.046   5.392  15.170 -0.2394  0.1455 -0.2114
19858TIP3    H280990   5.987   5.530  15.181 -1.5724 -0.4114 -0.2232
19859TIP3   OH280991   5.841   1.321   3.666  0.2893 -0.2158 -0.4996
19859TIP3    H180992   5.881   1.407   3.655 -0.7381  0.3369 -0.0153
19859TIP3    H280993   5.787   1.330   3.745 -1.2451 -0.7622 -1.4603
19860TIP3   OH280994   5.186   0.854  15.340 -0.0116 -0.0869 -0.0685
19860TIP3    H180995   5.228   0.777  15.380  1.3542  0.5159 -0.3102
19860TIP3    H280996   5.205   0.846  15.247  0.6606  0.8390 -0.0259
19861TIP3   OH280997   6.511   6.024   5.625 -0.3179  0.1050 -0.1677
19861TIP3    H180998   6.430   6.072   5.644 -0.3673  0.7326 -1.7532
19861TIP3    H280999   6.519   6.030   5.530  1.8463  0.4745 -0.0074
19862TIP3   OH281000   6.274   3.870  12.887  0.1754  0.1822 -0.1512
19862TIP3    H181001   6.214   3.839  12.955 -0.6971  0.6350 -0.6983
19862TIP3    H281002   6.226   3.940  12.843  0.9109  0.2080 -0.9344
19863TIP3   OH281003   1.758   3.983  15.790  0.1333  0.2968 -0.2508
19863TIP3    H181004   1.825   4.024  15.735  1.3740 -1.6324 -0.2698
19863TIP3    H281005   1.785   3.891  15.795 -0.7117  0.1278  2.4234
19864TIP3   OH281006   5.398   3.652  15.755  0.5910 -0.2843 -0.3809
19864TIP3    H181007   5.463   3.628  15.690  0.3209  0.3270 -0.8886
19864TIP3    H281008   5.325   3.591  15.740 -0.9320  1.9865 -2.9866
19865TIP3   OH281009   0.862   2.157   1.368 -0.1946  0.3712 -0.6360
19865TIP3    H181010   0.843   2.249   1.351  0.4348  0.3985 -1.1897
19865TIP3    H281011   0.799   2.132   1.437  0.5059  1.5636  0.4695
19866TIP3   OH281012   1.325   1.940   1.125  0.2161 -0.0838  0.3384
19866TIP3    H181013   1.296   1.849   1.122  1.5379 -0.4998 -2.1543
19866TIP3    H281014   1.262   1.989   1.072 -0.2481  0.4118  1.3146
19867TIP3   OH281015   2.069   5.521   0.855 -0.8249 -0.0824 -0.2233
19867TIP3    H181016   2.069   5.564   0.940 -0.1493 -0.5188  0.0013
19867TIP3    H281017   1.987   5.550   0.814 -0.7230  0.8587  0.2002
19868TIP3   OH281018   1.373   4.715  16.679  0.8328  0.4463  0.9627
19868TIP3    H181019   1.400   4.666  16.757 -1.1169  1.3949  2.3133
19868TIP3    H281020   1.387   4.807  16.703 -0.4416  0.7865  0.4740
19869TIP3   OH281021   4.868   5.987  14.485 -0.2175  0.1465 -0.0727
19869TIP3    H181022   4.943   6.008  14.429 -0.6969  1.3674 -0.2917
19869TIP3    H281023   4.823   5.915  14.440 -0.9834  1.5556 -1.6588
19870TIP3   OH281024   6.730   1.660  15.153  0.7448 -0.1073  0.2955
19870TIP3    H181025   6.819   1.686  15.129 -0.0813  1.0785 -1.6771
19870TIP3    H281026   6.725   1.568  15.128  1.4762 -0.2613  0.6689
19871TIP3   OH281027   1.923   4.447  11.233  0.3496  0.5752 -0.1746
19871TIP3    H181028   1.988   4.471  11.166 -1.0117  2.2321 -0.9910
19871TIP3    H281029   1.858   4.396  11.185  0.7729 -0.6713  0.5380
19872TIP3   OH281030   2.715   6.058   1.051  0.6623  0.2992 -0.0992
19872TIP3    H181031   2.730   5.964   1.042  0.7732  0.3139 -0.0650
19872TIP3    H281032   2.771   6.085   1.124  2.3030  0.8056 -1.5043
19873TIP3   OH281033   2.311   1.340   1.319  0.3804  0.0548 -0.1345
19873TIP3    H181034   2.377   1.275   1.342 -0.0631 -0.3055  0.1430
19873TIP3    H281035   2.327   1.360   1.227  0.5697 -0.3931 -0.2014
19874TIP3   OH281036   4.135   1.457   3.272  0.2022 -0.3830 -0.2550
19874TIP3    H181037   4.186   1.399   3.215  0.7451 -1.7116  1.4955
19874TIP3    H281038   4.178   1.542   3.265  0.5816 -0.6499 -1.3762
19875TIP3   OH281039   0.351   0.020   4.463 -0.8590  0.1878 -0.2749
19875TIP3    H181040   0.332   0.077   4.537  0.5770  0.0558  0.2326
19875TIP3    H281041   0.425   0.062   4.419 -1.9834  0.5213 -1.9368
19876TIP3   OH281042   5.354   5.503  15.301 -0.1689  0.1689  0.4156
19876TIP3    H181043   5.291   5.438  15.333 -0.3470  0.9002  1.6128
19876TIP3    H281044   5.333   5.513  15.208 -1.1204 -0.3744  0.5554
19877TIP3   OH281045   0.099   4.243   5.388 -0.5181  0.4970  0.2314
19877TIP3    H181046   0.141   4.326   5.368 -1.2598  0.9534  0.5462
19877TIP3    H281047   0.025   4.237   5.328 -1.1067  0.5799  0.9270
19878TIP3   OH281048   0.353   1.049  13.502  0.2889 -0.4491 -0.1064
19878TIP3    H181049   0.289   1.038  13.431 -1.9747 -1.9602  1.9797
19878TIP3    H281050   0.383   0.960  13.522 -0.4789 -0.3147  1.9018
19879TIP3   OH281051   3.572   5.548   2.850 -0.4022  0.2837  0.0688
19879TIP3    H181052   3.482   5.561   2.820 -0.4638 -0.9067 -0.3114
19879TIP3    H281053   3.626   5.598   2.788 -0.6680 -0.6548 -0.9486
19880TIP3   OH281054   5.713   6.494   5.072  0.3485  0.6595  0.1972
19880TIP3    H181055   5.777   6.541   5.019 -0.5651  1.9329  0.1870
19880TIP3    H281056   5.763   6.422   5.111  0.8689 -0.8984 -3.0542
19881TIP3   OH281057   3.154   4.794   5.456 -0.1469  0.0804 -0.0136
19881TIP3    H181058   3.133   4.816   5.547  2.6477  0.2720  0.6719
19881TIP3    H281059   3.199   4.871   5.423  0.6192 -0.7361 -0.9268
19882TIP3   OH281060   6.190   2.661   5.638  0.1576 -0.6691 -0.1868
19882TIP3    H181061   6.162   2.576   5.606 -0.6946 -1.2914  2.0863
19882TIP3    H281062   6.162   2.664   5.729  0.2717  1.9983 -0.1519
19883TIP3   OH281063   0.092   4.989  13.431 -0.6503  0.4921  0.0968
19883TIP3    H181064   0.108   5.016  13.340  0.5199  0.9816  0.4200
19883TIP3    H281065   0.165   4.930  13.451 -0.6910  0.6693  0.8157
19884TIP3   OH281066   5.858   4.613  16.015  0.1514 -0.4504  0.0492
19884TIP3    H181067   5.918   4.687  16.004 -1.2757  0.7564 -0.0103
19884TIP3    H281068   5.778   4.652  16.050 -0.9456 -1.8364 -0.7975
19885TIP3   OH281069   5.455   1.663   6.575  0.0766  0.0122 -0.0769
19885TIP3    H181070   5.385   1.651   6.511  0.5800 -0.3547 -0.5674
19885TIP3    H281071   5.459   1.580   6.622  0.6303 -0.2120 -0.5097
19886TIP3   OH281072   5.980   3.130   1.450 -0.5507  0.1004  0.1029
19886TIP3    H181073   6.045   3.115   1.519 -0.9196  0.6469  0.5789
19886TIP3    H281074   6.029   3.176   1.381 -0.2371 -0.2399  0.0909
19887TIP3   OH281075   4.820   2.026   1.868 -0.2662  0.4511 -0.3014
19887TIP3    H181076   4.906   2.017   1.827 -1.3419 -0.9782 -2.4290
19887TIP3    H281077   4.784   1.937   1.868 -2.6115  1.3173 -1.5243
19888TIP3   OH281078   4.854   1.089  13.456 -0.2529 -0.5204 -0.5269
19888TIP3    H181079   4.774   1.045  13.486 -1.5068  1.2196 -1.1488
19888TIP3    H281080   4.914   1.083  13.529 -0.7368 -2.3591 -0.2421
19889TIP3   OH281081   5.773   1.877  14.400  0.2386  1.0351 -0.9786
19889TIP3    H181082   5.687   1.919  14.398 -0.0676  0.5771  1.0208
19889TIP3    H281083   5.827   1.936  14.453 -0.2951 -1.1059  2.1966
19890TIP3   OH281084   2.684   2.271   2.280 -0.5562  0.0216  0.0402
19890TIP3    H181085   2.712   2.185   2.310 -1.4794 -0.1322  0.5172
19890TIP3    H281086   2.621   2.253   2.210  0.5501  0.3572 -1.0633
19891TIP3   OH281087   0.790   0.407   2.070  0.1171 -0.7712 -0.0830
19891TIP3    H181088   0.804   0.486   2.018 -0.7331 -1.2373 -1.0553
19891TIP3    H281089   0.877   0.368   2.079  0.3626 -0.3457 -0.6066
19892TIP3   OH281090   1.850   3.843   3.242  0.4956  0.5760  0.1637
19892TIP3    H181091   1.770   3.886   3.213  0.6903  1.7190  1.2132
19892TIP3    H281092   1.832   3.750   3.234 -0.8623  0.8176  0.1907
19893TIP3   OH281093   3.774   2.723   4.373  0.1671  0.1296 -0.0387
19893TIP3    H181094   3.829   2.704   4.297 -0.2373 -1.1155 -0.0434
19893TIP3    H281095   3.751   2.637   4.408 -3.7965  0.4080 -1.4838
19894TIP3   OH281096   5.624   1.916  14.147  0.3053  0.4684  0.5837
19894TIP3    H181097   5.612   1.850  14.078  0.1353  2.7401 -1.6739
19894TIP3    H281098   5.718   1.915  14.164  0.3732 -0.0116  0.2322
19895TIP3   OH281099   0.955   3.418   5.378 -0.4684  0.3264  0.5709
19895TIP3    H181100   1.031   3.377   5.418  0.9670  2.2541 -0.0596
19895TIP3    H281101   0.881   3.388   5.431  0.5502 -2.3876  0.6036
19896TIP3   OH281102   5.614   4.614  13.468  0.5725 -0.2053 -0.7725
19896TIP3    H181103   5.620   4.642  13.559 -1.6932 -0.7006 -0.4164
19896TIP3    H281104   5.671   4.537  13.463 -2.0954 -2.5319  1.2982
19897TIP3   OH281105   5.129   1.980   6.264  0.0964  0.1674 -0.0364
19897TIP3    H181106   5.162   2.069   6.247  0.4320  0.3166  1.2484
19897TIP3    H281107   5.073   1.990   6.341 -0.8781 -0.5439 -0.6354
19898TIP3   OH281108   6.196   3.904   5.533  0.1180 -0.0376 -0.3251
19898TIP3    H181109   6.255   3.834   5.506 -0.8534 -1.3604  0.8468
19898TIP3    H281110   6.206   3.971   5.466  1.8467 -0.8500 -0.9300
19899TIP3   OH281111   4.279   5.052  13.387  0.0868 -0.5016 -0.3173
19899TIP3    H181112   4.231   4.969  13.381 -0.3786 -0.3047  0.5274
19899TIP3    H281113   4.352   5.034  13.446 -0.6269 -0.0417  0.7278
19900TIP3   OH281114   0.661   1.863  11.721 -0.0598  0.3575  0.6321
19900TIP3    H181115   0.665   1.820  11.806  1.0202  0.5671  0.6970
19900TIP3    H281116   0.741   1.837  11.676 -1.2276 -0.8397 -0.8745
19901TIP3   OH281117   1.480   3.658   4.077  0.5060 -0.0832 -0.4907
19901TIP3    H181118   1.397   3.610   4.078  0.3290  0.1850 -1.4884
19901TIP3    H281119   1.499   3.672   3.985  0.5628  1.7537 -0.2383
19902TIP3   OH281120   0.036   2.419  13.145  0.2735  0.4319  0.5031
19902TIP3    H181121  -0.018   2.344  13.120 -1.4776  1.8564 -0.2930
19902TIP3    H281122   0.003   2.490  13.090  1.4549  1.9232  1.6528
19903TIP3   OH281123   0.658   1.336   2.894  0.2362 -0.2169 -0.2850
19903TIP3    H181124   0.693   1.403   2.835  0.3578 -1.0182 -1.1502
19903TIP3    H281125   0.566   1.359   2.904 -0.1043 -0.7442 -1.8117
19904TIP3   OH281126   1.825   0.683  16.175 -0.1847 -0.3282 -0.2425
19904TIP3    H181127   1.746   0.638  16.145 -0.7506  0.3293  0.2301
19904TIP3    H281128   1.799   0.725  16.257  0.5211  0.3218 -0.3402
19905TIP3   OH281129   2.836   5.921  15.465 -0.1709  0.1299 -0.4830
19905TIP3    H181130   2.909   5.929  15.526 -0.5864 -1.7749  0.3346
19905TIP3    H281131   2.763   5.966  15.508 -0.1338 -0.1384 -0.1371
19906TIP3   OH281132   0.653   6.173  12.522  0.8591 -0.3541  0.0648
19906TIP3    H181133   0.590   6.202  12.588  0.3227 -0.7064 -0.2818
19906TIP3    H281134   0.687   6.091  12.556 -0.1382 -1.0398 -0.5323
19907TIP3   OH281135   6.682   4.678   1.801 -0.3315 -0.4743 -0.0112
19907TIP3    H181136   6.753   4.622   1.770 -0.9878 -1.4955  0.2731
19907TIP3    H281137   6.657   4.641   1.886 -1.0163  0.0356  0.0217
19908TIP3   OH281138   6.056   3.070   0.247  0.2600  0.2030 -0.3800
19908TIP3    H181139   6.068   2.976   0.259 -0.5670  0.2317  0.8542
19908TIP3    H281140   6.024   3.079   0.158  0.9574 -0.6149 -0.7290
19909TIP3   OH281141   3.789   3.928  16.933  0.0447 -0.3930  0.1623
19909TIP3    H181142   3.723   3.859  16.940  1.6657 -1.9498  0.9187
19909TIP3    H281143   3.808   3.953  17.023 -0.1340  0.7062 -0.0812
19910TIP3   OH281144   3.487   5.194   4.662 -0.1352 -0.1608  0.0128
19910TIP3    H181145   3.447   5.253   4.598  0.3624  0.4706  0.2715
19910TIP3    H281146   3.463   5.230   4.747  1.4571  0.6041  0.1854
19911TIP3   OH281147   3.872   5.483   1.261 -0.5195  0.7211 -0.7264
19911TIP3    H181148   3.920   5.412   1.217 -0.9492  0.3300 -0.5776
19911TIP3    H281149   3.939   5.549   1.279  0.0939 -0.0726  0.0087
19912TIP3   OH281150   5.458   0.779  12.495 -0.3180  0.5429 -0.1778
19912TIP3    H181151   5.522   0.730  12.444  0.6192 -0.5090  1.8651
19912TIP3    H281152   5.373   0.747  12.464  0.1833  0.3948 -1.4599
19913TIP3   OH281153   2.458   4.024   5.091  0.3142 -0.2980  0.6473
19913TIP3    H181154   2.514   3.994   5.020  0.8588 -1.9070  1.6906
19913TIP3    H281155   2.496   3.985   5.170 -0.9944  0.3965  1.6727
19914TIP3   OH281156   0.235   5.299   2.526  0.0935  0.2322 -0.6493
19914TIP3    H181157   0.210   5.291   2.618  0.5210 -0.9113 -0.6224
19914TIP3    H281158   0.153   5.293   2.478  0.0121 -0.7325 -0.4123
19915TIP3   OH281159   0.709   2.093   1.574 -0.9117  0.1535  0.6236
19915TIP3    H181160   0.651   2.124   1.643 -0.8639 -0.5893  0.9990
19915TIP3    H281161   0.770   2.034   1.617 -0.1639  0.5534  0.1489
19916TIP3   OH281162   1.083   5.969  17.232 -0.3503 -0.6796 -0.2003
19916TIP3    H181163   0.996   5.958  17.271 -0.2736  0.7189  0.4191
19916TIP3    H281164   1.073   5.935  17.143 -1.2073 -1.6159  0.2324
19917TIP3   OH281165   3.249   0.165  12.060 -0.3427 -0.0385  0.2005
19917TIP3    H181166   3.298   0.237  12.100  1.8489 -1.0062 -0.5401
19917TIP3    H281167   3.219   0.112  12.133 -1.4394  1.2724  0.7280
19918TIP3   OH281168   1.819   0.793   1.800  0.4889 -1.1019  0.3541
19918TIP3    H181169   1.850   0.846   1.873  1.6604 -1.3892  0.0804
19918TIP3    H281170   1.798   0.858   1.732  0.8982 -0.9173  0.3983
19919TIP3   OH281171   4.174   0.668   3.006  0.4179  0.8896  0.1012
19919TIP3    H181172   4.079   0.654   3.003  0.4982  0.5413 -1.4027
19919TIP3    H281173   4.205   0.643   2.919  2.1408 -0.7907  1.1162
19920TIP3   OH281174   0.947   6.645   1.871  0.2102  0.4499  0.4725
19920TIP3    H181175   0.938   6.676   1.961 -1.7942  1.3115  0.0495
19920TIP3    H281176   0.927   6.722   1.817 -0.2499 -0.4398 -0.6772
19921TIP3   OH281177   3.141   5.016  16.883  0.3371  0.4454  0.1821
19921TIP3    H181178   3.098   5.055  16.959 -0.6527  0.7997 -0.5399
19921TIP3    H281179   3.234   5.038  16.895  0.3747 -0.4532  1.8274
19922TIP3   OH281180   3.364   6.319  17.250 -0.0862 -0.4037  0.5446
19922TIP3    H181181   3.359   6.415  17.244  1.9805 -0.2348  0.6088
19922TIP3    H281182   3.446   6.297  17.205  0.4778 -1.9551  2.2281
19923TIP3   OH281183   5.420   1.788   5.875 -0.0762 -0.3334 -0.1833
19923TIP3    H181184   5.457   1.749   5.796 -1.3102  3.5497 -3.0326
19923TIP3    H281185   5.325   1.784   5.862 -0.2812  1.8083  0.1817
19924TIP3   OH281186   3.435   5.986  13.654  0.5779 -0.1712 -0.0915
19924TIP3    H181187   3.443   5.893  13.678  0.9859 -0.1792 -0.2591
19924TIP3    H281188   3.503   6.030  13.705  0.3342  0.0509  0.0456
19925TIP3   OH281189   5.882   5.992   2.294  0.5782  0.2848 -0.5715
19925TIP3    H181190   5.801   5.948   2.318  0.0908  1.2964 -0.3358
19925TIP3    H281191   5.948   5.954   2.352  0.4642 -1.1719 -1.3504
19926TIP3   OH281192   3.239   4.439   3.157 -0.6488  0.0230  0.2085
19926TIP3    H181193   3.260   4.366   3.215  0.6544  0.1858 -0.0226
19926TIP3    H281194   3.247   4.516   3.212 -1.1013  0.0610  0.2233
19927TIP3   OH281195   0.017   1.416   0.883  0.3096 -0.2801 -0.4467
19927TIP3    H181196  -0.064   1.464   0.899 -0.0002 -0.3590 -1.6805
19927TIP3    H281197  -0.011   1.325   0.871  0.4690 -0.1832 -1.6716
19928TIP3   OH281198   1.925   0.572   2.050 -0.4421 -0.0401  0.1348
19928TIP3    H181199   1.930   0.491   1.999 -1.8058 -0.9772  1.4194
19928TIP3    H281200   1.992   0.628   2.011 -0.2890 -1.3160 -1.5916
19929TIP3   OH281201   1.468   3.311  15.671 -0.2263  0.6684 -0.1026
19929TIP3    H181202   1.374   3.301  15.661 -0.4133  2.9786 -1.3708
19929TIP3    H281203   1.478   3.389  15.725  0.9387  0.9212 -0.6495
19930TIP3   OH281204   1.509   1.345  13.650 -0.1256  0.5400 -0.2281
19930TIP3    H181205   1.443   1.334  13.582  0.6711  1.0991 -1.1105
19930TIP3    H281206   1.487   1.278  13.715 -2.8589  2.0929  0.6161
19931TIP3   OH281207   5.953   5.051  11.445 -0.0620 -0.3124 -0.1951
19931TIP3    H181208   6.007   5.001  11.505  1.5948  1.6168  0.0166
19931TIP3    H281209   6.013   5.081  11.378 -1.3416 -0.0132 -1.2541
19932TIP3   OH281210   6.242   3.478  12.992 -0.0258  0.1631  0.2452
19932TIP3    H181211   6.246   3.383  12.987  0.4431  0.2425 -2.7554
19932TIP3    H281212   6.149   3.498  12.998 -0.2526 -0.5088 -0.7197
19933TIP3   OH281213   5.034   6.406   3.537  0.0503 -0.0040 -0.1260
19933TIP3    H181214   4.969   6.476   3.526 -0.8880 -1.0612 -1.8514
19933TIP3    H281215   5.016   6.370   3.624 -0.4329  0.9461  0.1766
19934TIP3   OH281216   1.333   6.428  13.249 -0.3517 -0.1461  0.2621
19934TIP3    H181217   1.429   6.436  13.250 -0.2879 -0.7198 -0.6602
19934TIP3    H281218   1.313   6.387  13.333  0.2113 -0.0101  0.4733
19935TIP3   OH281219   6.553   1.048  16.200 -0.1992 -0.0089  0.3067
19935TIP3    H181220   6.581   1.117  16.260  1.6950 -0.9652  0.5829
19935TIP3    H281221   6.560   1.087  16.113 -1.9309  1.0339  0.5798
19936TIP3   OH281222   5.528   3.386   3.747 -0.2641 -0.0520  0.2670
19936TIP3    H181223   5.599   3.448   3.731 -0.7243  0.5433  0.4851
19936TIP3    H281224   5.566   3.320   3.805  0.6090 -0.7052 -1.0016
19937TIP3   OH281225   1.250   1.495   1.896 -0.6992 -0.5998  0.2438
19937TIP3    H181226   1.259   1.516   1.803 -0.9363  0.2769  0.4045
19937TIP3    H281227   1.183   1.427   1.900 -3.7546  2.0996  0.0106
19938TIP3   OH281228   6.131   3.710  15.497 -0.0749  0.3546  1.3072
19938TIP3    H181229   6.132   3.681  15.588 -1.0819 -1.6293  0.7324
19938TIP3    H281230   6.112   3.631  15.447 -1.1569  1.6899 -0.5068
19939TIP3   OH281231   4.080   2.773  16.869  0.5042 -0.7683  0.4461
19939TIP3    H181232   4.162   2.820  16.854 -0.2333  0.5079  0.2561
19939TIP3    H281233   4.035   2.774  16.785 -0.7046  0.5747  1.0572
19940TIP3   OH281234   5.146   0.945   0.121  0.1373 -0.5072  0.4158
19940TIP3    H181235   5.177   0.895   0.197  2.3771  1.7912  1.1538
19940TIP3    H281236   5.080   1.004   0.157  0.8006  0.2008  0.4913
19941LIG      S81237   3.424   3.673   4.066 -0.2508 -0.3358  0.5363
19941LIG     F181238   2.975   3.507   4.266 -0.1121 -0.0452  0.4582
19941LIG     F281239   3.052   3.459   4.456  0.2282 -0.1108 -0.4011
19941LIG     F381240   2.914   3.638   4.427 -0.2728 -0.1983  0.4550
19941LIG     N181241   3.818   3.656   4.353  0.1458 -0.3051  0.0344
19941LIG     N281242   3.796   3.396   4.207  0.5290  0.0037 -0.1172
19941LIG     N381243   3.469   3.900   4.240  0.0790 -0.4239  0.4513
19941LIG     N481244   3.256   3.992   4.441  0.0710 -0.5686 -0.2223
19941LIG     C181245   3.870   3.632   4.217 -0.6323 -0.1231  0.2435
19941LIG     C281246   3.826   3.527   4.429  0.9285  0.1801  0.2015
19941LIG     C381247   3.692   3.723   4.349  0.2523 -0.1324 -0.9846
19941LIG     C481248   3.779   3.527   4.141 -0.3284  0.5764 -0.2666
19941LIG     C581249   3.750   3.416   4.349 -0.1096  0.2791 -0.2838
19941LIG     C681250   3.702   3.860   4.292 -0.4448 -0.0253 -0.0861
19941LIG     C781251   3.576   3.943   4.327 -0.2798  0.0133 -1.0937
19941LIG     C881252   3.933   3.334   4.200  0.3117 -0.2236  0.0689
19941LIG     C981253   3.352   3.830   4.282  0.2652 -0.4337  0.3157
19941LIG    C1081254   3.474   3.939   4.103 -0.0668 -0.0589 -0.0681
19941LIG    C1181255   3.319   3.716   4.200 -0.4753  0.0642 -0.5478
19941LIG    C1281256   3.458   3.831   4.011  0.0528  0.9402  0.1220
19941LIG    C1381257   3.250   3.870   4.376 -0.0075 -0.3785  0.2782
19941LIG    C1481258   3.509   4.069   4.065 -0.3963 -0.1993 -0.2948
19941LIG    C1581259   3.218   3.624   4.232  0.2090 -0.5300 -0.9076
19941LIG    C1681260   3.146   3.783   4.405 -0.4186 -0.6571  0.0141
19941LIG    C1781261   3.132   3.659   4.340  0.1100  0.0695 -0.0175
19941LIG    C1881262   3.475   3.859   3.877 -0.1799  0.1241  0.4058
19941LIG    C1981263   3.535   4.089   3.931  0.3906 -0.8297  0.2007
19941LIG    C2081264   3.522   3.988   3.841 -0.3942 -0.2403 -0.5926
19941LIG    C2181265   3.018   3.568   4.373 -0.2477 -0.7772  0.4453
19941LIG     H181266   3.974   3.600   4.236 -0.5659  1.5923  3.4227
19941LIG     H281267   3.887   3.721   4.154  0.5256 -0.0178  0.6905
19941LIG     H381268   3.776   3.546   4.527  1.5573  3.7576 -0.0389
19941LIG     H481269   3.932   3.497   4.445  1.0238  0.3178 -0.1747
19941LIG     H581270   3.662   3.730   4.456 -0.7715  3.2141 -1.3810
19941LIG     H681271   3.604   3.672   4.305 -1.1165  1.8272 -0.6519
19941LIG     H781272   3.674   3.561   4.153  0.6004  3.2681  1.2080
19941LIG     H881273   3.809   3.518   4.034  0.6593 -2.8602  0.2009
19941LIG     H981274   3.746   3.322   4.408  0.8822 -0.6211 -1.5994
19941LIG    H1081275   3.645   3.451   4.342 -1.1908 -2.6835 -0.2404
19941LIG    H1181276   3.718   3.892   4.186  1.0982  1.8049  0.6320
19941LIG    H1281277   3.794   3.902   4.338  0.0717 -1.3781  0.1493
19941LIG    H1381278   3.563   3.935   4.437  1.6938  0.5363 -0.7896
19941LIG    H1481279   3.587   4.053   4.316 -1.3409  0.2759  0.2285
19941LIG    H1581280   3.994   3.393   4.128  0.0755  1.1256  0.9357
19941LIG    H1681281   3.919   3.229   4.166  1.3620 -0.4841  0.4319
19941LIG    H1781282   3.985   3.341   4.298 -0.4278 -1.0417  0.5390
19941LIG    H1881283   3.507   4.154   4.132 -1.3584 -2.1773  2.3472
19941LIG    H1981284   3.199   3.529   4.184  0.0035 -2.1408  2.1187
19941LIG    H2081285   3.070   3.815   4.475 -0.3934  1.3397 -0.8165
19941LIG    H2181286   3.462   3.782   3.804 -1.2183  0.6492  0.0131
19941LIG    H2281287   3.565   4.185   3.894 -1.1668 -0.3948 -0.0015
19941LIG    H2381288   3.571   3.999   3.746  0.5323  0.5782 -0.0402
19941LIG    H2481289   3.344   4.038   4.429  1.0103 -2.0978  0.5311
19941LIG    H2581290   3.197   4.004   4.521 -1.4172  0.8317 -1.4482
   6.78071   6.78071  17.27340
